Control file title. For DL_FIELD 4.10
49660
    1MOL     C1    1   6.175   0.892   2.419  0.8361 -0.0533  0.3426
    1MOL     C2    2   6.313   0.918   2.488 -0.3846  0.2811 -0.3825
    1MOL     O3    3   6.376   0.791   2.510 -0.4778 -0.3779 -0.1564
    1MOL     C4    4   6.441   0.780   2.634  0.0178  0.4685  0.5120
    1MOL     C5    5   6.471   0.630   2.668  0.2512 -0.0748  0.4192
    1MOL     C6    6   6.550   0.613   2.795 -0.1103  0.4328  0.2135
    1MOL     C7    7   6.609   0.467   2.806 -0.5669  0.4913 -0.6731
    1MOL     H8    8   6.195   0.850   2.320 -0.1274 -0.1487  0.1905
    1MOL     H9    9   6.110   0.832   2.481 -1.3316  2.7149  0.8379
    1MOL    H10   10   6.302   0.982   2.576  2.5989  0.0086  0.2460
    1MOL    H11   11   6.538   0.829   2.636 -0.5122  1.4644  2.4033
    1MOL    H12   12   6.391   0.822   2.721  0.0439  0.9942  0.2737
    1MOL    H13   13   6.528   0.591   2.584  0.1931 -0.0633  0.3749
    1MOL    H14   14   6.385   0.565   2.682 -0.2104  0.5650  0.5745
    1MOL    H15   15   6.502   0.639   2.890 -0.5272  2.1284 -0.4434
    1MOL    H16   16   6.635   0.682   2.797 -0.4820  1.0101 -2.1913
    1MOL    H17   17   6.635   0.425   2.709  1.6527  0.0909  0.0523
    1MOL    H18   18   6.533   0.405   2.853  0.9645 -1.6883 -1.0336
    1MOL    H19   19   6.694   0.470   2.874 -1.5970  3.7427  0.5820
    1MOL    H20   20   6.125   0.989   2.412  2.2313  0.5949 -1.0769
    1MOL    C21   21   6.407   1.001   2.390  0.0252 -0.1138  0.3220
    1MOL    C22   22   6.547   1.046   2.437  0.9577  0.7831 -0.0768
    1MOL    O23   23   6.600   1.111   2.315  0.7338 -0.4524 -0.6860
    1MOL    C24   24   6.672   1.036   2.220  0.7043  0.6776 -0.3139
    1MOL    C25   25   6.719   1.135   2.115  0.3014  0.2797  0.6711
    1MOL    C26   26   6.802   1.257   2.177  0.1822 -0.2421  0.2374
    1MOL    C27   27   6.821   1.372   2.077 -0.0393  0.3992 -0.0829
    1MOL    H28   28   6.353   1.092   2.365 -0.8806 -0.8122 -0.2787
    1MOL    H29   29   6.427   0.934   2.307 -1.0393  0.5564 -0.4791
    1MOL    H30   30   6.608   0.961   2.468 -0.7237 -0.5135 -0.2867
    1MOL    H31   31   6.602   0.965   2.175 -1.6012  1.2269  2.3092
    1MOL    H32   32   6.760   0.982   2.255  0.8487  0.7732 -0.5325
    1MOL    H33   33   6.785   1.078   2.049 -1.5089 -0.5729 -0.4193
    1MOL    H34   34   6.638   1.168   2.051  2.1683  0.6978 -1.5447
    1MOL    H35   35   6.754   1.296   2.267  0.3410 -1.2952  0.7877
    1MOL    H36   36   6.902   1.219   2.196  0.9251  1.7088  0.2972
    1MOL    H37   37   6.722   1.409   2.051 -0.6893 -0.3783  1.2180
    1MOL    H38   38   6.875   1.452   2.128  0.8532 -0.4126  0.2436
    1MOL    H39   39   6.864   1.333   1.985  1.6564  0.9141  0.4873
    1MOL    C40   40   6.549   1.139   2.552  0.3783 -0.9625  0.4738
    1MOL    C41   41   6.695   1.185   2.585 -0.5612 -0.3166  0.1138
    1MOL    O42   42   6.743   1.072   2.646  0.1340  0.0115 -0.1224
    1MOL    C43   43   6.885   1.048   2.644 -0.0707 -0.2745 -0.0059
    1MOL    C44   44   6.916   0.930   2.737  0.0691  0.4279 -0.3489
    1MOL    C45   45   6.889   0.953   2.888 -0.1598  0.5874 -0.2962
    1MOL    C46   46   6.910   0.829   2.976  0.3052 -0.1467 -0.1651
    1MOL    H47   47   6.496   1.099   2.639  1.2738 -1.3033  0.8751
    1MOL    H48   48   6.498   1.232   2.527 -2.9090 -2.8792 -0.2512
    1MOL    H49   49   6.746   1.207   2.491 -0.0639 -0.4591  0.3519
    1MOL    H50   50   6.938   1.136   2.680  1.2425 -1.0935  0.1074
    1MOL    H51   51   6.924   1.023   2.546 -1.1296  0.7992 -0.7163
    1MOL    H52   52   7.022   0.905   2.742  0.2628  1.2330 -0.3451
    1MOL    H53   53   6.859   0.844   2.701 -1.5746  0.9758  0.8794
    1MOL    H54   54   6.784   0.982   2.898  0.1013  2.1238 -1.6521
    1MOL    H55   55   6.960   1.031   2.914  0.6392 -0.2380  0.0076
    1MOL    H56   56   6.862   0.743   2.930  1.1324 -0.7578  0.0915
    1MOL    H57   57   7.012   0.792   2.963  1.5490  3.0955 -0.2520
    1MOL    H58   58   6.889   0.842   3.082 -1.5503 -0.4901 -0.4738
    1MOL    C59   59   6.700   1.305   2.680 -0.5665  0.1120  0.6136
    1MOL    C60   60   6.696   1.446   2.624  0.4364  0.7212 -0.7843
    1MOL    O61   61   6.705   1.535   2.734  0.0711 -0.0143  0.1066
    1MOL    C62   62   6.588   1.575   2.806 -0.3555 -0.0081 -0.8439
    1MOL    C63   63   6.624   1.694   2.878  0.1652 -0.2207 -0.0817
    1MOL    C64   64   6.728   1.687   2.990 -0.2185 -0.5139 -0.1425
    1MOL    C65   65   6.737   1.817   3.070 -0.1967  0.4641  0.4616
    1MOL    H66   66   6.622   1.290   2.754 -1.8653  0.6399 -0.6110
    1MOL    H67   67   6.795   1.297   2.733  0.0197  2.8613  0.0611
    1MOL    H68   68   6.604   1.466   2.568 -0.6140  0.2934  0.7555
    1MOL    H69   69   6.552   1.489   2.862  2.5623 -2.2585 -2.3111
    1MOL    H70   70   6.509   1.600   2.736  0.9827  2.4541 -1.5425
    1MOL    H71   71   6.660   1.771   2.810 -3.5146  2.2950  0.6873
    1MOL    H72   72   6.532   1.734   2.922  0.9566  1.9173 -0.3070
    1MOL    H73   73   6.705   1.603   3.055  0.1402 -1.2696 -0.9845
    1MOL    H74   74   6.828   1.660   2.956  0.0492  1.6702 -1.1985
    1MOL    H75   75   6.668   1.799   3.152 -0.5314  0.0147  0.0840
    1MOL    H76   76   6.836   1.836   3.113  0.8988  2.2738 -2.7296
    1MOL    H77   77   6.708   1.899   3.005  0.3018  0.4013  0.1544
    1MOL    C78   78   6.826   1.473   2.546 -0.5453  0.4232  0.0404
    1MOL    C79   79   6.826   1.598   2.450 -0.5204 -0.1182  0.1796
    1MOL    O80   80   6.726   1.566   2.352  0.0230  0.0375 -0.3467
    1MOL    C81   81   6.619   1.655   2.337 -1.2033  0.4729  0.4438
    1MOL    C82   82   6.521   1.589   2.246 -0.1214 -0.2523 -0.3565
    1MOL    C83   83   6.475   1.455   2.299  0.3881  0.2724 -0.2526
    1MOL    C84   84   6.382   1.390   2.201  0.0050  0.2296 -0.9022
    1MOL    H85   85   6.853   1.392   2.479 -0.8490 -0.0748  0.5193
    1MOL    H86   86   6.899   1.486   2.626 -1.1441 -1.9069  1.0053
    1MOL    H87   87   6.793   1.692   2.495  1.7450  1.0896 -0.6252
    1MOL    H88   88   6.648   1.752   2.295 -2.5735  0.9127  0.4751
    1MOL    H89   89   6.576   1.667   2.436 -0.5828 -0.2833  0.8068
    1MOL    H90   90   6.433   1.648   2.219  1.0517  1.5580 -0.3569
    1MOL    H91   91   6.578   1.581   2.153 -0.4696 -1.2151 -0.4960
    1MOL    H92   92   6.417   1.464   2.391 -1.2651 -3.1166 -0.8843
    1MOL    H93   93   6.562   1.392   2.314 -0.1602  0.0502  2.1493
    1MOL    H94   94   6.440   1.318   2.144 -3.0894 -1.5401 -1.9282
    1MOL    H95   95   6.327   1.311   2.252  0.2504 -1.7700 -3.6661
    1MOL    H96   96   6.309   1.453   2.151 -0.1658  0.3615 -0.4923
    1MOL    C97   97   6.957   1.614   2.370  0.1683  0.6693 -0.3137
    1MOL    C98   98   7.078   1.672   2.445 -0.9877  0.0701 -0.4634
    1MOL    O99   99   7.113   1.574   2.545  0.4784  1.3587  0.0627
    1MOL   C100  100   7.127   1.621   2.676 -0.9721 -1.0538  0.0144
    1MOL   C101  101   7.142   1.502   2.769 -0.0348  0.1019  0.4309
    1MOL   C102  102   7.265   1.414   2.727  0.8016 -0.6307  0.5874
    1MOL   C103  103   7.245   1.271   2.783  0.2286  0.5772  0.0294
    1MOL   H104  104   6.931   1.683   2.290 -0.4268  2.0902  1.0880
    1MOL   H105  105   6.984   1.515   2.334  3.9317  1.1085  1.0803
    1MOL   H106  106   7.050   1.767   2.490 -0.6100  0.0241 -0.1248
    1MOL   H107  107   7.036   1.675   2.702  1.0919  2.1227  0.9270
    1MOL   H108  108   7.221   1.677   2.679 -2.1072  0.8662  0.6457
    1MOL   H109  109   7.053   1.440   2.759  0.7968 -0.9297 -0.6486
    1MOL   H110  110   7.151   1.531   2.874 -1.0068 -0.1766  0.5926
    1MOL   H111  111   7.360   1.455   2.760  0.3503 -0.2274  1.3903
    1MOL   H112  112   7.274   1.392   2.620  3.6043 -3.9935  1.4317
    1MOL   H113  113   7.256   1.275   2.891 -0.5261  3.1637  0.0540
    1MOL   H114  114   7.150   1.226   2.756 -0.4532  2.9844 -1.7780
    1MOL   H115  115   7.318   1.199   2.747 -0.6695 -0.5788  0.4572
    1MOL   C116  116   7.205   1.678   2.356 -0.1522  0.1932 -1.0098
    1MOL   C117  117   7.181   1.771   2.232  0.2521  0.2938 -0.6028
    1MOL   O118  118   7.144   1.895   2.294 -0.4545 -0.4483  0.4026
    1MOL   C119  119   7.122   2.013   2.219  0.5390 -0.8719 -0.0079
    1MOL   C120  120   7.032   2.106   2.297 -0.1658  0.6102  0.2397
    1MOL   C121  121   7.004   2.238   2.231 -1.3022 -0.1540  0.1837
    1MOL   C122  122   6.928   2.333   2.326  0.0060  0.1223 -0.7738
    1MOL   H123  123   7.275   1.718   2.429 -0.0404 -0.0526 -0.9850
    1MOL   H124  124   7.231   1.576   2.329 -0.9874 -0.3801  0.3365
    1MOL   H125  125   7.099   1.728   2.174  0.5318  0.2923 -0.9980
    1MOL   H126  126   7.060   1.994   2.131 -0.0190 -2.4910  0.7204
    1MOL   H127  127   7.222   2.044   2.187 -0.0381  0.5400 -0.5171
    1MOL   H128  128   7.076   2.120   2.396 -0.7532 -0.0183  0.5951
    1MOL   H129  129   6.938   2.050   2.301 -0.3250  0.7677 -1.1951
    1MOL   H130  130   7.101   2.279   2.202 -1.0587 -0.2259  0.8841
    1MOL   H131  131   6.943   2.231   2.141  0.5372 -0.6418 -1.0633
    1MOL   H132  132   6.819   2.326   2.328 -0.2010  2.4420 -1.6458
    1MOL   H133  133   6.954   2.435   2.298 -0.0085 -0.2100 -2.0151
    1MOL   H134  134   6.972   2.331   2.426  0.8475  1.0890 -1.1161
    1MOL   C135  135   7.313   1.789   2.153 -0.0426 -0.3460 -0.2272
    1MOL   C136  136   7.374   1.664   2.086 -0.2321 -0.0308  0.3371
    1MOL   O137  137   7.268   1.593   2.014  0.2641  0.5349 -0.2019
    1MOL   C138  138   7.289   1.448   2.004  1.0647 -0.0054  0.2491
    1MOL   C139  139   7.170   1.400   1.926  0.2708 -0.6792 -0.2862
    1MOL   C140  140   7.137   1.253   1.952  0.5210  0.1638  0.1142
    1MOL   C141  141   7.238   1.144   1.915 -0.3683  1.2367  0.7147
    1MOL   H142  142   7.381   1.845   2.217  0.9907 -1.5609 -0.2535
    1MOL   H143  143   7.296   1.855   2.068  2.1455 -2.8757 -2.7245
    1MOL   H144  144   7.408   1.596   2.164  0.9094  0.4569  0.2759
    1MOL   H145  145   7.297   1.403   2.103  2.6728 -0.7403 -0.1966
    1MOL   H146  146   7.380   1.416   1.953  0.8058 -2.2376  1.1430
    1MOL   H147  147   7.169   1.425   1.820  3.6552 -1.4126 -0.5510
    1MOL   H148  148   7.084   1.456   1.963  1.1190 -0.6302  1.6323
    1MOL   H149  149   7.126   1.236   2.059  3.2549 -0.5947  0.2944
    1MOL   H150  150   7.041   1.239   1.902  0.7773  0.9999 -0.6289
    1MOL   H151  151   7.234   1.142   1.807 -0.1022  1.5556  0.6983
    1MOL   H152  152   7.339   1.147   1.956  0.1799 -0.3545 -0.4917
    1MOL   H153  153   7.204   1.051   1.962 -1.3288  2.0383  1.6455
    1MOL   C154  154   7.493   1.695   1.988  0.0212  0.5788 -0.0965
    1MOL   C155  155   7.634   1.696   2.051  0.4218  1.0840 -0.1977
    1MOL   O156  156   7.624   1.788   2.156 -0.3292 -0.1062  0.6372
    1MOL   C157  157   7.702   1.760   2.275  0.2641  0.2151 -0.1833
    1MOL   C158  158   7.615   1.808   2.389  0.1916 -0.6446  0.2962
    1MOL   C159  159   7.684   1.793   2.519  0.1719 -0.9128 -0.0872
    1MOL   C160  160   7.602   1.835   2.646 -0.1229 -0.5772  0.6789
    1MOL   H161  161   7.478   1.793   1.943 -1.7398  1.7606  2.9036
    1MOL   H162  162   7.481   1.626   1.905 -2.4896 -0.5607  1.1479
    1MOL   H163  163   7.653   1.600   2.097  0.6541  0.5808 -1.3222
    1MOL   H164  164   7.715   1.653   2.286 -1.4681 -0.1178 -1.2706
    1MOL   H165  165   7.801   1.806   2.277  1.6971 -2.7600 -0.7400
    1MOL   H166  166   7.523   1.750   2.391  2.0084 -3.7223 -0.5989
    1MOL   H167  167   7.589   1.913   2.377  1.6678 -0.0729  1.7622
    1MOL   H168  168   7.720   1.691   2.527  0.0733 -1.0069 -0.7642
    1MOL   H169  169   7.783   1.839   2.511 -0.7643  1.4108  1.1603
    1MOL   H170  170   7.658   1.821   2.739 -2.0410  1.0430  2.0932
    1MOL   H171  171   7.558   1.934   2.641 -0.8916 -1.0126 -1.4516
    1MOL   H172  172   7.507   1.781   2.648 -2.0706  2.6917 -0.6558
    1MOL   C173  173   7.752   1.711   1.954 -0.2199  0.0888  0.5082
    1MOL   C174  174   7.800   1.574   1.896  0.4761  0.4094  0.2115
    1MOL   O175  175   7.695   1.531   1.818  1.0506 -0.1485  0.0892
    1MOL   C176  176   7.694   1.389   1.808 -0.1865 -0.0932 -1.2093
    1MOL   C177  177   7.582   1.362   1.705 -0.2404 -0.0148 -0.3984
    1MOL   C178  178   7.625   1.387   1.558 -0.1217  0.2671  0.1978
    1MOL   C179  179   7.519   1.478   1.494  0.6747  0.2219 -0.3520
    1MOL   H180  180   0.027   1.764   2.010  0.0962  0.2026 -0.0348
    1MOL   H181  181   7.720   1.776   1.872 -1.9678 -0.4269  0.7614
    1MOL   H182  182   0.015   1.512   1.984  0.4311  1.7619  1.1879
    1MOL   H183  183   7.677   1.353   1.909  1.8792  0.1901 -0.7441
    1MOL   H184  184   7.788   1.357   1.765 -1.7955 -1.7056 -3.6429
    1MOL   H185  185   7.498   1.418   1.745 -0.9480 -1.7112  0.5309
    1MOL   H186  186   7.563   1.256   1.723 -0.4977  0.3258  1.3261
    1MOL   H187  187   7.729   1.420   1.552 -0.1570  0.3799  0.1973
    1MOL   H188  188   7.613   1.295   1.502  0.4010  0.1419  0.2839
    1MOL   H189  189   7.420   1.450   1.528  0.2109  2.2120 -0.0499
    1MOL   H190  190   7.518   1.581   1.529 -1.6103  0.5590 -1.3331
    1MOL   H191  191   7.528   1.469   1.385  1.2292 -0.9870 -0.2174
    1MOL   C192  192   0.126   1.586   1.810 -0.3620  0.4390  0.2180
    1MOL   C193  193   0.259   1.578   1.889  0.5287  0.0312 -0.2340
    1MOL   O194  194   0.264   1.673   1.998 -0.3697  0.5121  0.1525
    1MOL   C195  195   0.320   1.801   1.976  0.5714 -0.3839 -0.0834
    1MOL   C196  196   0.473   1.794   1.966 -0.4072  0.5539  0.4463
    1MOL   C197  197   0.542   1.928   1.946 -0.2497  0.5276  0.1335
    1MOL   C198  198   0.698   1.922   1.950 -0.6827 -0.5132  0.2613
    1MOL   H199  199   0.111   1.682   1.761  3.1292 -0.8389 -3.6967
    1MOL   H200  200   0.118   1.520   1.723 -1.2880  0.3408  0.3786
    1MOL   H201  201   0.327   1.598   1.806  0.0446  0.4526 -0.5312
    1MOL   H202  202   0.293   1.868   2.058  0.6565 -2.8868  2.0776
    1MOL   H203  203   0.288   1.845   1.882  1.5662  0.7792  0.1065
    1MOL   H204  204   0.497   1.759   2.066 -1.4258  3.6541  1.8324
    1MOL   H205  205   0.504   1.724   1.889 -1.6845 -0.2000  0.5920
    1MOL   H206  206   0.511   2.003   2.018  1.7809  0.2956  1.2759
    1MOL   H207  207   0.510   1.952   1.844  0.0601 -0.8361 -0.2896
    1MOL   H208  208   0.742   1.926   2.050 -0.9332 -0.8113  0.3840
    1MOL   H209  209   0.747   1.834   1.908  1.0119  0.2061  0.6684
    1MOL   H210  210   0.736   2.013   1.904 -1.5341 -0.7244 -0.8768
    1MOL   C211  211   0.289   1.441   1.945  0.6501  0.0942 -0.1164
    1MOL   C212  212   0.294   1.322   1.846  0.1572 -0.7065  0.5204
    1MOL   O213  213   0.421   1.337   1.778 -0.5331 -0.1915  0.3353
    1MOL   C214  214   0.449   1.252   1.671 -0.2881 -0.0178 -0.8168
    1MOL   C215  215   0.475   1.329   1.540 -0.2197  0.3832  0.3970
    1MOL   C216  216   0.353   1.409   1.496 -0.0887 -0.3287 -0.2329
    1MOL   C217  217   0.359   1.420   1.343 -0.3135  0.3842  0.2029
    1MOL   H218  218   0.214   1.423   2.021  0.8947 -0.2535  0.0426
    1MOL   H219  219   0.386   1.444   1.995  0.4772 -0.7872  0.2871
    1MOL   H220  220   0.220   1.333   1.767  0.2373 -2.2159  0.2131
    1MOL   H221  221   0.537   1.199   1.709  0.3082  2.5089  1.4702
    1MOL   H222  222   0.370   1.178   1.656  0.0023 -0.5096  0.0202
    1MOL   H223  223   0.561   1.395   1.553 -0.3100  0.5756  0.0219
    1MOL   H224  224   0.506   1.256   1.465 -1.5160  1.1826 -0.9566
    1MOL   H225  225   0.345   1.506   1.544  1.0888 -0.2811 -0.1008
    1MOL   H226  226   0.266   1.349   1.520  0.1491 -0.6887 -0.2618
    1MOL   H227  227   0.448   1.469   1.304 -2.0655  2.0532 -1.8210
    1MOL   H228  228   0.277   1.479   1.302 -0.4778 -0.1446 -0.2408
    1MOL   H229  229   0.353   1.316   1.310  0.7669 -0.8490  3.6592
    1MOL   C230  230   0.284   1.189   1.930  0.7902  0.7093 -0.2530
    1MOL   C231  231   0.144   1.125   1.918  0.2489 -0.0444  0.3866
    1MOL   O232  232   0.096   1.096   1.789 -0.6593  0.4255 -0.0183
    1MOL   C233  233   0.156   0.995   1.723 -0.4441  0.2724 -0.4609
    1MOL   C234  234   0.090   0.979   1.593  0.6240  0.1044  0.3994
    1MOL   C235  235   0.155   0.858   1.515 -0.3822 -1.1029 -0.2395
    1MOL   C236  236   0.095   0.850   1.375 -0.0405  0.0466  0.2628
    1MOL   H237  237   0.319   1.213   2.030  1.3890  1.9048 -0.7392
    1MOL   H238  238   0.363   1.123   1.895  1.1398  1.7079 -1.3909
    1MOL   H239  239   0.078   1.205   1.952  0.7078  1.3522 -1.8886
    1MOL   H240  240   0.261   1.012   1.702 -0.9436  1.3861 -2.1827
    1MOL   H241  241   0.161   0.899   1.775  0.0872  0.6738  0.2339
    1MOL   H242  242   7.785   0.966   1.609  0.6362 -1.5583 -0.7423
    1MOL   H243  243   0.101   1.069   1.531  1.8757 -1.1815 -1.2751
    1MOL   H244  244   0.129   0.768   1.572  1.1413 -0.6398  1.2337
    1MOL   H245  245   0.263   0.869   1.521 -0.7901  2.7122  1.8458
    1MOL   H246  246   7.796   0.809   1.381  0.8457 -2.3411 -0.2133
    1MOL   H247  247   0.156   0.791   1.306  0.3619 -0.7128  1.2480
    1MOL   H248  248   0.083   0.951   1.337 -1.9561 -0.1428  0.3353
    1MOL   C249  249   0.109   1.024   2.026  0.1231  0.4880  0.0122
    1MOL   C250  250   7.760   1.000   2.059  0.1598  0.2682  0.0975
    1MOL   O251  251   7.730   1.062   2.188 -0.4264  0.2150  0.7022
    1MOL   C252  252   7.633   1.162   2.170 -0.1662 -0.6084 -0.5808
    1MOL   C253  253   7.608   1.238   2.294 -0.6261 -0.2844 -0.2635
    1MOL   C254  254   7.523   1.364   2.297  0.3347 -0.1765  0.5326
    1MOL   C255  255   7.534   1.445   2.424  0.0863  0.0143  0.4286
    1MOL   H256  256   0.160   1.044   2.120 -0.0909 -2.1776  0.7482
    1MOL   H257  257   0.157   0.931   1.993 -1.6776 -1.1696  1.9301
    1MOL   H258  258   7.698   1.045   1.981 -0.1082 -4.6308 -2.7346
    1MOL   H259  259   7.541   1.126   2.122 -0.5602 -0.4147  0.0231
    1MOL   H260  260   7.666   1.236   2.097  1.1513 -1.2529 -0.6374
    1MOL   H261  261   7.575   1.166   2.370  0.5664 -0.3631  0.2004
    1MOL   H262  262   7.710   1.263   2.325 -1.2934  0.3806  1.4734
    1MOL   H263  263   7.547   1.424   2.209  1.1418 -0.8892  0.2607
    1MOL   H264  264   7.422   1.328   2.277  1.0685 -0.4982 -3.0649
    1MOL   H265  265   7.525   1.387   2.516  3.1898  2.4104  2.3568
    1MOL   H266  266   7.467   1.530   2.425 -0.7082 -0.5313 -1.9635
    1MOL   H267  267   7.636   1.485   2.427 -0.8651  2.4472  1.2970
    1MOL   C268  268   7.723   0.847   2.066  0.4389  0.6072  0.5069
    1MOL   C269  269   7.578   0.823   2.018  0.5596 -0.0932  0.2288
    1MOL   O270  270   7.584   0.841   1.873 -0.0844 -0.6312 -0.1451
    1MOL   C271  271   7.462   0.885   1.815 -0.2163  0.1940  0.7113
    1MOL   C272  272   7.487   0.927   1.666 -0.1014 -0.3741 -0.0579
    1MOL   C273  273   7.372   1.007   1.600 -0.0980 -0.5401 -0.1725
    1MOL   C274  274   7.389   1.018   1.450  0.5371  0.5428  0.0662
    1MOL   H275  275   7.789   0.785   2.005 -0.8879 -1.4928  1.1465
    1MOL   H276  276   7.731   0.797   2.163 -2.5428 -1.0015 -0.0167
    1MOL   H277  277   7.520   0.897   2.072 -0.7410 -1.1564  0.3377
    1MOL   H278  278   7.379   0.815   1.826  1.1406 -1.7896 -1.1654
    1MOL   H279  279   7.428   0.972   1.872  0.5574  0.4064  0.8527
    1MOL   H280  280   7.571   0.996   1.655 -2.4019  2.4554 -0.6286
    1MOL   H281  281   7.519   0.839   1.610  1.6661 -0.3388  0.8739
    1MOL   H282  282   7.362   1.100   1.655 -0.6433 -1.0040  0.5213
    1MOL   H283  283   7.278   0.954   1.618 -0.6627  0.4490 -0.1466
    1MOL   H284  284   7.308   1.074   1.405 -0.1865  0.7830  1.6181
    1MOL   H285  285   7.394   0.927   1.390  1.2697  1.3514 -1.1096
    1MOL   H286  286   7.479   1.078   1.443  0.5168  0.5564 -0.0795
    1MOL   C287  287   7.526   0.687   2.054  0.4668 -0.0896 -0.0062
    1MOL   C288  288   7.455   0.668   2.193 -0.5084  0.1843 -0.8284
    1MOL   O289  289   7.561   0.623   2.281 -0.7952 -0.2972  0.1658
    1MOL   C290  290   7.566   0.659   2.422 -0.1200  0.3476  0.9899
    1MOL   C291  291   7.606   0.803   2.450  0.5713 -0.9637  0.6076
    1MOL   C292  292   7.578   0.849   2.603  0.1585 -0.2719  0.5955
    1MOL   C293  293   7.611   0.999   2.626 -0.1314  1.3152  0.0076
    1MOL   H294  294   7.588   0.600   2.032  0.1419 -0.0452 -1.1092
    1MOL   H295  295   7.454   0.666   1.975 -2.3102  4.2811  1.1674
    1MOL   H296  296   7.401   0.753   2.233 -4.9171 -2.2005 -1.3932
    1MOL   H297  297   7.471   0.633   2.468 -1.0791 -0.0153 -1.1457
    1MOL   H298  298   7.642   0.599   2.473  0.2329  0.8190  1.0182
    1MOL   H299  299   7.551   0.866   2.381 -0.0474 -1.6021  0.5240
    1MOL   H300  300   7.714   0.809   2.433  0.3531  0.7604 -0.3049
    1MOL   H301  301   7.627   0.783   2.675  0.7474  0.2719  0.6929
    1MOL   H302  302   7.471   0.848   2.625 -0.1356  0.0899 -0.8008
    1MOL   H303  303   7.528   1.063   2.596 -0.9793 -0.1019 -0.7470
    1MOL   H304  304   7.631   1.001   2.733 -0.3607  0.8162  0.0623
    1MOL   H305  305   7.705   1.026   2.579 -0.3245  0.0012 -1.1482
    1MOL   C306  306   7.349   0.550   2.182 -0.4358  0.1877 -0.4732
    1MOL   C307  307   7.213   0.583   2.117  0.2703 -0.4002  0.4941
    1MOL   O308  308   7.172   0.693   2.196 -0.1423  0.1237 -0.1322
    1MOL   C309  309   7.140   0.813   2.129 -0.2127  0.2115  0.2791
    1MOL   C310  310   7.097   0.919   2.235  0.5036 -0.3683 -0.1401
    1MOL   C311  311   7.224   0.978   2.297  0.1276  0.1720  0.2064
    1MOL   C312  312   7.218   1.125   2.340 -0.0961 -0.2392  0.2285
    1MOL   H313  313   7.396   0.470   2.125 -0.4813 -0.4915  0.4321
    1MOL   H314  314   7.330   0.509   2.281  1.3144 -0.1502 -0.2750
    1MOL   H315  315   7.227   0.599   2.010  0.3649  0.2350  0.5996
    1MOL   H316  316   7.049   0.789   2.074 -1.1952  0.2925  1.8349
    1MOL   H317  317   7.223   0.850   2.069  0.0282  1.5432  1.4129
    1MOL   H318  318   7.034   0.873   2.311  0.2999 -2.6860 -1.6626
    1MOL   H319  319   7.044   1.004   2.192  0.6542 -0.0780  0.2469
    1MOL   H320  320   7.248   0.913   2.381  0.2921  0.8652  0.6938
    1MOL   H321  321   7.311   0.974   2.232  0.4374  3.6799  0.2956
    1MOL   H322  322   7.315   1.154   2.381 -0.4010  0.7129  0.2956
    1MOL   H323  323   7.143   1.140   2.417 -0.2994 -0.2172  0.0253
    1MOL   H324  324   7.203   1.185   2.250  3.9335 -1.5937 -1.4869
    1MOL   C325  325   7.114   0.458   2.110 -0.0148  0.2885  0.3608
    1MOL   C326  326   6.990   0.478   2.010  0.5138  0.3812 -0.3782
    1MOL   O327  327   6.945   0.350   1.974  0.3027  0.0284  0.5057
    1MOL   C328  328   6.915   0.327   1.844 -0.6613  0.0223 -0.7692
    1MOL   C329  329   6.857   0.188   1.827 -0.0359  0.1857  0.1611
    1MOL   C330  330   6.723   0.169   1.905 -0.0730  0.2561 -0.4959
    1MOL   C331  331   6.642   0.045   1.867  0.0234  0.6153  0.6212
    1MOL   H332  332   7.081   0.444   2.213 -1.9759  2.3747  0.0508
    1MOL   H333  333   7.176   0.380   2.066 -1.4701 -1.4966  1.4176
    1MOL   H334  334   7.030   0.543   1.932  0.6984  0.4877 -0.1955
    1MOL   H335  335   7.014   0.318   1.797  0.6056  1.6694  1.4813
    1MOL   H336  336   6.854   0.401   1.791 -0.7745  0.5197  0.0413
    1MOL   H337  337   6.839   0.183   1.719 -0.7902 -1.1763  0.3313
    1MOL   H338  338   6.932   0.115   1.858 -1.4850 -0.6349  1.8624
    1MOL   H339  339   6.661   0.253   1.873 -0.9538 -0.1096  0.2059
    1MOL   H340  340   6.719   0.181   2.013 -0.3336 -2.7403 -0.1185
    1MOL   H341  341   6.629   0.042   1.759  2.1151  0.4157  0.3663
    1MOL   H342  342   6.537   0.052   1.898  0.0849  0.6211  0.8349
    1MOL   H343  343   6.679   7.753   1.909 -4.2592 -1.5110 -0.0365
    1MOL   C344  344   6.874   0.542   2.088 -0.0947  0.5785 -0.0209
    1MOL   C345  345   6.755   0.597   1.995 -0.2578 -0.2518  0.2347
    1MOL   O346  346   6.817   0.693   1.908 -0.5150  0.1358  0.4518
    1MOL   C347  347   6.743   0.702   1.782 -0.2080  0.1593 -0.1551
    1MOL   C348  348   6.825   0.810   1.693  0.0829 -0.0887 -0.1746
    1MOL   C349  349   6.801   0.954   1.748 -0.8758 -0.1959  0.0276
    1MOL   C350  350   6.897   1.055   1.671  0.6730  0.2012  0.3543
    1MOL   H351  351   6.840   0.461   2.153 -0.3011 -0.2385 -1.1383
    1MOL   H352  352   6.899   0.627   2.152 -2.5932  1.5869 -0.3356
    1MOL   H353  353   6.732   0.514   1.928  1.1922 -0.1357 -0.4367
    1MOL   H354  354   6.640   0.736   1.789 -0.3561 -0.1518 -0.8175
    1MOL   H355  355   6.757   0.615   1.719 -0.4177 -2.1372  2.8639
    1MOL   H356  356   6.800   0.795   1.588  1.1351  3.2443 -0.9428
    1MOL   H357  357   6.925   0.768   1.692 -0.4506 -1.3582 -1.6606
    1MOL   H358  358   6.695   0.976   1.750 -1.1221 -1.2821 -0.5743
    1MOL   H359  359   6.833   0.954   1.852  2.0438 -1.2844 -0.8144
    1MOL   H360  360   7.002   1.056   1.699  0.7240  1.3613  0.1300
    1MOL   H361  361   6.862   1.155   1.697 -0.4661 -1.0318  3.8712
    1MOL   H362  362   6.883   1.038   1.564  4.4690  0.2604 -0.2014
    1MOL   C363  363   6.635   0.656   2.067  0.1549 -0.5375  0.0021
    1MOL   C364  364   6.551   0.530   2.103 -0.0920  0.0093  0.1469
    1MOL   O365  365   6.430   0.568   2.164  0.2653  0.5417  0.5388
    1MOL   C366  366   6.352   0.460   2.215  0.2727  0.1029 -0.0105
    1MOL   C367  367   6.223   0.518   2.268  0.7405 -0.1087  0.0673
    1MOL   C368  368   6.120   0.570   2.163  0.0306 -0.1821 -0.1884
    1MOL   C369  369   5.978   0.605   2.221 -0.3042  0.0139 -0.3605
    1MOL   H370  370   6.570   0.722   2.009  0.9243  0.1789 -0.0466
    1MOL   H371  371   6.670   0.704   2.159  2.2173  0.6089 -1.3619
    1MOL   H372  372   6.606   0.466   2.172 -2.4685 -0.2842  1.8503
    1MOL   H373  373   6.405   0.419   2.301 -0.7745 -1.8245 -0.2433
    1MOL   H374  374   6.342   0.403   2.123 -4.1267 -0.4474  0.6591
    1MOL   H375  375   6.247   0.594   2.341 -2.6133  1.1270 -0.0015
    1MOL   H376  376   6.185   0.427   2.316  1.6248 -0.5179  0.0084
    1MOL   H377  377   6.115   0.500   2.080 -0.3786 -2.0685  1.3921
    1MOL   H378  378   6.172   0.655   2.117  0.9340  0.6468  2.2673
    1MOL   H379  379   5.992   0.666   2.311  4.1674 -1.6901  0.2529
    1MOL   H380  380   5.914   0.667   2.158 -0.9976 -0.1900  0.1372
    1MOL   H381  381   5.933   0.514   2.259 -0.6073 -0.2962 -1.4458
    1MOL   H382  382   6.518   0.485   2.009 -2.5073 -0.4239  1.1532
    2MOL     C1  383   0.946   7.335   0.380  0.0136 -0.5401  0.3305
    2MOL     C2  384   0.834   7.407   0.302  0.2216  0.4236  0.1888
    2MOL     O3  385   0.769   7.499   0.388 -0.2500  0.2703  0.1686
    2MOL     C4  386   0.639   7.546   0.346 -1.1143 -0.4268 -0.3282
    2MOL     C5  387   0.556   7.626   0.451  0.6286 -0.0782 -0.5319
    2MOL     C6  388   0.401   7.637   0.411  0.1519  1.0466  0.7354
    2MOL     C7  389   0.302   7.704   0.508 -0.7570 -0.3367  0.0351
    2MOL     H8  390   1.007   7.396   0.446 -0.5305 -0.4467  0.7475
    2MOL     H9  391   0.906   7.258   0.446 -2.3740  0.3774  0.0125
    2MOL    H10  392   0.767   7.327   0.272 -0.0429  0.7980 -0.2416
    2MOL    H11  393   0.664   7.611   0.262  2.7712  0.8290  1.6804
    2MOL    H12  394   0.592   7.459   0.300  2.2586 -0.8938 -3.1207
    2MOL    H13  395   0.598   7.725   0.466  0.2292  0.5607 -3.3669
    2MOL    H14  396   0.561   7.581   0.551 -2.1943 -2.0306 -1.2227
    2MOL    H15  397   0.361   7.539   0.387  2.7602  0.4378 -1.3419
    2MOL    H16  398   0.389   7.700   0.322 -2.7312 -1.2000 -0.5567
    2MOL    H17  399   0.209   7.647   0.503 -1.6674  0.8527  2.3079
    2MOL    H18  400   0.283   0.007   0.485  0.4521 -0.0654  0.2536
    2MOL    H19  401   0.335   7.711   0.612 -1.6792  1.4163  0.2366
    2MOL    H20  402   1.010   7.279   0.311 -1.8754  0.2764 -2.1692
    2MOL    C21  403   0.885   7.482   0.175  1.0915 -0.0853  0.0220
    2MOL    C22  404   0.888   7.390   0.051 -0.5536  0.3202 -0.2766
    2MOL    O23  405   0.762   7.319   0.029 -0.3009  0.0116 -0.3796
    2MOL    C24  406   0.647   7.401   0.005 -0.3872  0.1306 -0.7153
    2MOL    C25  407   0.529   7.300   0.015 -0.6542 -0.1724  0.4617
    2MOL    C26  408   0.394   7.358   7.797  0.1678 -0.3227 -0.4708
    2MOL    C27  409   0.278   7.261   0.019 -0.3114  0.0500 -0.3034
    2MOL    H28  410   0.988   7.512   0.196  0.6523  0.5825  1.2784
    2MOL    H29  411   0.845   7.582   0.161  0.9976 -0.0970  0.2088
    2MOL    H30  412   0.964   7.321   0.085 -0.9669 -0.5755 -1.1335
    2MOL    H31  413   0.654   7.452   7.710  0.3928  1.1610 -0.1247
    2MOL    H32  414   0.633   7.484   0.074  0.0536 -2.7985  3.0658
    2MOL    H33  415   0.544   7.219   7.745  2.6699 -0.3799  1.3022
    2MOL    H34  416   0.543   7.245   0.108 -1.6202  0.5967  1.0672
    2MOL    H35  417   0.383   7.449   0.055 -2.3172 -0.3598 -0.8374
    2MOL    H36  418   0.388   7.387   7.693  0.6349  0.5302 -0.2618
    2MOL    H37  419   0.284   7.219   0.120 -0.5728  0.3164 -0.1776
    2MOL    H38  420   0.185   7.318   0.014  0.4311  1.3085  0.1041
    2MOL    H39  421   0.282   7.181   7.747 -0.0684 -0.6639  0.4639
    2MOL    C40  422   0.931   7.457   7.713 -0.0162 -0.7125  0.2269
    2MOL    C41  423   0.956   7.347   7.600  0.4686 -0.0663 -0.4406
    2MOL    O42  424   1.076   7.277   7.636  0.1641 -0.2074  0.7239
    2MOL    C43  425   1.132   7.184   7.545 -0.2475 -0.0426  0.4163
    2MOL    C44  426   1.249   7.113   7.612 -0.2010  0.1047  0.0457
    2MOL    C45  427   1.374   7.198   7.606 -0.1412  0.3700  0.4802
    2MOL    C46  428   1.507   7.120   7.632  0.5165  0.2959  0.0097
    2MOL    H47  429   1.022   7.515   7.725 -0.1876  0.4298 -3.5625
    2MOL    H48  430   0.861   7.538   7.696  2.4018  2.0165  2.6143
    2MOL    H49  431   0.876   7.273   7.601  0.9420 -0.6021  1.8930
    2MOL    H50  432   1.160   7.228   7.450 -0.5134 -0.0378  0.3405
    2MOL    H51  433   1.053   7.114   7.518 -0.3503  0.9966 -2.1117
    2MOL    H52  434   1.266   7.028   7.546  0.2028  1.0425 -1.0655
    2MOL    H53  435   1.228   7.083   7.715  2.3546 -0.5918  0.4105
    2MOL    H54  436   1.362   7.292   7.660 -0.5184  0.7796 -0.3140
    2MOL    H55  437   1.379   7.226   7.501 -0.4365 -0.4823  0.2344
    2MOL    H56  438   1.502   7.095   7.738  1.0282 -0.5947 -0.1719
    2MOL    H57  439   1.507   7.031   7.569 -1.2277  0.0405  0.3591
    2MOL    H58  440   1.593   7.182   7.605 -1.2735  2.2660 -1.3873
    2MOL    C59  441   0.961   7.408   7.454  0.1544 -0.4323  0.3537
    2MOL    C60  442   0.836   7.487   7.398  0.0159  0.2849  0.4698
    2MOL    O61  443   0.865   7.550   7.265 -0.3126 -0.1649  0.4146
    2MOL    C62  444   0.920   7.681   7.264  0.3816 -0.4368 -0.4579
    2MOL    C63  445   0.966   7.720   7.126  0.3451  0.2479 -0.3871
    2MOL    C64  446   0.865   7.713   7.011  0.1094 -0.3036  0.4613
    2MOL    C65  447   0.919   7.772   6.884 -0.0846  0.6891 -0.4819
    2MOL    H66  448   1.048   7.472   7.438 -1.7004  1.8644 -0.8728
    2MOL    H67  449   0.976   7.329   7.380 -0.7722  0.2831 -0.6164
    2MOL    H68  450   0.803   7.563   7.469 -0.3436 -2.0565  2.9118
    2MOL    H69  451   1.001   7.679   7.336 -1.1984 -1.5791  1.3481
    2MOL    H70  452   0.845   7.749   7.305  1.1993 -2.4658  4.8103
    2MOL    H71  453   1.018   0.014   7.117  0.2125  0.2252 -1.4333
    2MOL    H72  454   1.048   7.652   7.102  0.0472 -0.2271 -0.0796
    2MOL    H73  455   0.839   7.609   6.992  0.2412 -0.0294 -1.3033
    2MOL    H74  456   0.776   7.771   7.037  0.0312  0.5468 -1.6196
    2MOL    H75  457   0.977   0.061   6.896 -0.4447  0.7180  1.2357
    2MOL    H76  458   0.987   7.706   6.830 -0.9038 -0.9056  0.3763
    2MOL    H77  459   0.841   7.779   6.808 -0.5097 -2.9541 -0.5120
    2MOL    C78  460   0.717   7.390   7.359 -0.1857  0.3674 -0.2062
    2MOL    C79  461   0.585   7.460   7.347 -0.3505  0.9371 -0.4315
    2MOL    O80  462   0.580   7.541   7.464  0.4688  0.2797  0.1452
    2MOL    C81  463   0.508   7.665   7.451  0.9295  0.2654  0.3615
    2MOL    C82  464   0.455   7.695   7.595  0.2714  0.0414 -0.2815
    2MOL    C83  465   0.566   7.746   7.687 -0.2548  0.1518  0.1914
    2MOL    C84  466   0.506   7.786   0.025  1.1346 -0.1507 -0.2484
    2MOL    H85  467   0.721   7.314   7.438  1.5666  1.0978  0.4272
    2MOL    H86  468   0.734   7.337   7.264 -1.6515  2.4739 -1.6837
    2MOL    H87  469   0.588   7.523   7.258  2.4953 -0.5603 -1.4462
    2MOL    H88  470   0.421   7.657   7.386  1.7584 -1.4691 -0.5818
    2MOL    H89  471   0.573   7.743   7.413  1.3191 -0.2431 -0.0245
    2MOL    H90  472   0.375   7.769   7.602  3.0605  3.0886  0.7249
    2MOL    H91  473   0.418   7.601   7.636 -0.1337 -0.1076 -0.9851
    2MOL    H92  474   0.612   0.035   7.649  1.0076 -0.2442  0.7406
    2MOL    H93  475   0.652   7.679   7.693  0.2968  0.8700  0.3612
    2MOL    H94  476   0.441   7.702   0.051  0.0038  0.8131  0.0824
    2MOL    H95  477   0.576   7.790   0.109 -0.8044 -2.4769  1.5667
    2MOL    H96  478   0.444   0.074   0.017  0.4055 -0.7970 -2.2666
    2MOL    C97  479   0.473   7.355   7.337  0.1459 -0.3426  0.6348
    2MOL    C98  480   0.335   7.415   7.297 -0.4157 -1.3783  0.0227
    2MOL    O99  481   0.348   7.477   7.170 -0.3011 -0.6029 -0.3316
    2MOL   C100  482   0.262   7.587   7.147  0.3747  0.1468  0.3299
    2MOL   C101  483   0.319   7.675   7.037 -0.6208  0.3907  0.2390
    2MOL   C102  484   0.467   7.719   7.049 -0.0230 -0.2323  0.9168
    2MOL   C103  485   0.467   0.056   6.977  0.1029  0.0929 -0.0656
    2MOL   H104  486   0.469   7.302   7.432  0.2731 -1.6032 -0.0542
    2MOL   H105  487   0.506   7.283   7.263 -0.2109  1.1286 -0.9763
    2MOL   H106  488   0.299   7.489   7.368 -0.9826 -1.3393 -0.3012
    2MOL   H107  489   0.246   7.652   7.233 -0.6685  2.1468 -1.3137
    2MOL   H108  490   0.162   7.555   7.120  1.0330 -0.4000 -1.6081
    2MOL   H109  491   0.257   7.758   7.004  0.2723  0.5266 -1.1357
    2MOL   H110  492   0.324   7.619   6.944  0.6821  0.5318  0.2107
    2MOL   H111  493   0.529   7.644   7.000  1.1471  2.4655 -1.9144
    2MOL   H112  494   0.493   7.725   7.155 -0.0180 -1.4487  0.9923
    2MOL   H113  495   0.417   0.129   7.041 -1.0389 -1.1575  0.4899
    2MOL   H114  496   0.571   0.083   6.957  0.4198 -0.0922  1.2686
    2MOL   H115  497   0.418   0.047   6.880  0.0948  2.9135 -0.3603
    2MOL   C116  498   0.235   7.299   7.278  0.4360 -0.3784 -0.4033
    2MOL   C117  499   0.198   7.232   7.414 -0.0137  0.0739 -0.1391
    2MOL   O118  500   0.075   7.293   7.447 -0.1308 -0.2029 -0.3838
    2MOL   C119  501   0.051   7.322   7.582  0.5927  0.0175  0.2589
    2MOL   C120  502   7.702   7.342   7.612 -0.3124 -0.1470 -0.7684
    2MOL   C121  503   7.599   7.235   7.592 -0.1673  0.3168 -0.1480
    2MOL   C122  504   7.599   7.111   7.687 -0.2577  0.3151 -0.0474
    2MOL   H123  505   0.142   7.333   7.232 -0.2626 -1.7307 -0.0130
    2MOL   H124  506   0.274   7.218   7.216 -2.6302 -3.2715  1.2677
    2MOL   H125  507   0.263   7.278   7.488 -0.8854  0.1055  0.6251
    2MOL   H126  508   0.119   7.399   7.618  0.1185  1.0669 -1.0464
    2MOL   H127  509   0.083   7.232   7.635 -0.6098 -0.0167  0.9607
    2MOL   H128  510   7.661   7.431   7.565 -0.0031  0.9206  0.9330
    2MOL   H129  511   7.686   7.368   7.717  0.4337  1.4214 -1.0317
    2MOL   H130  512   7.504   7.286   7.599  0.8196  2.2283 -0.3276
    2MOL   H131  513   7.616   7.206   7.488  2.2541 -1.5476  0.6996
    2MOL   H132  514   7.519   7.037   7.683 -2.4618  2.5184  1.5580
    2MOL   H133  515   7.616   7.139   7.791 -1.1895 -1.2172  0.5286
    2MOL   H134  516   7.686   7.052   7.659 -0.1797 -0.3146  1.4821
    2MOL   C135  517   0.181   7.077   7.423  0.3747 -0.7052  0.3033
    2MOL   C136  518   0.303   6.989   7.414 -0.0984  0.0902  0.5471
    2MOL   O137  519   0.367   6.998   7.291 -0.1055  0.5132  0.3104
    2MOL   C138  520   0.291   6.948   7.180  0.0419  0.0910  0.1362
    2MOL   C139  521   0.386   6.938   7.063 -0.1875 -0.3337 -0.2710
    2MOL   C140  522   0.441   7.074   7.012 -0.1594  0.7829 -0.9696
    2MOL   C141  523   0.495   7.071   6.874  0.0049  0.3519  0.2559
    2MOL   H142  524   0.110   7.045   7.347  0.1408  0.3104  0.0824
    2MOL   H143  525   0.115   7.054   7.507 -1.8832  3.1650 -0.2693
    2MOL   H144  526   0.263   6.888   7.414  0.0665  0.0244  0.6528
    2MOL   H145  527   0.205   7.009   7.154  0.1533  0.5551  0.8323
    2MOL   H146  528   0.259   6.845   7.200  0.7978 -0.3457 -0.8580
    2MOL   H147  529   0.332   6.907   6.973 -0.6525  1.5045 -0.6372
    2MOL   H148  530   0.464   6.865   7.084 -1.0194 -0.7671  1.4104
    2MOL   H149  531   0.372   7.158   7.022 -1.4009 -0.2984 -0.3343
    2MOL   H150  532   0.520   7.114   7.076 -0.7670  0.2243  0.1404
    2MOL   H151  533   0.445   6.996   6.814 -0.4662  1.8392 -1.2461
    2MOL   H152  534   0.498   7.164   6.817 -0.0194  1.6396  2.2962
    2MOL   H153  535   0.598   7.036   6.888 -0.4239 -1.4021 -0.8753
    2MOL   C154  536   0.406   7.011   7.525  0.0394 -0.0165  0.2870
    2MOL   C155  537   0.514   6.909   7.512  0.5952 -0.1393 -0.3498
    2MOL   O156  538   0.462   6.778   7.533  0.4515 -0.0002 -0.0910
    2MOL   C157  539   0.479   6.689   7.425 -0.4544  0.2220  0.5796
    2MOL   C158  540   0.412   6.556   7.452  0.5697  0.5161  0.4755
    2MOL   C159  541   0.263   6.557   7.472 -0.2799  0.5927 -0.1015
    2MOL   C160  542   0.210   6.422   7.470 -0.3333  0.0611  0.1395
    2MOL   H161  543   0.361   7.008   7.625 -0.2194  0.2439  0.1781
    2MOL   H162  544   0.454   7.109   7.522  1.9056 -0.8955  0.8585
    2MOL   H163  545   0.542   6.911   7.406 -1.7911  0.0746 -1.0266
    2MOL   H164  546   0.444   6.724   7.327 -0.9780  1.3963  1.1853
    2MOL   H165  547   0.587   6.681   7.412 -0.6522 -0.4874 -0.8362
    2MOL   H166  548   0.461   6.514   7.540 -0.6713  0.6310  1.2308
    2MOL   H167  549   0.432   6.481   7.377 -0.4764  1.6533 -0.9563
    2MOL   H168  550   0.222   6.613   7.556 -2.9835  0.0284 -1.0001
    2MOL   H169  551   0.221   6.601   7.381 -0.8362  0.8774  0.2882
    2MOL   H170  552   0.231   6.372   7.564  0.2572  3.6631  2.0131
    2MOL   H171  553   0.102   6.422   7.464 -0.2572  2.3085 -2.2875
    2MOL   H172  554   0.241   6.355   7.390  3.3550  1.5045  0.2589
    2MOL   C173  555   0.634   6.930   7.605  0.0478  0.6776  0.3356
    2MOL   C174  556   0.760   6.849   7.576 -0.1222 -0.3246 -0.1671
    2MOL   O175  557   0.812   6.912   7.457  0.0253 -0.1055  0.6671
    2MOL   C176  558   0.915   6.832   7.393 -0.1954 -0.1606 -0.2632
    2MOL   C177  559   0.922   6.877   7.246  0.1443  0.0553  0.6010
    2MOL   C178  560   0.791   6.838   7.170 -0.0396  0.0672 -0.4269
    2MOL   C179  561   0.793   6.876   7.019 -0.1734  0.5204  0.1509
    2MOL   H180  562   0.601   6.920   7.709  0.3434 -0.4570  0.3317
    2MOL   H181  563   0.675   7.030   7.600 -0.0376  0.6992  0.0592
    2MOL   H182  564   0.739   6.745   7.551  1.7714 -0.6958 -0.2949
    2MOL   H183  565   0.897   6.725   7.402  0.8954 -0.4459 -1.3189
    2MOL   H184  566   1.006   6.866   7.444 -0.7016  1.1852 -0.2274
    2MOL   H185  567   1.005   6.818   7.206 -0.1290 -1.1411  1.7378
    2MOL   H186  568   0.945   6.983   7.234  1.2452 -0.2584 -0.1047
    2MOL   H187  569   0.779   6.732   7.193 -0.3384 -0.1260 -1.4324
    2MOL   H188  570   0.706   6.889   7.213  0.6974  0.8615  0.1051
    2MOL   H189  571   0.799   6.984   7.008  1.4054  0.4799  0.5018
    2MOL   H190  572   0.881   6.828   6.977  1.5912  1.7134  2.3832
    2MOL   H191  573   0.706   6.827   6.974  0.8773 -1.3567  0.1141
    2MOL   C192  574   0.873   6.852   7.684  0.6478 -0.1991 -0.7570
    2MOL   C193  575   0.830   6.783   0.011  0.6128  0.2828 -1.0321
    2MOL   O194  576   0.783   6.655   7.772  0.1694 -0.8893  0.3405
    2MOL   C195  577   0.730   6.575   0.073  0.4519  0.2403 -0.1492
    2MOL   C196  578   0.665   6.447   0.013  0.3931  0.5783 -0.5220
    2MOL   C197  579   0.771   6.360   7.747 -0.6938 -0.0351 -0.1391
    2MOL   C198  580   0.729   6.237   7.669  0.2627 -0.0381 -0.4221
    2MOL   H199  581   0.898   6.954   7.714  3.0881 -1.2659  0.9605
    2MOL   H200  582   0.964   6.801   7.651  1.3394  0.9739 -0.7192
    2MOL   H201  583   0.743   6.834   0.052 -0.1130 -3.1687  1.9398
    2MOL   H202  584   0.647   6.626   0.122 -0.8004 -1.8388 -0.0528
    2MOL   H203  585   0.801   6.537   0.147  0.9371  1.3675 -0.0233
    2MOL   H204  586   0.620   6.400   0.100  0.5105 -0.8246 -1.2094
    2MOL   H205  587   0.585   6.470   7.744  1.5376  1.1424 -1.6857
    2MOL   H206  588   0.836   6.315   0.021 -1.9401  0.6669  1.3688
    2MOL   H207  589   0.826   6.424   7.677 -2.3225  1.5327 -0.0196
    2MOL   H208  590   0.816   6.195   7.619  0.6841 -1.0230  1.1064
    2MOL   H209  591   0.715   6.158   7.742  0.0800  0.6881  0.3484
    2MOL   H210  592   0.642   6.242   7.604 -0.7663 -0.2245  0.8969
    2MOL   C211  593   0.948   6.781   0.118 -0.2071 -0.4641 -0.5290
    2MOL   C212  594   0.959   6.908   0.196  0.4555 -0.0766 -0.3379
    2MOL   O213  595   0.843   6.925   0.279 -0.0561  0.5250  0.2416
    2MOL   C214  596   0.766   7.036   0.248  0.0593  0.8809 -0.8883
    2MOL   C215  597   0.625   7.020   0.313  0.2847 -0.3288 -0.7403
    2MOL   C216  598   0.547   6.889   0.274  0.1730 -0.0475 -0.1471
    2MOL   C217  599   0.405   6.871   0.332  0.3354 -1.0005 -0.0285
    2MOL   H218  600   1.043   6.765   0.068  1.6161 -0.5367  2.8691
    2MOL   H219  601   0.938   6.698   0.188 -1.1405  2.0139  2.3816
    2MOL   H220  602   0.966   6.993   0.129 -0.2693  1.0514  0.9973
    2MOL   H221  603   0.829   7.123   0.264  1.3188 -0.2267  0.2910
    2MOL   H222  604   0.745   7.048   0.142  2.9935  0.6984 -1.5191
    2MOL   H223  605   0.639   7.020   0.421  1.3197  1.9014 -0.8633
    2MOL   H224  606   0.566   7.105   0.280 -1.8622 -1.6069 -0.2647
    2MOL   H225  607   0.611   6.804   0.296 -0.6960 -0.8011 -0.5230
    2MOL   H226  608   0.538   6.896   0.166 -0.5198  5.0836  0.1015
    2MOL   H227  609   0.350   6.965   0.338 -0.3854 -1.4045 -0.2243
    2MOL   H228  610   0.389   6.824   0.429 -0.3733  0.3986  0.5388
    2MOL   H229  611   0.354   6.803   0.264 -1.9646 -1.4251  2.0733
    2MOL   C230  612   1.087   6.914   0.282 -0.2824  0.2410 -0.3334
    2MOL   C231  613   1.216   6.908   0.193 -0.2130  0.3343 -0.1485
    2MOL   O232  614   1.313   7.007   0.234 -0.5340  0.0974 -0.1124
    2MOL   C233  615   1.284   7.139   0.202  0.1624  0.5905  0.2936
    2MOL   C234  616   1.323   7.225   0.319  0.2255  0.9154 -0.6702
    2MOL   C235  617   1.326   7.379   0.285 -0.5089  0.7682 -0.3456
    2MOL   C236  618   1.452   7.419   0.197  0.2356  0.2302  0.3382
    2MOL   H237  619   1.091   6.834   0.357 -1.3714 -1.5142 -2.1023
    2MOL   H238  620   1.082   7.009   0.335 -0.9120 -0.1808  0.3916
    2MOL   H239  621   1.196   6.920   0.087  0.8770  1.2609 -0.2563
    2MOL   H240  622   1.345   7.160   0.114  1.2613  0.3120  0.9759
    2MOL   H241  623   1.181   7.162   0.175  1.3527  2.5993 -2.8334
    2MOL   H242  624   1.247   7.212   0.396 -1.4363  0.1886 -2.3674
    2MOL   H243  625   1.422   7.186   0.345  0.3790  0.6527 -1.6231
    2MOL   H244  626   1.349   7.434   0.376  0.0584  1.6281 -1.0076
    2MOL   H245  627   1.232   7.405   0.236 -1.1895 -0.2958  0.3747
    2MOL   H246  628   1.477   7.346   0.120 -1.8121  0.2781 -0.4216
    2MOL   H247  629   1.536   7.425   0.266  0.9998  1.5051 -0.6766
    2MOL   H248  630   1.437   7.518   0.154  2.9726  1.2031  1.5239
    2MOL   C249  631   1.275   6.765   0.221 -0.3224  0.1178  0.4668
    2MOL   C250  632   1.386   6.722   0.127 -1.0590  0.3274 -0.6008
    2MOL   O251  633   1.337   6.661   0.009  0.6792  0.2606  0.4297
    2MOL   C252  634   1.337   6.744   7.697  0.3361  0.6771  0.1492
    2MOL   C253  635   1.305   6.656   7.583 -0.6925 -0.1756  0.3013
    2MOL   C254  636   1.289   6.737   7.453  0.1263  0.0504 -0.4990
    2MOL   C255  637   1.247   6.640   7.339  0.1910  0.2084 -0.0697
    2MOL   H256  638   1.196   6.690   0.211 -0.5064  0.2644  0.8231
    2MOL   H257  639   1.298   6.758   0.327  0.0229 -2.7819  0.2440
    2MOL   H258  640   1.433   6.819   0.109 -1.1182  0.4335 -0.2084
    2MOL   H259  641   1.434   6.793   7.684 -0.4089  1.9964 -0.5063
    2MOL   H260  642   1.257   6.814   7.722 -0.3983 -0.9465  2.5179
    2MOL   H261  643   1.380   6.577   7.576  1.5704  2.0626 -1.6952
    2MOL   H262  644   1.214   6.603   7.609  0.1572 -0.9301  1.7992
    2MOL   H263  645   1.212   6.811   7.475 -2.2154 -2.4537 -0.0235
    2MOL   H264  646   1.373   6.801   7.425 -0.3308  2.0831  2.5603
    2MOL   H265  647   1.324   6.564   7.324 -0.2457 -0.4021  0.7571
    2MOL   H266  648   1.239   6.689   7.242  1.9209  0.4850 -0.0795
    2MOL   H267  649   1.148   6.607   7.371  0.2827  1.3991  1.5124
    2MOL   C268  650   1.497   6.638   0.204  0.5049 -0.8114 -0.2625
    2MOL   C269  651   1.631   6.612   0.120 -0.5697  0.1477  0.1649
    2MOL   O270  652   1.708   6.727   0.105  0.0203  0.6136  0.3701
    2MOL   C271  653   1.792   6.726   7.795  0.3806  0.8314 -0.1490
    2MOL   C272  654   1.886   6.851   7.801  0.0137 -0.6865 -0.1852
    2MOL   C273  655   1.797   6.977   0.012 -0.4869 -0.4860 -0.0843
    2MOL   C274  656   1.887   7.096   0.031 -0.7126  0.4570  1.3710
    2MOL   H275  657   1.521   6.707   0.285  1.0936 -0.9025 -0.3558
    2MOL   H276  658   1.454   6.543   0.234  1.9609 -1.3130  0.3090
    2MOL   H277  659   1.588   6.580   0.026 -1.6726 -1.8224  1.3115
    2MOL   H278  660   1.853   6.636   7.792 -0.4172  0.1559  2.7372
    2MOL   H279  661   1.733   6.724   7.703  0.9236 -0.6877 -0.4720
    2MOL   H280  662   1.952   6.847   0.086 -0.0111  0.0388 -0.1287
    2MOL   H281  663   1.945   6.850   7.709 -2.0538 -1.3816 -1.5258
    2MOL   H282  664   1.718   6.959   0.086  0.2587 -3.9915 -0.0390
    2MOL   H283  665   1.735   7.000   7.727 -0.5674 -1.0291 -0.1710
    2MOL   H284  666   1.960   7.102   7.752 -0.5916 -0.1519  1.4345
    2MOL   H285  667   1.925   7.086   0.132  0.1631  0.0934  1.0077
    2MOL   H286  668   1.820   7.182   0.025 -0.8770  0.4572  3.0484
    2MOL   C287  669   1.713   6.499   0.190  0.4925  0.2898  0.2445
    2MOL   C288  670   1.671   6.359   0.146  0.2448 -0.8759 -0.1108
    2MOL   O289  671   1.724   6.254   0.230  0.0758  0.1635  0.3655
    2MOL   C290  672   1.640   6.187   0.325  0.6756  0.4233  0.0860
    2MOL   C291  673   1.708   6.068   0.389 -0.6356 -0.1564 -0.1223
    2MOL   C292  674   1.834   6.116   0.457  0.1766 -0.3534  0.2727
    2MOL   C293  675   1.918   6.000   0.515 -0.6365  0.0643  0.2058
    2MOL   H294  676   1.708   6.519   0.297  0.5713  2.0382 -0.0715
    2MOL   H295  677   1.820   6.513   0.173  0.4420 -0.1264 -0.4293
    2MOL   H296  678   1.563   6.354   0.144  0.0513 -0.1563  3.9794
    2MOL   H297  679   1.601   6.254   0.401  1.9658  0.2466  0.9136
    2MOL   H298  680   1.558   6.148   0.264 -0.7151  2.8032  0.3794
    2MOL   H299  681   1.734   6.000   0.308  0.7598 -0.8260  0.8588
    2MOL   H300  682   1.635   6.017   0.453  1.8278 -2.3052  1.0853
    2MOL   H301  683   1.797   6.172   0.543 -3.5672 -1.0432 -0.8019
    2MOL   H302  684   1.891   6.184   0.395 -1.6415  0.7987 -0.1728
    2MOL   H303  685   1.999   6.037   0.578 -1.0414  1.6232 -0.1636
    2MOL   H304  686   1.852   5.949   0.585 -1.2821 -1.6820 -1.6313
    2MOL   H305  687   1.943   5.931   0.434 -2.9087 -1.8639  1.0718
    2MOL   C306  688   1.730   6.334   0.003 -0.0346 -0.1634 -0.6458
    2MOL   C307  689   1.682   6.200   7.732  0.4699 -0.0913  0.0867
    2MOL   O308  690   1.732   6.208   7.601 -0.2358 -0.5336 -0.2979
    2MOL   C309  691   1.840   6.117   7.574  0.1586 -0.1351  0.0949
    2MOL   C310  692   1.884   6.148   7.429 -0.0200  0.3076  0.5640
    2MOL   C311  693   1.955   6.286   7.409  0.3189  0.6321  0.4994
    2MOL   C312  694   1.997   6.296   7.258 -0.2825 -0.7268 -0.4267
    2MOL   H313  695   1.690   6.411   7.739  1.3994 -0.5476 -2.0282
    2MOL   H314  696   1.838   6.350   0.005 -0.2184  0.9238  1.4333
    2MOL   H315  697   1.722   6.111   7.781  2.0157 -0.0440 -1.0378
    2MOL   H316  698   1.814   6.013   7.596 -0.3754  0.0039  0.1290
    2MOL   H317  699   1.920   6.162   7.632  0.9883 -1.9422  0.3990
    2MOL   H318  700   1.794   6.147   7.367 -0.6175  2.4918  1.3684
    2MOL   H319  701   1.948   6.063   7.404 -0.0599 -0.0514  1.6600
    2MOL   H320  702   1.888   6.367   7.437 -1.4610 -0.5919 -0.0969
    2MOL   H321  703   2.043   6.297   7.472 -0.3149 -4.5617  2.5727
    2MOL   H322  704   2.044   6.393   7.247  1.5721 -1.3551  1.6662
    2MOL   H323  705   1.902   6.300   7.204 -0.9508 -0.8179  0.7067
    2MOL   H324  706   2.065   6.218   7.224 -0.0912 -0.1988 -1.2491
    2MOL   C325  707   1.530   6.196   7.722  0.3661  0.6277 -0.2259
    2MOL   C326  708   1.472   6.061   7.665  0.5362 -0.3269 -0.2153
    2MOL   O327  709   1.417   5.978   7.779 -1.0021 -0.2406  0.0490
    2MOL   C328  710   1.492   5.858   0.012 -0.3245 -0.1589 -0.3337
    2MOL   C329  711   1.432   5.728   7.748 -0.0230 -0.3013  0.4823
    2MOL   C330  712   1.536   5.606   7.771  0.5928 -0.6103  0.0513
    2MOL   C331  713   1.485   5.475   7.705 -0.1944 -0.3807  0.9638
    2MOL   H332  714   1.487   6.279   7.667 -2.7371 -1.0396 -0.4207
    2MOL   H333  715   1.492   6.199   0.022  1.3765 -0.0336  0.1838
    2MOL   H334  716   1.550   6.007   7.612 -0.9969 -0.2385 -2.6412
    2MOL   H335  717   1.490   5.851   0.120  1.4187 -1.7664 -0.3645
    2MOL   H336  718   1.598   5.872   7.792 -0.3059  1.2158  0.6085
    2MOL   H337  719   1.339   5.707   7.800  0.0331 -0.6860  0.4335
    2MOL   H338  720   1.408   5.735   7.642 -1.0853 -2.8248  0.5136
    2MOL   H339  721   1.538   5.594   0.077  1.6124 -1.7471 -0.0884
    2MOL   H340  722   1.633   5.646   7.742 -1.0705  2.8164 -1.0019
    2MOL   H341  723   1.385   5.462   7.744 -0.9093 -1.1187 -1.0168
    2MOL   H342  724   1.553   5.390   7.711 -0.7314 -0.7693  1.5081
    2MOL   H343  725   1.478   5.494   7.597  2.1760  0.0297  0.8373
    2MOL   C344  726   1.351   6.086   7.580 -0.5004  0.1933 -0.1599
    2MOL   C345  727   1.367   6.168   7.446 -0.0486  0.0717  0.3931
    2MOL   O346  728   1.241   6.170   7.389  0.3702  0.0042  0.0003
    2MOL   C347  729   1.157   6.289   7.428 -0.9910  0.1292  0.9023
    2MOL   C348  730   1.033   6.269   7.352 -0.8385  0.1014  0.1599
    2MOL   C349  731   0.952   6.401   7.342  0.1536 -0.0243  0.4448
    2MOL   C350  732   0.816   6.396   7.272 -0.8479 -0.1415  0.5653
    2MOL   H351  733   1.298   5.992   7.565 -2.9293  0.8005  3.9184
    2MOL   H352  734   1.275   6.138   7.638 -1.4490 -0.8825 -0.4312
    2MOL   H353  735   1.408   6.268   7.458 -0.7328  0.4742 -0.5669
    2MOL   H354  736   1.202   6.379   7.386 -0.7599 -1.0597 -1.4905
    2MOL   H355  737   1.141   6.302   7.535 -0.9860 -1.4385  1.1089
    2MOL   H356  738   0.976   6.190   7.400 -2.6158  1.1535 -0.1865
    2MOL   H357  739   1.055   6.252   7.247 -0.7208 -0.3471  0.2543
    2MOL   H358  740   0.946   6.439   7.443 -0.0558  0.0742  0.3952
    2MOL   H359  741   1.015   6.469   7.284  0.8380  1.2557  2.6464
    2MOL   H360  742   0.772   6.494   7.254  0.9717  0.1012 -3.0481
    2MOL   H361  743   0.743   6.331   7.321 -1.7173 -0.0306 -0.5759
    2MOL   H362  744   0.831   6.365   7.169 -3.2731  0.4704  0.0052
    2MOL   C363  745   1.460   6.095   7.345 -0.1022 -0.0938  0.0415
    2MOL   C364  746   1.467   6.160   7.204 -0.1302  0.0901 -0.2906
    2MOL   O365  747   1.564   6.082   7.133  0.1566 -0.3485 -0.0329
    2MOL   C366  748   1.549   6.108   6.996 -0.3923  0.4990 -0.1209
    2MOL   C367  749   1.662   6.054   6.909 -0.7217 -0.5014 -0.1666
    2MOL   C368  750   1.794   6.121   6.922  0.0373  0.2498 -0.0859
    2MOL   C369  751   1.791   6.264   6.859  0.3701  0.4962  0.1467
    2MOL   H370  752   1.433   5.990   7.335  0.1473 -0.2027  0.5087
    2MOL   H371  753   1.563   6.099   7.381  0.0918 -2.3939 -0.2008
    2MOL   H372  754   1.497   6.265   7.214 -1.4449  0.1886  3.0657
    2MOL   H373  755   1.546   6.216   6.979  0.6008  0.4632 -0.5656
    2MOL   H374  756   1.460   6.052   6.969  1.0814 -1.8899 -0.1696
    2MOL   H375  757   1.634   6.052   6.804 -1.8639  1.1953  0.0809
    2MOL   H376  758   1.687   5.953   6.941  1.9942 -0.1756 -1.1277
    2MOL   H377  759   1.866   6.048   6.885  0.5979 -0.5119  2.4062
    2MOL   H378  760   1.818   6.127   7.029  1.5468  1.5594 -0.4631
    2MOL   H379  761   1.887   6.305   6.828 -0.5946  1.0208 -2.3151
    2MOL   H380  762   1.738   6.244   6.765 -0.7235 -0.6489  0.9838
    2MOL   H381  763   1.735   6.338   6.915 -1.2670  1.1634 -2.2782
    2MOL   H382  764   1.368   6.165   7.159 -0.2230  1.0237  0.0032
    3MOL     C1  765   3.308   4.116   4.132 -0.1038  0.6246 -0.1700
    3MOL     C2  766   3.194   4.205   4.085  0.2535 -0.0068 -0.5757
    3MOL     O3  767   3.151   4.275   4.197  0.0175 -0.5302 -0.4723
    3MOL     C4  768   3.017   4.322   4.197 -0.3589 -0.1751 -0.1008
    3MOL     C5  769   2.998   4.407   4.323  0.2176  0.4786 -0.3859
    3MOL     C6  770   2.864   4.468   4.345 -0.3157  0.3899  0.2097
    3MOL     C7  771   2.867   4.520   4.485 -0.1551 -0.1248 -0.3589
    3MOL     H8  772   3.327   4.048   4.049  0.8977 -0.0522  0.6082
    3MOL     H9  773   3.400   4.172   4.144 -1.5297  2.9457  0.2614
    3MOL    H10  774   3.109   4.148   4.049  1.1093 -1.9867  0.4403
    3MOL    H11  775   2.986   4.374   4.107 -0.9812 -0.0449  0.1829
    3MOL    H12  776   2.952   4.235   4.194 -0.4638 -0.0736 -0.7119
    3MOL    H13  777   3.076   4.483   4.315  0.0768  0.5477 -1.0782
    3MOL    H14  778   3.029   4.340   4.403 -1.0567  1.1338  0.6767
    3MOL    H15  779   2.791   4.388   4.331  0.0670 -0.0712  0.8158
    3MOL    H16  780   2.851   4.549   4.274  1.6741  1.8207  1.4146
    3MOL    H17  781   2.931   4.467   4.556 -0.2682 -2.2044 -1.7698
    3MOL    H18  782   2.772   4.519   4.537 -0.9949 -1.7513 -1.8816
    3MOL    H19  783   2.893   4.626   4.481  1.0740 -0.3809  0.5506
    3MOL    H20  784   3.271   4.063   4.220 -2.0908  2.1322 -0.0568
    3MOL    C21  785   3.234   4.302   3.973 -0.1069 -0.2401 -0.4601
    3MOL    C22  786   3.238   4.234   3.829  0.2349  0.2070  0.2172
    3MOL    O23  787   3.308   4.104   3.826  0.1613  0.1122 -0.1037
    3MOL    C24  788   3.346   4.057   3.697  0.2969 -0.3033 -0.6351
    3MOL    C25  789   3.456   3.956   3.710 -0.0315 -0.8567 -0.1295
    3MOL    C26  790   3.418   3.816   3.750  0.1252 -0.6939  0.2255
    3MOL    C27  791   3.332   3.735   3.649  0.5054  0.1351  0.3131
    3MOL    H28  792   3.333   4.342   3.991  0.0493 -1.5940  1.8506
    3MOL    H29  793   3.161   4.383   3.976  0.0998  0.0017 -1.7650
    3MOL    H30  794   3.296   4.301   3.767  1.3062 -1.4932 -0.6585
    3MOL    H31  795   3.393   4.140   3.643 -0.1096  0.0264 -0.4838
    3MOL    H32  796   3.261   4.016   3.643 -0.1811 -1.5873  1.0695
    3MOL    H33  797   3.518   3.934   3.623 -0.3462  0.2329 -0.6299
    3MOL    H34  798   3.534   4.011   3.764 -1.0656 -0.5126  1.0462
    3MOL    H35  799   3.503   3.757   3.782  2.1882  1.6722 -0.7804
    3MOL    H36  800   3.353   3.831   3.837  0.1067  1.5368 -0.1520
    3MOL    H37  801   3.245   3.786   3.608 -0.2711 -0.9893  0.5465
    3MOL    H38  802   3.385   3.699   3.560  1.0856  2.7890 -0.4679
    3MOL    H39  803   3.302   3.653   3.714 -1.4053  0.3328 -0.3010
    3MOL    C40  804   3.094   4.218   3.770 -0.6718 -0.3251 -0.1083
    3MOL    C41  805   3.012   4.340   3.731  0.2832 -0.4155  0.2060
    3MOL    O42  806   2.945   4.401   3.852 -0.9011 -0.4378  0.2256
    3MOL    C43  807   2.974   4.544   3.851 -0.2042  0.4168  0.1278
    3MOL    C44  808   2.901   4.612   3.974 -0.0014 -0.3614  0.6154
    3MOL    C45  809   2.915   4.768   3.978 -0.1727  0.2362  0.4868
    3MOL    C46  810   2.875   4.827   4.105 -0.2351 -0.0830  0.0502
    3MOL    H47  811   3.043   4.150   3.838  0.8082 -2.4289 -1.0533
    3MOL    H48  812   3.105   4.155   3.682 -0.9009  1.1432 -1.1975
    3MOL    H49  813   3.075   4.411   3.678 -0.6659 -0.6034 -1.1789
    3MOL    H50  814   2.928   4.594   3.765 -0.4608 -2.4402 -1.4680
    3MOL    H51  815   3.081   4.562   3.847 -0.5543  3.2100  1.6398
    3MOL    H52  816   2.954   4.581   4.065 -3.1900 -0.1628  2.6137
    3MOL    H53  817   2.799   4.576   3.979  0.0133 -0.3126  1.4677
    3MOL    H54  818   2.849   4.807   3.900  0.3967 -1.7378 -1.0254
    3MOL    H55  819   3.013   4.801   3.945  0.3192  0.8001  2.4552
    3MOL    H56  820   2.946   4.794   4.181  2.0879  0.5741 -1.7592
    3MOL    H57  821   2.873   4.936   4.100 -0.1745  0.0552  2.4671
    3MOL    H58  822   2.771   4.805   4.129 -0.4383 -0.4324 -1.1318
    3MOL    C59  823   2.886   4.295   3.653  0.0520  0.0853  0.0801
    3MOL    C60  824   2.902   4.237   3.516 -0.1051 -0.0452  0.2353
    3MOL    O61  825   2.777   4.237   3.441 -0.4399 -0.4242 -0.4183
    3MOL    C62  826   2.674   4.157   3.513 -0.0169  0.3947 -0.0578
    3MOL    C63  827   2.563   4.113   3.414  0.3244 -0.6525 -0.4176
    3MOL    C64  828   2.623   4.005   3.325  0.2513  0.0314 -0.6651
    3MOL    C65  829   2.519   3.941   3.228 -1.1247 -0.0218 -0.1784
    3MOL    H66  830   2.846   4.216   3.716 -1.5293 -0.2473 -1.3417
    3MOL    H67  831   2.812   4.375   3.647  0.3099  0.4589  1.5555
    3MOL    H68  832   2.947   4.139   3.522  0.7549  0.3625  0.5135
    3MOL    H69  833   2.634   4.220   3.592  1.3827  0.8948  0.2678
    3MOL    H70  834   2.719   4.076   3.571 -0.0548 -1.3737 -2.3832
    3MOL    H71  835   2.478   4.067   3.463  1.4200 -1.4161  0.8127
    3MOL    H72  836   2.502   4.188   3.365 -1.5724 -0.9744  1.3771
    3MOL    H73  837   2.708   4.052   3.276  0.2249 -0.9595 -1.6938
    3MOL    H74  838   2.678   3.934   3.387  2.1124  1.2460 -0.8979
    3MOL    H75  839   2.471   4.015   3.163 -2.1372 -0.6619 -0.1740
    3MOL    H76  840   2.576   3.877   3.160 -0.3621 -2.3121  2.5013
    3MOL    H77  841   2.449   3.873   3.275 -0.5769 -0.5482 -0.1179
    3MOL    C78  842   2.996   4.322   3.426  0.1882 -0.2552 -0.4940
    3MOL    C79  843   3.048   4.251   3.299  0.1488  0.5564  0.8174
    3MOL    O80  844   3.157   4.169   3.328  0.3080  0.2217  0.3804
    3MOL    C81  845   3.148   4.044   3.253  0.5518 -0.7049  0.7174
    3MOL    C82  846   3.292   3.999   3.224 -0.3260 -0.0870 -0.1638
    3MOL    C83  847   3.306   3.853   3.187  0.8326 -0.0358  0.0553
    3MOL    C84  848   3.440   3.817   3.122 -0.3467 -0.3053  0.4526
    3MOL    H85  849   3.086   4.351   3.481 -0.6398  0.4004  0.5588
    3MOL    H86  850   2.940   4.414   3.404  2.0699  0.4870 -2.2949
    3MOL    H87  851   2.966   4.191   3.261  0.2331  0.0468  1.4269
    3MOL    H88  852   3.083   4.044   3.166 -1.2163 -2.8048  1.9865
    3MOL    H89  853   3.096   3.976   3.321  0.0558 -0.8241  0.2196
    3MOL    H90  854   3.334   4.061   3.145 -1.7903  0.7325 -0.3239
    3MOL    H91  855   3.349   4.023   3.314  0.0940 -1.5719 -0.0116
    3MOL    H92  856   3.230   3.832   3.111  0.0361 -0.0425  0.8448
    3MOL    H93  857   3.287   3.789   3.273 -0.5344  1.0365  0.5645
    3MOL    H94  858   3.457   3.876   3.032  0.7796  1.7564  1.9847
    3MOL    H95  859   3.521   3.842   3.191 -1.1208  2.4282  0.4538
    3MOL    H96  860   3.444   3.709   3.110  2.6814 -0.0691 -1.1221
    3MOL    C97  861   3.093   4.350   3.189 -0.3016  0.3204 -0.4848
    3MOL    C98  862   2.974   4.419   3.113  0.1177  0.3682 -0.3983
    3MOL    O99  863   2.865   4.473   3.196 -0.4485  0.5425 -0.0982
    3MOL   C100  864   2.739   4.422   3.165  0.1916 -0.2449  0.9281
    3MOL   C101  865   2.639   4.478   3.267 -0.7028 -0.1638  0.4331
    3MOL   C102  866   2.621   4.627   3.238 -0.1366 -0.0321 -0.0443
    3MOL   C103  867   2.528   4.667   3.123 -0.2698  0.3978  0.2344
    3MOL   H104  868   3.156   4.301   3.115  0.4305  2.2669 -1.1995
    3MOL   H105  869   3.164   4.421   3.231 -0.8812 -0.2201  1.4209
    3MOL   H106  870   2.937   4.351   3.036  0.3370 -1.8270  1.3950
    3MOL   H107  871   2.749   4.313   3.171  0.0270 -0.2666  0.8101
    3MOL   H108  872   2.724   4.447   3.060 -0.8024 -1.6364  0.7232
    3MOL   H109  873   2.682   4.469   3.367 -0.2729  1.2124  0.3811
    3MOL   H110  874   2.545   4.425   3.277 -0.4232 -1.0212 -1.2728
    3MOL   H111  875   2.720   4.669   3.220  0.6868 -1.1877  1.6621
    3MOL   H112  876   2.588   4.677   3.330  0.3841 -1.7111  1.0778
    3MOL   H113  877   2.557   4.763   3.082 -0.4359 -0.0914 -1.0562
    3MOL   H114  878   2.538   4.594   3.042 -2.5269  2.0026 -1.5533
    3MOL   H115  879   2.425   4.667   3.158 -0.7128 -1.0561 -1.0049
    3MOL   C116  880   3.030   4.536   3.029  0.5452 -0.0169 -0.1300
    3MOL   C117  881   2.932   4.608   2.935 -0.5739 -0.5791 -0.2494
    3MOL   O118  882   3.002   4.721   2.880  0.2739  0.2493 -0.3143
    3MOL   C119  883   2.968   4.845   2.944 -0.1174  0.0609 -0.2973
    3MOL   C120  884   3.018   4.959   2.851 -0.4423 -0.3515 -0.0012
    3MOL   C121  885   2.916   4.999   2.749  0.2239  0.2774  0.1547
    3MOL   C122  886   2.954   5.129   2.682  0.1714  0.4015 -0.4831
    3MOL   H123  887   3.063   4.608   3.104 -1.5888 -0.3324  1.1578
    3MOL   H124  888   3.115   4.511   2.965  0.2029  0.0788 -0.6280
    3MOL   H125  889   2.849   4.644   2.996  1.5753  3.2442  0.5812
    3MOL   H126  890   3.006   4.856   3.046  2.3748 -2.4705 -0.8756
    3MOL   H127  891   2.860   4.855   2.949  0.0350  1.4425  0.3491
    3MOL   H128  892   3.115   4.932   2.808 -1.4045 -2.3738 -0.9854
    3MOL   H129  893   3.047   5.038   2.920 -0.5986  0.0890 -0.4436
    3MOL   H130  894   2.917   4.919   2.675 -1.6468  0.9659 -0.6496
    3MOL   H131  895   2.811   4.997   2.781 -0.4036 -0.3986 -1.8541
    3MOL   H132  896   2.985   5.206   2.754 -0.4789  0.9660 -0.8028
    3MOL   H133  897   2.872   5.169   2.622 -0.8080  0.6695  0.9919
    3MOL   H134  898   3.034   5.105   2.612  0.1235 -2.1934  0.2772
    3MOL   C135  899   2.900   4.508   2.821  0.0782  0.5646 -0.0755
    3MOL   C136  900   2.822   4.569   2.702 -0.2279 -0.7895 -0.0287
    3MOL   O137  901   2.804   4.455   2.625  0.3713 -0.1192 -0.3097
    3MOL   C138  902   2.852   4.469   2.492 -0.9461  0.1925 -0.3140
    3MOL   C139  903   2.857   4.332   2.423  0.0028 -0.5081  0.3308
    3MOL   C140  904   2.921   4.224   2.496  0.3158 -0.4925 -0.3808
    3MOL   C141  905   2.931   4.093   2.413 -0.3753 -0.6218 -0.3058
    3MOL   H142  906   2.843   4.426   2.865  0.5575 -0.0193 -0.5572
    3MOL   H143  907   2.986   4.462   2.773  0.3534  1.2049 -0.2070
    3MOL   H144  908   2.878   4.649   2.653 -0.9724  1.0387  1.9970
    3MOL   H145  909   2.953   4.509   2.491 -0.3508 -1.2336  0.8641
    3MOL   H146  910   2.800   4.549   2.439 -3.4464 -0.8126  0.5459
    3MOL   H147  911   2.908   4.339   2.327  0.9975 -0.5904  0.8481
    3MOL   H148  912   2.755   4.305   2.397  0.1867 -0.2902 -0.6318
    3MOL   H149  913   3.019   4.255   2.531  0.0200  0.2004 -0.1559
    3MOL   H150  914   2.862   4.206   2.586  1.8768 -0.2680  0.6998
    3MOL   H151  915   2.983   4.016   2.469 -2.4331 -1.3038  0.7396
    3MOL   H152  916   2.835   4.053   2.381 -0.3292  0.1638 -1.4610
    3MOL   H153  917   2.986   4.107   2.320 -1.6340  1.3953 -0.7891
    3MOL   C154  918   2.685   4.627   2.757  0.3689  0.2759 -0.1798
    3MOL   C155  919   2.588   4.682   2.649 -0.5987  0.5134  0.0701
    3MOL   O156  920   2.495   4.766   2.710 -0.1914 -0.0598  0.4158
    3MOL   C157  921   2.531   4.904   2.742  0.1319  0.1340  0.5159
    3MOL   C158  922   2.416   4.984   2.796  0.5024 -0.0130  0.6424
    3MOL   C159  923   2.307   5.008   2.690  0.4701 -0.2797  0.5696
    3MOL   C160  924   2.319   5.127   2.591 -0.1957  0.6064 -0.3600
    3MOL   H161  925   2.710   4.708   2.826 -0.4959  2.0003 -1.8370
    3MOL   H162  926   2.628   4.549   2.808  0.1512  1.1550  0.9386
    3MOL   H163  927   2.658   4.739   2.588 -1.2173  0.9080 -0.2707
    3MOL   H164  928   2.608   4.903   2.818  0.1990  0.6537  0.4558
    3MOL   H165  929   2.574   4.954   2.656  0.5816 -2.4337 -0.8088
    3MOL   H166  930   2.447   5.079   2.840  0.5934  0.4337 -0.3755
    3MOL   H167  931   2.376   4.932   2.883 -0.9390  1.1727  0.7231
    3MOL   H168  932   2.289   4.921   2.627 -0.6239  0.0527  0.3990
    3MOL   H169  933   2.211   5.024   2.740 -0.3450 -1.9631 -0.4163
    3MOL   H170  934   2.304   5.218   2.649 -0.7731  1.3661 -1.6690
    3MOL   H171  935   2.411   5.133   2.533  0.1645  1.0881  0.2630
    3MOL   H172  936   2.233   5.116   2.524 -1.6932 -0.3859  1.6817
    3MOL   C173  937   2.507   4.578   2.579  0.0976  0.1909 -0.0210
    3MOL   C174  938   2.436   4.628   2.458  0.5957 -0.0811 -0.5979
    3MOL   O175  939   2.544   4.670   2.377 -0.0380 -0.3254 -0.6137
    3MOL   C176  940   2.500   4.751   2.268 -0.4567  0.0823 -0.0393
    3MOL   C177  941   2.617   4.801   2.182  0.2031 -0.3554 -0.2687
    3MOL   C178  942   2.567   4.851   2.039  0.2016  0.2214 -0.1863
    3MOL   C179  943   2.676   4.892   1.937 -0.7506  0.5440 -0.5195
    3MOL   H180  944   2.426   4.534   2.637 -0.8981  1.1274 -0.6734
    3MOL   H181  945   2.576   4.502   2.541  0.2777  0.5641 -0.4440
    3MOL   H182  946   2.378   4.710   2.500  0.2336 -0.2384 -0.7902
    3MOL   H183  947   2.448   4.843   2.295 -1.0902  0.1543 -1.4666
    3MOL   H184  948   2.428   4.700   2.204 -1.4886  0.7514  0.5663
    3MOL   H185  949   2.689   4.721   2.163  0.7978  0.1861 -0.3162
    3MOL   H186  950   2.675   4.873   2.240 -0.9058 -1.2562  2.0183
    3MOL   H187  951   2.517   4.759   2.005  0.8983 -0.8494  1.6393
    3MOL   H188  952   2.485   4.923   2.043 -0.5971 -0.6884  0.2663
    3MOL   H189  953   2.740   4.974   1.969  1.1068 -1.3110  0.6300
    3MOL   H190  954   2.755   4.817   1.930 -2.2129 -1.3464  2.3034
    3MOL   H191  955   2.637   4.888   1.835 -1.4309 -1.7068 -0.1923
    3MOL   C192  956   2.343   4.535   2.385 -0.3886  0.2612  0.2059
    3MOL   C193  957   2.242   4.461   2.477 -0.1214 -0.6487 -0.3486
    3MOL   O194  958   2.169   4.564   2.543  0.0161  0.3663 -0.9227
    3MOL   C195  959   2.142   4.529   2.685  0.4373  0.5369  0.5393
    3MOL   C196  960   2.173   4.652   2.773  0.1080  0.4436 -0.0542
    3MOL   C197  961   2.127   4.625   2.913  0.1437 -0.0860  0.5490
    3MOL   C198  962   2.133   4.753   2.999  0.1752  0.5104 -0.1868
    3MOL   H199  963   2.402   4.460   2.333 -1.3853 -0.7486  0.5039
    3MOL   H200  964   2.291   4.587   2.305  0.1906 -1.1913 -1.1211
    3MOL   H201  965   2.303   4.392   2.536  1.8674  1.1169 -0.2749
    3MOL   H202  966   2.187   4.440   2.726 -1.1687  0.8002  2.9554
    3MOL   H203  967   2.036   4.506   2.692  0.5113  0.2397  0.6702
    3MOL   H204  968   2.280   4.670   2.773  0.3332 -0.8048  1.5149
    3MOL   H205  969   2.115   4.738   2.737  0.2708  0.8411  0.6162
    3MOL   H206  970   2.190   4.546   2.952  0.6228  0.0635  0.0923
    3MOL   H207  971   2.028   4.580   2.921 -0.8442  2.0685  0.8951
    3MOL   H208  972   2.059   4.827   2.967 -0.1493 -0.6693 -2.2594
    3MOL   H209  973   2.102   4.725   3.100  1.2287  1.6902  0.4770
    3MOL   H210  974   2.233   4.792   3.014  0.5022  0.9502 -3.2391
    3MOL   C211  975   2.149   4.369   2.397  0.4731  0.4103  0.5964
    3MOL   C212  976   2.059   4.273   2.474  1.2461 -0.0439  0.7937
    3MOL   O213  977   1.974   4.225   2.372 -0.5494 -0.2335  0.0491
    3MOL   C214  978   1.847   4.294   2.356  0.3626  0.9660 -0.3062
    3MOL   C215  979   1.787   4.231   2.230  0.0328  0.0401  0.2358
    3MOL   C216  980   1.630   4.259   2.217  0.6726 -0.4350 -0.1429
    3MOL   C217  981   1.561   4.214   2.081 -0.3794  0.5672  0.1636
    3MOL   H218  982   2.205   4.308   2.326  2.2612  0.6757  1.7660
    3MOL   H219  983   2.084   4.432   2.336  1.2861 -0.3995 -1.1621
    3MOL   H220  984   2.008   4.324   2.555  0.4462  0.3113  0.0760
    3MOL   H221  985   1.780   4.265   2.438  2.3650 -0.6499  0.8202
    3MOL   H222  986   1.852   4.402   2.344 -1.0905  0.9314 -1.2362
    3MOL   H223  987   1.848   4.272   2.149 -1.2735 -1.1495 -1.3847
    3MOL   H224  988   1.800   4.124   2.221 -0.0415  0.0747 -0.3141
    3MOL   H225  989   1.625   4.368   2.225 -0.9568 -0.4895 -0.2491
    3MOL   H226  990   1.574   4.202   2.290 -0.1011  1.3636  0.6879
    3MOL   H227  991   1.453   4.227   2.092 -0.5355 -1.3314  1.2516
    3MOL   H228  992   1.575   4.107   2.061  1.3355  1.0485 -1.2800
    3MOL   H229  993   1.599   4.279   2.003  0.0028  0.1728  0.0229
    3MOL   C230  994   2.140   4.155   2.530  0.6620  0.0909 -0.4560
    3MOL   C231  995   2.060   4.054   2.614 -0.6085 -0.7311  0.3181
    3MOL   O232  996   2.129   3.931   2.621  0.3417 -0.6568 -0.4181
    3MOL   C233  997   2.122   3.847   2.502 -0.3402  0.7330  0.2150
    3MOL   C234  998   2.138   3.700   2.557  0.0493  0.0218 -0.3302
    3MOL   C235  999   2.199   3.602   2.462  0.1632  0.0884  0.5315
    3MOL   C236 1000   2.100   3.582   2.338  0.1956  0.0762 -0.0962
    3MOL   H237 1001   2.224   4.178   2.595  0.9622 -1.4862 -0.2561
    3MOL   H238 1002   2.170   4.097   2.442 -1.9205 -1.2661 -0.4967
    3MOL   H239 1003   1.966   4.030   2.564 -0.9335  0.5578  0.3097
    3MOL   H240 1004   2.025   3.847   2.452 -1.9118 -0.8093  3.1432
    3MOL   H241 1005   2.201   3.883   2.436  0.8789 -0.0687  1.2099
    3MOL   H242 1006   2.192   3.714   2.650 -0.4305  1.0262 -0.1857
    3MOL   H243 1007   2.037   3.669   2.584 -0.0324  0.8336  0.3209
    3MOL   H244 1008   2.215   3.506   2.512  2.4958 -1.0452 -2.2375
    3MOL   H245 1009   2.295   3.644   2.435 -0.0918  1.9976  2.4368
    3MOL   H246 1010   2.072   3.671   2.282 -1.8764 -0.8886 -0.6269
    3MOL   H247 1011   2.013   3.530   2.379  1.3494 -1.0986  0.9265
    3MOL   H248 1012   2.147   3.521   2.262 -1.1787 -0.7191 -0.3209
    3MOL   C249 1013   2.042   4.101   2.760  0.2712 -0.4462 -0.8326
    3MOL   C250 1014   1.903   4.050   2.810  0.0791 -0.4551 -0.7150
    3MOL   O251 1015   1.799   4.123   2.741 -0.4731  0.1179  0.3960
    3MOL   C252 1016   1.671   4.063   2.749 -0.0843 -0.0867 -0.0532
    3MOL   C253 1017   1.591   4.163   2.674 -0.4545 -0.3391 -0.0453
    3MOL   C254 1018   1.453   4.111   2.642 -0.4693  0.4680  0.0635
    3MOL   C255 1019   1.362   4.214   2.588  0.1221 -0.7588 -0.5325
    3MOL   H256 1020   2.049   4.210   2.771  0.6341 -0.6614  1.2373
    3MOL   H257 1021   2.135   4.064   2.804  1.3045  0.0089 -2.6033
    3MOL   H258 1022   1.903   3.946   2.780  1.8467 -0.7972  0.3673
    3MOL   H259 1023   1.643   4.041   2.852 -0.8854 -2.4705 -0.7483
    3MOL   H260 1024   1.659   3.969   2.695  1.8790 -0.6298  0.4117
    3MOL   H261 1025   1.589   4.259   2.725  2.8528  0.3092 -1.0521
    3MOL   H262 1026   1.642   4.194   2.583 -1.0434 -0.5310 -0.4470
    3MOL   H263 1027   1.469   4.035   2.566 -2.2090 -0.0972  0.2456
    3MOL   H264 1028   1.410   4.058   2.727  1.0754 -0.3064  0.3750
    3MOL   H265 1029   1.409   4.266   2.506  1.4774  0.1139  0.7702
    3MOL   H266 1030   1.345   4.298   2.656  1.3612 -0.8503 -0.0978
    3MOL   H267 1031   1.258   4.188   2.568  0.2545 -0.2821 -1.8710
    3MOL   C268 1032   1.889   4.061   2.967  0.2147 -0.4824 -0.4180
    3MOL   C269 1033   1.899   4.201   3.029 -0.3398 -0.2182  0.0081
    3MOL   O270 1034   2.033   4.253   3.011 -0.1670 -0.2821 -0.8469
    3MOL   C271 1035   2.136   4.204   3.102 -0.1175 -0.6488 -0.1641
    3MOL   C272 1036   2.271   4.280   3.076  1.1728 -0.1423 -0.4402
    3MOL   C273 1037   2.316   4.258   2.932  0.3266  0.1483  0.0366
    3MOL   C274 1038   2.455   4.312   2.893  1.0556  0.4181  0.1279
    3MOL   H275 1039   1.788   4.030   2.991  0.2734 -0.1678  0.2539
    3MOL   H276 1040   1.956   3.991   3.017 -0.9225 -1.3687 -0.1215
    3MOL   H277 1041   1.877   4.197   3.136  1.5387 -0.4475  0.4043
    3MOL   H278 1042   2.111   4.235   3.204  1.9840  0.1795  0.1265
    3MOL   H279 1043   2.160   4.098   3.104  1.0553 -0.3854 -0.3140
    3MOL   H280 1044   2.255   4.387   3.091  0.6656 -0.1959 -0.5970
    3MOL   H281 1045   2.350   4.239   3.140  0.4808 -0.9267 -0.0708
    3MOL   H282 1046   2.239   4.283   2.860 -1.0523 -2.1423  0.6436
    3MOL   H283 1047   2.326   4.151   2.912 -0.0861  0.1717 -0.2831
    3MOL   H284 1048   2.477   4.274   2.793 -0.9888 -0.8081  0.0986
    3MOL   H285 1049   2.530   4.287   2.967  0.2063  1.9138  1.4960
    3MOL   H286 1050   2.455   4.419   2.875  1.4759  0.7609  2.1329
    3MOL   C287 1051   1.810   4.306   2.963  0.3112 -0.1589 -0.2844
    3MOL   C288 1052   1.776   4.435   3.053 -0.2566 -0.0508  0.1932
    3MOL   O289 1053   1.708   4.400   3.172  0.0283 -0.0578 -0.2300
    3MOL   C290 1054   1.776   4.435   3.294  0.6013  0.1365 -0.3070
    3MOL   C291 1055   1.689   4.395   3.407 -0.5946 -0.0622  0.1812
    3MOL   C292 1056   1.761   4.417   3.542  0.0513  0.2811 -0.1352
    3MOL   C293 1057   1.667   4.377   3.660  0.2630  0.3574 -0.3481
    3MOL   H294 1058   1.711   4.263   2.945 -0.6064  1.1579  1.5614
    3MOL   H295 1059   1.841   4.333   2.862 -0.4948  1.2774 -0.1646
    3MOL   H296 1060   1.875   4.480   3.067  0.0847 -0.5492 -0.6337
    3MOL   H297 1061   1.867   4.376   3.303 -0.4878 -1.3853  1.1101
    3MOL   H298 1062   1.808   4.539   3.290 -0.1509  0.3974  0.4200
    3MOL   H299 1063   1.666   4.289   3.402 -2.0650  0.2428  0.2315
    3MOL   H300 1064   1.597   4.454   3.403  1.1316  2.6568 -0.3360
    3MOL   H301 1065   1.805   4.516   3.555 -0.1940  0.6460 -2.0445
    3MOL   H302 1066   1.847   4.352   3.559  0.7825  0.8649 -1.5466
    3MOL   H303 1067   1.585   4.449   3.651  1.5676  1.9563  0.3054
    3MOL   H304 1068   1.630   4.275   3.655 -0.5160  0.5644  0.9568
    3MOL   H305 1069   1.719   4.383   3.756  0.2835 -0.1415 -0.3261
    3MOL   C306 1070   1.691   4.535   2.969  0.9523  0.5253  1.0143
    3MOL   C307 1071   1.663   4.665   3.045  0.1089 -0.0085 -0.5790
    3MOL   O308 1072   1.575   4.736   2.961  0.3365 -0.0567 -0.3959
    3MOL   C309 1073   1.435   4.706   2.969  0.0362 -0.3503  0.1928
    3MOL   C310 1074   1.363   4.825   2.898  0.2376  0.2617 -0.2583
    3MOL   C311 1075   1.371   4.821   2.739 -0.1772 -0.0434 -0.2514
    3MOL   C312 1076   1.296   4.933   2.672  0.0318  0.0373 -0.4405
    3MOL   H313 1077   1.739   4.557   2.874 -1.7579 -2.4173 -1.1655
    3MOL   H314 1078   1.599   4.484   2.942 -0.4404  2.6841  1.5565
    3MOL   H315 1079   1.621   4.639   3.142 -0.7359 -1.3366 -1.2876
    3MOL   H316 1080   1.405   4.708   3.074  1.0852  0.7894  0.4776
    3MOL   H317 1081   1.408   4.607   2.932  0.8095 -0.1151 -1.0213
    3MOL   H318 1082   1.411   4.915   2.936 -1.0124  1.2536 -1.0023
    3MOL   H319 1083   1.259   4.832   2.930  0.2870  0.7602 -0.2129
    3MOL   H320 1084   1.477   4.820   2.712  0.4810 -1.3092  2.2387
    3MOL   H321 1085   1.344   4.724   2.697 -0.1178  0.6044 -1.8293
    3MOL   H322 1086   1.325   5.029   2.714 -0.3993 -0.1415  0.2629
    3MOL   H323 1087   1.188   4.929   2.683 -0.0025  0.4726 -0.5988
    3MOL   H324 1088   1.324   4.929   2.566 -1.0406 -1.5860 -0.6838
    3MOL   C325 1089   1.779   4.758   3.067  0.2588  0.4744  0.4159
    3MOL   C326 1090   1.746   4.878   3.154 -0.0653 -0.1290 -0.1703
    3MOL   O327 1091   1.707   4.839   3.286  0.1251  0.0508 -0.0301
    3MOL   C328 1092   1.570   4.853   3.315  0.0657  0.3843 -0.3770
    3MOL   C329 1093   1.550   4.857   3.463  0.1478  0.0492  0.0408
    3MOL   C330 1094   1.604   4.736   3.544  0.3560 -0.5051  0.4578
    3MOL   C331 1095   1.592   4.754   3.692  0.2129 -0.2697 -0.5367
    3MOL   H332 1096   1.810   4.792   2.968 -1.1629  0.5285 -0.0225
    3MOL   H333 1097   1.853   4.696   3.118 -1.5824 -1.4680  0.7961
    3MOL   H334 1098   1.670   4.939   3.106  1.0225 -0.7358 -2.7310
    3MOL   H335 1099   1.510   4.770   3.278  1.4511 -0.1378 -1.4692
    3MOL   H336 1100   1.531   4.948   3.278  0.0226  0.1682 -0.8899
    3MOL   H337 1101   1.597   4.945   3.508  0.4521 -0.2981  0.4059
    3MOL   H338 1102   1.443   4.855   3.486 -0.0875  1.9256 -0.8021
    3MOL   H339 1103   1.708   4.717   3.516  1.5889  4.3851  1.2375
    3MOL   H340 1104   1.556   4.642   3.519 -0.3583  0.0983 -0.5015
    3MOL   H341 1105   1.675   4.817   3.722 -1.5670  1.9437 -0.0958
    3MOL   H342 1106   1.599   4.653   3.732 -2.6225 -1.0348 -1.7799
    3MOL   H343 1107   1.500   4.788   3.741 -0.0219 -1.6259  0.0014
    3MOL   C344 1108   1.868   4.971   3.153  0.1779 -0.4812  0.2218
    3MOL   C345 1109   1.880   5.078   3.050 -0.2097 -0.2372 -0.4153
    3MOL   O346 1110   1.893   5.023   2.922  0.4347  0.1010  0.2595
    3MOL   C347 1111   1.770   5.038   2.851 -0.6788  0.8811 -0.3544
    3MOL   C348 1112   1.798   5.029   2.708  0.3177  0.2978  0.3502
    3MOL   C349 1113   1.849   4.884   2.671 -0.1804  0.1352 -0.1804
    3MOL   C350 1114   1.929   4.873   2.536 -0.2355  0.2844  0.5630
    3MOL   H351 1115   1.867   5.027   3.247  1.7265 -1.3828  0.8011
    3MOL   H352 1116   1.963   4.918   3.165 -0.0476 -0.6093  1.5254
    3MOL   H353 1117   1.787   5.132   3.071 -0.5321 -0.7857 -0.4233
    3MOL   H354 1118   1.716   5.132   2.868 -1.6168  0.3935 -0.6283
    3MOL   H355 1119   1.709   4.953   2.881  2.8791 -2.7552 -2.9361
    3MOL   H356 1120   1.873   5.103   2.683  1.0800 -0.6344 -0.1808
    3MOL   H357 1121   1.713   5.052   2.644  0.5897 -0.9067 -0.4847
    3MOL   H358 1122   1.912   4.844   2.750 -0.4436 -0.8581 -0.4533
    3MOL   H359 1123   1.762   4.817   2.669 -0.9933  1.0737  2.3973
    3MOL   H360 1124   1.907   4.951   2.463  1.7439  1.8627  1.6068
    3MOL   H361 1125   1.927   4.770   2.502  0.3874  0.5274 -0.2177
    3MOL   H362 1126   2.036   4.878   2.552 -0.0022 -0.4973 -0.7177
    3MOL   C363 1127   1.998   5.164   3.077 -0.1061  0.4287 -0.0575
    3MOL   C364 1128   2.024   5.266   2.969  0.1360 -0.1858  0.2161
    3MOL   O365 1129   2.145   5.331   3.002 -0.1446  0.3078  1.0009
    3MOL   C366 1130   2.166   5.428   2.896 -0.3677 -0.3248  0.5533
    3MOL   C367 1131   2.292   5.513   2.925  0.8651 -0.1834 -0.2378
    3MOL   C368 1132   2.253   5.630   3.010 -0.1536 -1.0854  0.0856
    3MOL   C369 1133   2.352   5.743   3.022  0.8226  0.3430 -0.4045
    3MOL   H370 1134   2.084   5.098   3.082 -0.3118 -0.0501 -2.0434
    3MOL   H371 1135   1.978   5.215   3.171 -0.7707  1.8586 -0.9550
    3MOL   H372 1136   1.933   5.325   2.961  1.1286  1.3455  0.0719
    3MOL   H373 1137   2.077   5.490   2.885  0.4451  0.7482 -0.1475
    3MOL   H374 1138   2.186   5.384   2.798 -0.1588 -0.7730  0.7973
    3MOL   H375 1139   2.337   5.551   2.833 -1.3986 -2.0197 -2.1738
    3MOL   H376 1140   2.375   5.459   2.971  0.3098  1.3240  2.6498
    3MOL   H377 1141   2.221   5.598   3.109 -0.8788 -0.4965  0.0417
    3MOL   H378 1142   2.170   5.681   2.961  0.3228  0.5591  0.9858
    3MOL   H379 1143   2.316   5.815   3.095  0.5220  1.7615 -1.9330
    3MOL   H380 1144   2.444   5.691   3.047  0.8125 -0.6298 -2.2622
    3MOL   H381 1145   2.379   5.782   2.924  2.4701  0.9593  0.2843
    3MOL   H382 1146   2.035   5.219   2.872  0.8918  1.1978 -0.3711
    4MOL     C1 1147   5.283   2.775   1.501 -0.2197 -0.0571  0.4090
    4MOL     C2 1148   5.177   2.715   1.585  0.3589 -0.1043 -0.7837
    4MOL     O3 1149   5.241   2.616   1.671 -0.2920 -0.1627 -0.4558
    4MOL     C4 1150   5.178   2.492   1.678  0.6812  1.2365 -0.5651
    4MOL     C5 1151   5.207   2.399   1.560  0.2045 -0.3601  0.0069
    4MOL     C6 1152   5.361   2.381   1.530 -0.3193  0.2894  0.1406
    4MOL     C7 1153   5.404   2.269   1.428  0.0526  0.7280  0.7081
    4MOL     H8 1154   5.248   2.873   1.470 -0.8751  0.1406  1.7534
    4MOL     H9 1155   5.377   2.794   1.553 -0.5430  0.2398  0.8919
    4MOL    H10 1156   5.108   2.665   1.517  0.6341 -2.0197  0.3026
    4MOL    H11 1157   5.214   2.439   1.766  0.4962 -0.1942 -1.3398
    4MOL    H12 1158   5.069   2.500   1.689  0.3274 -0.8071 -2.2843
    4MOL    H13 1159   5.170   2.437   1.465  3.7456  0.0880 -1.2515
    4MOL    H14 1160   5.169   2.298   1.576 -0.6748 -0.4215 -2.3267
    4MOL    H15 1161   5.412   2.376   1.626 -0.7409 -1.2136  0.2960
    4MOL    H16 1162   5.395   2.475   1.487 -0.0805  0.8346  1.4936
    4MOL    H17 1163   5.346   2.298   1.340  0.6655 -0.9906 -0.2878
    4MOL    H18 1164   5.369   2.169   1.453  1.7767 -0.1289 -0.2139
    4MOL    H19 1165   5.510   2.252   1.413 -0.2981 -0.7315 -0.2465
    4MOL    H20 1166   5.302   2.721   1.408 -1.6034 -0.1650  0.1822
    4MOL    C21 1167   5.118   2.811   1.690  0.1520  0.2411  1.0034
    4MOL    C22 1168   5.085   2.946   1.633  0.8737  0.5708  0.0057
    4MOL    O23 1169   4.969   2.997   1.700 -0.1194  0.2460 -0.3615
    4MOL    C24 1170   4.849   2.934   1.667 -0.0332  0.3470  0.2530
    4MOL    C25 1171   4.737   3.027   1.726  0.5089 -0.3805  0.3380
    4MOL    C26 1172   4.591   2.993   1.676  0.0144 -0.6362 -0.1260
    4MOL    C27 1173   4.496   3.113   1.682  0.3301 -0.7734 -0.8994
    4MOL    H28 1174   5.190   2.826   1.771  1.9365 -4.1031  0.3151
    4MOL    H29 1175   5.031   2.763   1.735  1.5938 -2.2746  1.1789
    4MOL    H30 1176   5.067   2.945   1.525  2.6714  1.8934 -0.3345
    4MOL    H31 1177   4.834   2.833   1.703  0.3612  0.6251  1.2175
    4MOL    H32 1178   4.835   2.936   1.559 -2.7647 -0.8840  0.5522
    4MOL    H33 1179   4.739   3.025   1.835  1.2228  0.0133  0.3304
    4MOL    H34 1180   4.769   3.128   1.702 -0.3186 -0.2834 -0.3580
    4MOL    H35 1181   4.596   2.965   1.571 -0.0918  0.4511 -0.4287
    4MOL    H36 1182   4.548   2.911   1.734  2.0571 -0.6902  1.3660
    4MOL    H37 1183   4.477   3.151   1.783 -1.6197 -1.8439 -0.8405
    4MOL    H38 1184   4.542   3.200   1.636  1.8325 -0.8225  0.4514
    4MOL    H39 1185   4.398   3.093   1.638 -0.0894 -0.7041 -0.0058
    4MOL    C40 1186   5.194   3.044   1.667  0.6160 -0.0473  0.3405
    4MOL    C41 1187   5.194   3.170   1.581 -0.1861  0.0498  0.1611
    4MOL    O42 1188   5.245   3.140   1.452  0.4586 -0.4019  0.1604
    4MOL    C43 1189   5.263   3.258   1.371  0.0123 -0.3392 -0.1961
    4MOL    C44 1190   5.308   3.218   1.227  0.2798  0.3158  0.6018
    4MOL    C45 1191   5.198   3.180   1.129  0.1927  0.2223  0.3511
    4MOL    C46 1192   5.114   3.056   1.166 -0.2167 -0.1378 -0.1076
    4MOL    H47 1193   5.295   3.002   1.658 -0.1590 -2.7368  3.2885
    4MOL    H48 1194   5.171   3.054   1.773 -2.6416 -1.2185 -0.2156
    4MOL    H49 1195   5.089   3.195   1.565 -0.4332 -1.5875 -0.9244
    4MOL    H50 1196   5.343   3.319   1.413 -1.1282  1.2051 -0.2390
    4MOL    H51 1197   5.171   3.317   1.378 -0.1628 -0.5537 -0.6809
    4MOL    H52 1198   5.391   3.146   1.230  1.9280  1.9352 -3.0601
    4MOL    H53 1199   5.354   3.301   1.175  1.1645  0.1496  1.0940
    4MOL    H54 1200   5.246   3.160   1.033  0.7065 -3.1276  1.2299
    4MOL    H55 1201   5.137   3.268   1.112 -1.4016 -0.8143  0.5916
    4MOL    H56 1202   5.058   3.012   1.084 -1.0621 -0.0862  0.4306
    4MOL    H57 1203   5.184   2.985   1.210  3.2102  2.5360 -1.0190
    4MOL    H58 1204   5.044   3.086   1.244  1.0831 -1.1163  1.4595
    4MOL    C59 1205   5.257   3.291   1.661  0.4034 -0.4757 -0.2223
    4MOL    C60 1206   5.400   3.272   1.715 -0.4401  0.3514 -0.3509
    4MOL    O61 1207   5.512   3.265   1.625 -0.3963  0.2290  0.2950
    4MOL    C62 1208   5.542   3.137   1.560  0.2712 -0.4801 -0.3703
    4MOL    C63 1209   5.643   3.165   1.452  0.1918 -0.7392 -0.7693
    4MOL    C64 1210   5.779   3.229   1.483  0.5954  0.0313 -0.6181
    4MOL    C65 1211   5.882   3.196   1.378 -0.5079  0.2525  0.1229
    4MOL    H66 1212   5.253   3.380   1.598  0.3293 -0.4315 -0.1554
    4MOL    H67 1213   5.192   3.321   1.744  2.8894  3.1433  0.5408
    4MOL    H68 1214   5.388   3.179   1.771  1.3989 -1.4019 -2.7836
    4MOL    H69 1215   5.461   3.071   1.529  0.4169 -0.4720 -0.7622
    4MOL    H70 1216   5.580   3.082   1.646 -1.1987  0.2825  0.7858
    4MOL    H71 1217   5.661   3.068   1.406 -1.3640 -1.7470  0.6874
    4MOL    H72 1218   5.593   3.222   1.374  2.2950 -2.6250 -3.6238
    4MOL    H73 1219   5.770   3.333   1.515  1.8378 -0.9799  3.2726
    4MOL    H74 1220   5.805   3.183   1.578  1.0208  3.2501  0.8892
    4MOL    H75 1221   5.901   3.089   1.371 -1.7270  0.0995 -1.1823
    4MOL    H76 1222   5.849   3.234   1.281  0.3091 -1.8881 -1.0351
    4MOL    H77 1223   5.982   3.230   1.403  0.8431 -1.6698 -2.4587
    4MOL    C78 1224   5.415   3.385   1.815 -0.6480  0.2114 -0.1212
    4MOL    C79 1225   5.555   3.414   1.879 -0.2534 -0.3431 -0.0224
    4MOL    O80 1226   5.587   3.300   1.957 -0.0758  0.7252 -0.6792
    4MOL    C81 1227   5.713   3.248   1.926  0.3974  0.2112 -0.4045
    4MOL    C82 1228   5.719   3.110   1.986  0.1284 -0.3063 -0.4669
    4MOL    C83 1229   5.854   3.055   1.968 -0.3427  0.1871 -0.7364
    4MOL    C84 1230   5.907   3.036   1.825  0.1933  0.3097  0.1087
    4MOL    H85 1231   5.340   3.381   1.894 -0.9108 -1.2844 -0.4314
    4MOL    H86 1232   5.393   3.485   1.778  0.5454  0.4313 -0.2505
    4MOL    H87 1233   5.626   3.428   1.797 -1.3689 -1.6493 -1.2232
    4MOL    H88 1234   5.791   3.311   1.968  0.4711 -0.2237  0.1063
    4MOL    H89 1235   5.712   3.227   1.819 -2.3466  0.2246 -0.4024
    4MOL    H90 1236   5.696   3.108   2.092 -0.0212 -1.7375 -0.5227
    4MOL    H91 1237   5.651   3.036   1.943 -0.7760 -1.1884  2.3453
    4MOL    H92 1238   5.863   2.958   2.018  2.5299  1.8830  2.2183
    4MOL    H93 1239   5.925   3.121   2.017  0.0475 -1.5009  1.0822
    4MOL    H94 1240   6.004   2.988   1.817 -0.6540 -1.4051 -0.0970
    4MOL    H95 1241   5.831   2.979   1.773 -0.6614  1.3369  0.2085
    4MOL    H96 1242   5.903   3.135   1.780 -0.3590  0.2968  0.1251
    4MOL    C97 1243   5.551   3.537   1.975 -0.1397  0.2004 -0.5112
    4MOL    C98 1244   5.548   3.678   1.919 -0.1521 -0.0068  0.1878
    4MOL    O99 1245   5.522   3.760   2.035  0.0916 -0.4627  0.5273
    4MOL   C100 1246   5.454   3.879   2.007 -0.3320 -0.2551 -0.7558
    4MOL   C101 1247   5.486   3.978   2.118 -0.2470  0.4722 -0.1291
    4MOL   C102 1248   5.629   4.018   2.118  0.1024  0.1695  0.5334
    4MOL   C103 1249   5.662   4.121   2.222  0.3730  0.1165 -0.0678
    4MOL   H104 1250   5.639   3.526   2.038 -0.2080  2.3504 -0.0054
    4MOL   H105 1251   5.468   3.517   2.043 -0.2028  0.0854 -0.6204
    4MOL   H106 1252   5.462   3.686   1.851 -0.3743  0.7538  0.5528
    4MOL   H107 1253   5.348   3.857   2.004 -0.1569 -1.0669 -1.2674
    4MOL   H108 1254   5.485   3.919   1.910  3.5414  1.0467  0.9171
    4MOL   H109 1255   5.458   3.933   2.213 -0.5884 -0.3713 -0.6238
    4MOL   H110 1256   5.430   4.070   2.102 -1.0859 -0.0250 -0.0539
    4MOL   H111 1257   5.654   4.054   2.019 -0.8282  0.5673  0.4399
    4MOL   H112 1258   5.682   3.923   2.122 -2.6517 -1.4147  0.3475
    4MOL   H113 1259   5.764   4.151   2.197  0.1602  0.1294 -0.9477
    4MOL   H114 1260   5.595   4.207   2.213 -0.0366 -0.2996 -1.0744
    4MOL   H115 1261   5.671   4.073   2.319 -1.4161 -1.2231 -0.5379
    4MOL   C116 1262   5.686   3.731   1.858 -0.0905  0.2534  0.3803
    4MOL   C117 1263   5.690   3.712   1.708 -0.0883 -0.3212 -1.0327
    4MOL   O118 1264   5.582   3.790   1.650 -0.2955 -0.2913  0.3651
    4MOL   C119 1265   5.486   3.709   1.580 -0.6716  0.0229 -0.1500
    4MOL   C120 1266   5.360   3.800   1.550  0.2121  0.0504 -0.0497
    4MOL   C121 1267   5.282   3.861   1.672  0.3146 -0.2505  0.4522
    4MOL   C122 1268   5.191   3.754   1.733 -0.0480  0.6578  0.5494
    4MOL   H123 1269   5.715   3.834   1.880  2.5834 -0.2048 -0.7165
    4MOL   H124 1270   5.765   3.677   1.911 -0.4592  1.5184  2.2670
    4MOL   H125 1271   5.684   3.604   1.702  2.1225 -0.3740 -2.6959
    4MOL   H126 1272   5.454   3.623   1.639  1.4119  0.0462  1.0509
    4MOL   H127 1273   5.528   3.671   1.487 -0.4232  1.6805 -0.7303
    4MOL   H128 1274   5.293   3.747   1.483  0.2863 -0.1553  0.0390
    4MOL   H129 1275   5.395   3.879   1.483 -0.0621 -0.0942 -0.3648
    4MOL   H130 1276   5.350   3.892   1.751  0.5804 -0.3993  0.2872
    4MOL   H131 1277   5.220   3.944   1.640 -2.3110 -3.4039 -3.1734
    4MOL   H132 1278   5.128   3.713   1.654 -0.4911 -0.4644  1.4774
    4MOL   H133 1279   5.126   3.812   1.799 -2.9876  0.7692 -2.3236
    4MOL   H134 1280   5.235   3.672   1.790 -1.1558 -0.8339 -0.7025
    4MOL   C135 1281   5.815   3.767   1.635  0.8553 -0.4811 -0.2771
    4MOL   C136 1282   5.958   3.720   1.684  0.1286  0.1081 -0.2272
    4MOL   O137 1283   5.975   3.579   1.671 -0.1248 -0.1585 -0.4031
    4MOL   C138 1284   6.086   3.527   1.738  0.2064  0.3877  0.7741
    4MOL   C139 1285   6.055   3.383   1.784 -0.4427  0.3549  0.6918
    4MOL   C140 1286   6.166   3.315   1.871  0.5077  0.6049 -0.1196
    4MOL   C141 1287   6.281   3.260   1.785 -0.1628 -0.0794  0.4888
    4MOL   H142 1288   5.821   3.876   1.641  1.7434 -0.5256 -0.2986
    4MOL   H143 1289   5.798   3.756   1.528 -0.0651 -0.3004 -0.1560
    4MOL   H144 1290   5.970   3.733   1.791  0.4906 -1.2283 -0.0906
    4MOL   H145 1291   6.123   3.581   1.826  1.7537  0.1407  0.2855
    4MOL   H146 1292   6.171   3.527   1.671 -0.8675  0.4346 -0.6177
    4MOL   H147 1293   6.044   3.324   1.693 -3.2747  0.9480  0.6159
    4MOL   H148 1294   5.960   3.390   1.836  0.1177 -1.1507  1.9799
    4MOL   H149 1295   6.203   3.380   1.951  2.3235  1.1181 -1.3344
    4MOL   H150 1296   6.132   3.225   1.921  1.4193  0.6940  0.6719
    4MOL   H151 1297   6.304   3.349   1.727  2.0801 -0.6591  0.4215
    4MOL   H152 1298   6.365   3.238   1.851  0.4729 -3.1108 -1.2603
    4MOL   H153 1299   6.249   3.171   1.732 -0.0108  0.3604 -0.3480
    4MOL   C154 1300   6.062   3.796   1.608 -0.5337 -0.0135  0.3340
    4MOL   C155 1301   6.102   3.938   1.661 -0.4291  0.1822 -0.3048
    4MOL   O156 1302   6.154   4.014   1.553  0.0821 -0.2849  0.4237
    4MOL   C157 1303   6.055   4.087   1.489 -0.5568 -0.2504  0.0487
    4MOL   C158 1304   6.127   4.153   1.366  0.0092  0.4239 -0.4180
    4MOL   C159 1305   6.039   4.213   1.248 -0.0111  0.1357 -0.5756
    4MOL   C160 1306   5.947   4.329   1.290  0.0403 -0.0935  0.9041
    4MOL   H161 1307   6.031   3.808   1.504  1.5526 -0.2952 -0.3515
    4MOL   H162 1308   6.153   3.739   1.590 -0.6810 -0.1585  0.0294
    4MOL   H163 1309   6.013   3.993   1.691  0.7799  0.9152  2.1091
    4MOL   H164 1310   5.967   4.026   1.472 -0.4430 -0.7381  1.1452
    4MOL   H165 1311   6.018   4.174   1.542 -2.2203 -0.2027 -1.1807
    4MOL   H166 1312   6.183   4.076   1.314 -0.7699  0.0759 -0.7525
    4MOL   H167 1313   6.204   4.218   1.407 -0.0171  0.1701  0.0394
    4MOL   H168 1314   6.114   4.253   1.180  2.3840 -1.1222  1.2397
    4MOL   H169 1315   5.996   4.135   1.184  1.3613  0.0503 -1.4087
    4MOL   H170 1316   5.892   4.367   1.203  0.4016  0.8464  1.0742
    4MOL   H171 1317   5.873   4.282   1.354 -1.3434  1.6769  0.6652
    4MOL   H172 1318   5.995   4.419   1.329 -1.9862  2.1300 -1.4902
    4MOL   C173 1319   6.209   3.939   1.774  0.6833  0.4171  0.6798
    4MOL   C174 1320   6.160   3.925   1.925 -0.2010 -0.2330 -0.2421
    4MOL   O175 1321   6.113   3.792   1.951  0.6522 -0.4130  0.0766
    4MOL   C176 1322   5.999   3.786   2.044 -0.2254  0.1999 -0.5048
    4MOL   C177 1323   5.969   3.637   2.078  0.2877 -0.0718 -0.7613
    4MOL   C178 1324   6.075   3.573   2.163  0.3131  0.1649 -0.5880
    4MOL   C179 1325   6.047   3.426   2.193 -0.1271  1.3699 -0.1054
    4MOL   H180 1326   6.265   4.032   1.765  1.4479 -0.1738 -0.8232
    4MOL   H181 1327   6.285   3.862   1.763  1.6930  1.2653  1.5607
    4MOL   H182 1328   6.073   3.991   1.935 -0.2540 -0.5051  1.1129
    4MOL   H183 1329   5.905   3.829   2.010 -1.4394 -1.3030  0.8568
    4MOL   H184 1330   6.020   3.835   2.139  0.3394  1.3642 -1.2148
    4MOL   H185 1331   5.950   3.584   1.985  1.1068 -1.7454 -0.0006
    4MOL   H186 1332   5.870   3.630   2.123 -0.5060  0.4019 -2.3658
    4MOL   H187 1333   6.176   3.581   2.124  0.2360 -2.3601 -1.3864
    4MOL   H188 1334   6.067   3.631   2.255 -0.5414  0.9199 -1.1318
    4MOL   H189 1335   6.132   3.390   2.251 -0.5458 -0.3403 -0.5341
    4MOL   H190 1336   5.963   3.400   2.257  0.1007 -0.2174 -0.4277
    4MOL   H191 1337   6.038   3.357   2.109 -2.2863 -0.6871  1.7445
    4MOL   C192 1338   6.277   3.955   2.017  0.1789  0.1025 -0.4383
    4MOL   C193 1339   6.331   4.103   2.022 -0.5235  0.4845 -0.2823
    4MOL   O194 1340   6.238   4.192   2.090  0.5670  0.5910  0.2386
    4MOL   C195 1341   6.201   4.315   2.031  0.3267 -0.1041 -0.3869
    4MOL   C196 1342   6.096   4.281   1.924  0.4626  1.2439 -0.4071
    4MOL   C197 1343   6.036   4.409   1.865  0.3316  0.1341 -0.2490
    4MOL   C198 1344   5.892   4.398   1.796  0.1742  0.4799  0.7254
    4MOL   H199 1345   6.359   3.887   1.993 -1.8148 -3.2833  2.0433
    4MOL   H200 1346   6.242   3.923   2.115  2.6418  0.6093  0.6498
    4MOL   H201 1347   6.359   4.134   1.921  1.5902 -1.6761 -0.4076
    4MOL   H202 1348   6.285   4.367   1.987 -0.4286 -0.9547 -2.9059
    4MOL   H203 1349   6.151   4.376   2.106  2.3097  1.2807 -0.1689
    4MOL   H204 1350   6.141   4.235   1.836  0.5923 -0.2379  0.4190
    4MOL   H205 1351   6.022   4.208   1.958  0.2079  1.4598 -0.4946
    4MOL   H206 1352   6.104   4.471   1.807  0.6288 -1.0526 -1.1936
    4MOL   H207 1353   6.012   4.463   1.956  2.3178 -0.4522  0.6461
    4MOL   H208 1354   5.813   4.353   1.857  0.5483 -1.7847 -0.3880
    4MOL   H209 1355   5.869   4.496   1.754  2.4868  0.9862  0.6064
    4MOL   H210 1356   5.906   4.329   1.712  2.3932  1.9429 -0.1467
    4MOL   C211 1357   6.453   4.105   2.118  0.5511  0.1187 -0.5761
    4MOL   C212 1358   6.550   4.216   2.095 -0.4103 -0.2713  0.4684
    4MOL   O213 1359   6.654   4.198   2.196 -0.1738  0.4608 -0.3198
    4MOL   C214 1360   6.686   4.308   2.282 -0.5022 -0.2322 -0.2717
    4MOL   C215 1361   6.792   4.266   2.381 -0.3012  0.8396  0.1567
    4MOL   C216 1362   6.926   4.254   2.299  0.4309  0.5338  0.8374
    4MOL   C217 1363   7.049   4.203   2.377  0.7337 -0.1635  0.1052
    4MOL   H218 1364   6.504   4.009   2.116  1.3436  0.5241 -0.0255
    4MOL   H219 1365   6.407   4.102   2.217 -1.7334  1.3884 -1.5495
    4MOL   H220 1366   6.495   4.309   2.090 -0.0980 -0.0639  0.8997
    4MOL   H221 1367   6.717   4.394   2.222  1.1129 -1.0027 -0.5655
    4MOL   H222 1368   6.587   4.333   2.321  0.1870 -1.4835  2.3805
    4MOL   H223 1369   6.805   4.344   2.456  3.6948  0.8128 -0.4035
    4MOL   H224 1370   6.777   4.180   2.445 -0.6254  1.6122  1.1241
    4MOL   H225 1371   6.946   4.340   2.235  0.9296  1.6299  2.4412
    4MOL   H226 1372   6.902   4.184   2.219 -0.2779  2.4244 -0.6668
    4MOL   H227 1373   7.025   4.144   2.466 -1.2982 -0.4788 -0.6327
    4MOL   H228 1374   7.101   4.284   2.428 -0.2680  0.2316  0.5202
    4MOL   H229 1375   7.122   4.153   2.314  0.0616 -1.5039  0.3728
    4MOL   C230 1376   6.616   4.201   1.957 -0.8634 -0.0929  0.1013
    4MOL   C231 1377   6.684   4.067   1.907  0.2543  0.7497  0.4129
    4MOL   O232 1378   6.586   3.959   1.901 -0.3324  0.2215  0.0886
    4MOL   C233 1379   6.635   3.828   1.924 -0.3836 -0.3229  0.4729
    4MOL   C234 1380   6.536   3.718   1.891 -0.2108  0.4647 -0.2967
    4MOL   C235 1381   6.613   3.589   1.877 -0.7882 -0.0074  0.0827
    4MOL   C236 1382   6.530   3.463   1.840  0.6825  0.2726 -0.1726
    4MOL   H237 1383   6.680   4.288   1.947  0.4610 -1.2043 -1.2682
    4MOL   H238 1384   6.538   4.222   1.884  0.5079  1.0984 -1.0444
    4MOL   H239 1385   6.754   4.049   1.989  0.3506  1.3184  0.4594
    4MOL   H240 1386   6.728   3.811   1.870  0.4080 -0.8236  1.9415
    4MOL   H241 1387   6.667   3.813   2.027 -3.5770  0.8975  1.7000
    4MOL   H242 1388   6.461   3.698   1.967  0.0709 -0.1591 -0.1849
    4MOL   H243 1389   6.479   3.744   1.802 -2.1565 -1.7424  0.2694
    4MOL   H244 1390   6.671   3.581   1.969 -1.2361 -0.7397  0.3024
    4MOL   H245 1391   6.690   3.600   1.801  0.4703 -1.7654  1.0673
    4MOL   H246 1392   6.595   3.377   1.822 -1.8593 -1.8478  0.3806
    4MOL   H247 1393   6.482   3.484   1.744 -0.1105 -1.7576 -0.2640
    4MOL   H248 1394   6.457   3.439   1.917  1.3507  0.2348  0.4486
    4MOL   C249 1395   6.756   4.082   1.773 -1.0463 -0.4753 -0.3254
    4MOL   C250 1396   6.874   4.185   1.777  1.1534  0.6663  0.2604
    4MOL   O251 1397   6.912   4.207   1.642 -0.1440 -0.0514  0.2970
    4MOL   C252 1398   6.906   4.342   1.602  0.0336  0.1517  0.5641
    4MOL   C253 1399   6.975   4.343   1.465 -0.7746 -0.2760 -0.5082
    4MOL   C254 1400   7.123   4.320   1.476 -0.6881  0.2967 -0.1659
    4MOL   C255 1401   7.189   4.288   1.341  0.7606 -0.5862 -0.6965
    4MOL   H256 1402   6.687   4.130   1.703  1.1309  1.8780 -0.9259
    4MOL   H257 1403   6.787   3.984   1.738 -2.3174 -1.7704  2.0032
    4MOL   H258 1404   6.850   4.281   1.822 -0.1702  0.7502 -0.5888
    4MOL   H259 1405   6.955   4.402   1.679  2.2456  0.3543 -0.9594
    4MOL   H260 1406   6.801   4.372   1.612  0.3775  1.2247  1.0568
    4MOL   H261 1407   6.919   4.270   1.407 -4.5445  0.2788  2.2743
    4MOL   H262 1408   6.956   4.433   1.407  2.6740  0.5847 -0.4430
    4MOL   H263 1409   7.174   4.395   1.537 -2.5327 -0.4123  2.3532
    4MOL   H264 1410   7.146   4.231   1.536  0.4866  0.2587 -0.6601
    4MOL   H265 1411   7.297   4.281   1.348  0.9435  1.4359 -1.0718
    4MOL   H266 1412   7.178   4.377   1.279 -0.7395 -0.4751 -0.2970
    4MOL   H267 1413   7.139   4.199   1.304 -0.3158 -0.4188  0.3103
    4MOL   C268 1414   6.999   4.118   1.842 -0.5685 -0.5398  0.0195
    4MOL   C269 1415   7.118   4.215   1.870  0.3242  0.0445  0.0013
    4MOL   O270 1416   7.074   4.307   1.972 -0.0335  0.1397  0.4846
    4MOL   C271 1417   7.099   4.447   1.943 -0.1036  0.1523  0.3789
    4MOL   C272 1418   7.031   4.541   2.038  0.0836 -0.9514  0.7370
    4MOL   C273 1419   6.878   4.555   2.020 -0.5699 -0.2229 -0.0721
    4MOL   C274 1420   6.805   4.649   2.123 -0.1812 -0.4520 -0.3271
    4MOL   H275 1421   6.982   4.043   1.919  1.0293 -0.5461  0.3828
    4MOL   H276 1422   7.045   4.056   1.765  1.3887  0.8859 -0.0090
    4MOL   H277 1423   7.135   4.270   1.777  0.4189  0.0191  0.0037
    4MOL   H278 1424   7.204   4.467   1.921 -0.4684 -0.1402 -1.6806
    4MOL   H279 1425   7.062   4.481   1.847  2.5523 -0.6191 -0.9630
    4MOL   H280 1426   7.054   4.510   2.140 -0.9098 -1.6386  0.7568
    4MOL   H281 1427   7.070   4.641   2.019 -1.3394 -0.6507 -0.7041
    4MOL   H282 1428   6.832   4.457   2.027 -3.3059  1.0938  0.9335
    4MOL   H283 1429   6.863   4.581   1.916 -1.5290  0.9826  0.3485
    4MOL   H284 1430   6.696   4.646   2.118 -0.4303 -0.4066  3.6448
    4MOL   H285 1431   6.821   4.753   2.092 -2.7709  0.4323  1.1187
    4MOL   H286 1432   6.837   4.634   2.226 -0.5390  0.0615 -0.1362
    4MOL   C287 1433   7.250   4.147   1.905  0.1422  0.1587 -0.1739
    4MOL   C288 1434   7.328   4.067   1.787 -0.3723 -0.0595  0.0200
    4MOL   O289 1435   7.252   3.948   1.764  0.4421  0.0984  0.1159
    4MOL   C290 1436   7.231   3.919   1.626 -1.1192 -0.2330 -0.0079
    4MOL   C291 1437   7.176   3.773   1.613  0.5436 -0.4228 -0.0403
    4MOL   C292 1438   7.279   3.670   1.648  0.0974 -0.6239  0.4568
    4MOL   C293 1439   7.227   3.526   1.610 -0.8054 -0.2946 -0.1695
    4MOL   H294 1440   7.231   4.074   1.984  1.9323  0.5334  0.6296
    4MOL   H295 1441   7.326   4.216   1.942 -0.9288  0.0573  2.2993
    4MOL   H296 1442   7.336   4.134   1.701 -0.8856  1.1311  0.8764
    4MOL   H297 1443   7.183   3.996   1.566  2.0476  3.0430  1.4480
    4MOL   H298 1444   7.329   3.922   1.578 -1.7022 -2.6290 -1.4163
    4MOL   H299 1445   7.119   3.758   1.521 -0.5084 -1.4165  0.7627
    4MOL   H300 1446   7.091   3.762   1.680  1.3671  0.3994  1.1397
    4MOL   H301 1447   7.305   3.681   1.753  0.5727  2.1038  0.1156
    4MOL   H302 1448   7.379   3.694   1.614  0.5733  0.0806  2.2836
    4MOL   H303 1449   7.293   3.440   1.619 -1.4136 -0.8012 -0.5251
    4MOL   H304 1450   7.142   3.494   1.671 -1.0223  1.6089  0.5576
    4MOL   H305 1451   7.199   3.531   1.504 -2.7094  0.3097  0.3312
    4MOL   C306 1452   7.458   4.001   1.831 -0.4678 -0.5468 -0.3449
    4MOL   C307 1453   7.572   4.102   1.854 -0.1518  0.3988  0.6917
    4MOL   O308 1454   7.585   4.184   1.740  0.2067 -0.2368  0.4575
    4MOL   C309 1455   7.589   4.322   1.779  0.4465 -0.0606  0.7815
    4MOL   C310 1456   7.563   4.400   1.649 -0.4849 -0.6518 -0.4500
    4MOL   C311 1457   7.550   4.555   1.660 -0.8296 -0.7043  0.4928
    4MOL   C312 1458   7.515   4.625   1.527  0.8877  0.2168 -0.4877
    4MOL   H313 1459   7.457   3.919   1.902  2.0197 -1.0188 -0.7905
    4MOL   H314 1460   7.492   3.939   1.748 -0.0215 -0.6182 -0.1122
    4MOL   H315 1461   7.551   4.156   1.946 -0.5007 -0.5870  1.1910
    4MOL   H316 1462   7.683   4.343   1.830  0.7709 -1.6736  0.8701
    4MOL   H317 1463   7.501   4.342   1.840 -0.1275  2.0729 -0.6854
    4MOL   H318 1464   7.472   4.366   1.600 -0.9695 -0.3420  0.2223
    4MOL   H319 1465   7.648   4.388   1.581  1.0652 -0.7520  1.4436
    4MOL   H320 1466   7.481   4.576   1.742 -0.4639  0.3324  0.5377
    4MOL   H321 1467   7.640   4.604   1.695 -1.1848 -0.9685  1.7950
    4MOL   H322 1468   7.438   4.565   1.478  1.0302 -0.3582 -0.0198
    4MOL   H323 1469   7.602   4.638   1.463  2.5250  1.2697  1.8719
    4MOL   H324 1470   7.462   4.720   1.531 -0.1588 -0.2521 -2.3649
    4MOL   C325 1471   7.708   4.040   1.890 -0.0593  0.0857  0.2740
    4MOL   C326 1472   7.729   3.970   2.023  0.4876 -0.4240 -0.0838
    4MOL   O327 1473   0.059   3.915   2.023 -0.0236 -0.3035  0.1546
    4MOL   C328 1474   0.080   3.793   1.954 -0.6093 -0.0664  0.1745
    4MOL   C329 1475   0.204   3.719   2.016 -0.4118 -0.6036 -0.3445
    4MOL   C330 1476   0.196   3.667   2.160 -1.3637  0.4945  0.3058
    4MOL   C331 1477   0.327   3.603   2.207  0.4816 -0.2281  0.0275
    4MOL   H332 1478   7.775   4.126   1.887  1.7719 -1.2981  1.1350
    4MOL   H333 1479   7.733   3.982   1.802 -0.1841  1.4646 -0.6947
    4MOL   H334 1480   7.654   3.890   2.029  0.5719 -0.3100  4.0795
    4MOL   H335 1481   0.104   3.815   1.850 -0.6280  1.0553  0.4017
    4MOL   H336 1482   7.793   3.729   1.951  1.4632 -3.2018  2.6276
    4MOL   H337 1483   0.227   3.628   1.959 -0.5120 -0.4875 -0.5695
    4MOL   H338 1484   0.289   3.780   1.987 -0.3049 -1.0996 -1.1016
    4MOL   H339 1485   0.118   3.591   2.152 -1.5857  0.7574 -0.0470
    4MOL   H340 1486   0.165   3.749   2.226  0.4803  2.1686 -0.8439
    4MOL   H341 1487   0.399   3.682   2.229  2.4630 -2.2622  0.9978
    4MOL   H342 1488   0.351   3.522   2.139 -1.6722 -1.9434  1.2435
    4MOL   H343 1489   0.325   3.541   2.296  0.1572 -0.5082 -0.1740
    4MOL   C344 1490   7.726   4.070   2.136  0.0413  0.2628 -0.1806
    4MOL   C345 1491   7.591   4.084   2.217 -0.2284 -0.4029  0.0609
    4MOL   O346 1492   7.582   4.223   2.249  0.2460 -0.0192  0.0790
    4MOL   C347 1493   7.456   4.280   2.219  0.3391  0.2392 -0.8954
    4MOL   C348 1494   7.471   4.418   2.278 -0.0854  0.8582  1.1657
    4MOL   C349 1495   7.335   4.494   2.298  0.1827 -0.1341  0.4449
    4MOL   C350 1496   7.358   4.618   2.387 -0.0816  0.1014  0.6786
    4MOL   H351 1497   0.009   4.057   2.204 -1.4621 -0.9527  1.5175
    4MOL   H352 1498   7.733   4.169   2.091 -1.1487  1.0025  1.2401
    4MOL   H353 1499   7.517   4.056   2.143  1.7588 -2.7479 -1.0971
    4MOL   H354 1500   7.381   4.229   2.279  1.6809 -0.1214  0.5012
    4MOL   H355 1501   7.442   4.283   2.111 -2.6216 -0.6405 -0.5817
    4MOL   H356 1502   7.533   4.487   2.223 -0.2601  2.6358  3.1477
    4MOL   H357 1503   7.512   4.418   2.379  0.3743 -2.7423  1.0685
    4MOL   H358 1504   7.295   4.521   2.200  0.8050 -0.7061  0.0308
    4MOL   H359 1505   7.255   4.435   2.343 -0.5863 -0.4251 -1.2530
    4MOL   H360 1506   7.332   4.595   2.490 -0.0798 -1.7205  0.2927
    4MOL   H361 1507   7.302   4.702   2.345  3.8903  2.7523  0.4895
    4MOL   H362 1508   7.460   4.655   2.383  0.0599 -0.3560 -0.1112
    4MOL   C363 1509   7.589   3.994   2.341  0.7500  0.4355  0.1778
    4MOL   C364 1510   7.447   3.959   2.394  0.3906 -0.2455  0.2540
    4MOL   O365 1511   7.460   3.843   2.471 -0.3221 -0.2008  0.1237
    4MOL   C366 1512   7.355   3.818   2.557 -0.3422  0.6581  0.3991
    4MOL   C367 1513   7.383   3.673   2.617 -0.1625 -0.3941  0.5602
    4MOL   C368 1514   7.525   3.651   2.669  0.8062 -0.1345  0.1903
    4MOL   C369 1515   7.532   3.516   2.740 -0.0930 -0.7446  0.3168
    4MOL   H370 1516   7.646   4.031   2.426  1.0745 -1.1899  0.6984
    4MOL   H371 1517   7.630   3.900   2.303 -1.6827 -0.3760 -0.5446
    4MOL   H372 1518   7.377   3.935   2.314  0.1503  0.4501  0.2528
    4MOL   H373 1519   7.263   3.803   2.499 -1.0572  0.9411  1.4401
    4MOL   H374 1520   7.329   3.892   2.633 -0.4962 -0.9281  1.9267
    4MOL   H375 1521   7.355   3.596   2.545 -0.1509  0.2897 -0.1897
    4MOL   H376 1522   7.310   3.670   2.698  0.4623 -1.9944  1.0911
    4MOL   H377 1523   7.551   3.730   2.740 -1.4476  0.2713  0.5951
    4MOL   H378 1524   7.597   3.664   2.587  0.1187  1.0152 -0.2336
    4MOL   H379 1525   7.622   3.499   2.799  0.1099 -3.0301 -0.6075
    4MOL   H380 1526   7.446   3.497   2.803 -0.3329  0.3540  0.3380
    4MOL   H381 1527   7.543   3.435   2.668  2.5449 -0.2448  0.1075
    4MOL   H382 1528   7.400   4.035   2.457  1.3646  0.2277  0.4283
    5MOL     C1 1529   2.328   4.536   4.758 -0.8467 -0.6163  0.0328
    5MOL     C2 1530   2.380   4.652   4.683 -0.9282  0.1063  0.4439
    5MOL     O3 1531   2.316   4.671   4.551 -0.2014 -0.5779  0.1507
    5MOL     C4 1532   2.395   4.750   4.461  0.4425  0.7392  0.7253
    5MOL     C5 1533   2.332   4.721   4.327 -0.6116 -0.8359  0.6604
    5MOL     C6 1534   2.323   4.574   4.277 -0.1368 -0.8244 -0.3957
    5MOL     C7 1535   2.458   4.503   4.291  0.4929 -0.1092 -0.5065
    5MOL     H8 1536   2.339   4.446   4.698  0.3570 -0.9758  0.7772
    5MOL     H9 1537   2.368   4.528   4.859 -1.0797 -0.7565  0.1130
    5MOL    H10 1538   2.485   4.638   4.658 -1.3980 -0.6058 -1.1892
    5MOL    H11 1539   2.398   4.857   4.482 -0.0037  0.3465  2.9078
    5MOL    H12 1540   2.501   4.725   4.470  0.4891  0.4931 -0.3500
    5MOL    H13 1541   2.386   4.783   4.255  0.4534 -0.1869  1.9797
    5MOL    H14 1542   2.230   4.760   4.333  0.0663  1.4422 -1.7878
    5MOL    H15 1543   2.290   4.584   4.173 -1.5451 -0.0721  0.1086
    5MOL    H16 1544   2.244   4.519   4.330  1.3007 -1.9204  0.6489
    5MOL    H17 1545   2.472   4.405   4.244  1.5669 -0.8209  1.2817
    5MOL    H18 1546   2.477   4.511   4.398  1.0158  1.6493 -0.7096
    5MOL    H19 1547   2.534   4.568   4.246  0.3773 -0.8310 -1.7852
    5MOL    H20 1548   2.222   4.554   4.773 -1.2994 -2.7801 -0.4971
    5MOL    C21 1549   2.368   4.778   4.768  0.2515 -0.3104 -0.4591
    5MOL    C22 1550   2.506   4.815   4.836  0.1337  0.0629  0.5563
    5MOL    O23 1551   2.471   4.927   4.918  0.1789 -0.1331  0.6176
    5MOL    C24 1552   2.526   5.056   4.889  0.1316  0.7187 -0.5843
    5MOL    C25 1553   2.453   5.154   4.979  0.9040  0.9185 -0.6130
    5MOL    C26 1554   2.306   5.156   4.943 -0.2942  0.0065  0.0594
    5MOL    C27 1555   2.236   5.250   5.043 -0.1910 -0.1287 -0.1472
    5MOL    H28 1556   2.299   4.771   4.852  3.3446  0.3168  2.2506
    5MOL    H29 1557   2.331   4.863   4.711  2.7965  1.7972  0.9078
    5MOL    H30 1558   2.575   4.838   4.755 -0.3771  0.7280  0.3118
    5MOL    H31 1559   2.511   5.085   4.785 -0.5469  2.4267 -0.0304
    5MOL    H32 1560   2.632   5.049   4.916 -0.4680 -2.1041  1.3241
    5MOL    H33 1561   2.475   5.118   5.080 -1.1008 -1.9623 -1.1409
    5MOL    H34 1562   2.495   5.254   4.974  1.1770  0.9109  1.2153
    5MOL    H35 1563   2.287   5.184   4.840  0.1613 -2.6681 -0.7821
    5MOL    H36 1564   2.263   5.057   4.953 -1.5689  0.1940 -3.0861
    5MOL    H37 1565   2.138   5.281   5.007 -0.0386 -1.3835 -1.6674
    5MOL    H38 1566   2.219   5.211   5.144  0.3587  0.6918  0.2722
    5MOL    H39 1567   2.294   5.342   5.051 -0.9814  0.3600 -0.0045
    5MOL    C40 1568   2.563   4.714   4.928 -0.1918 -0.0816 -0.4892
    5MOL    C41 1569   2.704   4.737   4.987 -0.1925  0.4674 -0.1679
    5MOL    O42 1570   2.757   4.615   5.017 -0.1446  0.3281  0.3735
    5MOL    C43 1571   2.838   4.547   4.922  0.5489 -0.3570 -0.1549
    5MOL    C44 1572   2.847   4.404   4.971 -0.3160  0.2485 -0.2576
    5MOL    C45 1573   2.706   4.337   4.946  0.8619 -0.2975  0.0280
    5MOL    C46 1574   2.685   4.291   4.801 -0.2325  0.4343 -0.0542
    5MOL    H47 1575   2.569   4.618   4.878 -0.4048 -0.2338 -0.2245
    5MOL    H48 1576   2.488   4.692   5.004 -0.0969  2.6437  0.4426
    5MOL    H49 1577   2.761   4.800   4.919 -1.6384 -0.2372 -2.0819
    5MOL    H50 1578   2.937   4.592   4.914  1.1448 -1.7668 -0.9833
    5MOL    H51 1579   2.799   4.541   4.820 -1.7546 -0.5487  0.6973
    5MOL    H52 1580   2.866   4.406   5.078 -1.9997 -1.2290  0.1041
    5MOL    H53 1581   2.921   4.350   4.912 -0.7496  0.6871 -1.2258
    5MOL    H54 1582   2.627   4.408   4.971  1.5486  0.4621  0.0409
    5MOL    H55 1583   2.695   4.250   5.011 -0.4628  1.6562  2.5164
    5MOL    H56 1584   2.639   4.368   4.739  3.6667  0.6281 -2.8863
    5MOL    H57 1585   2.773   4.248   4.754 -0.3144  0.7552 -0.5111
    5MOL    H58 1586   2.624   4.201   4.794  0.7551 -0.1405 -1.5228
    5MOL    C59 1587   2.703   4.811   5.122 -0.4675 -0.5835  0.4222
    5MOL    C60 1588   2.849   4.846   5.163  0.0398 -0.0346 -1.2434
    5MOL    O61 1589   2.906   4.954   5.087 -0.0684  0.3651  0.0028
    5MOL    C62 1590   3.049   4.976   5.061 -0.5025 -0.0868  0.2965
    5MOL    C63 1591   3.030   5.115   4.990  0.3245  0.3191 -0.2889
    5MOL    C64 1592   3.005   5.084   4.842  0.2732 -0.3773 -0.3468
    5MOL    C65 1593   2.978   5.215   4.766 -0.0606  0.5462  0.4071
    5MOL    H66 1594   2.653   4.907   5.105  1.7091  0.3039 -1.2201
    5MOL    H67 1595   2.646   4.749   5.191  0.1416 -1.6640 -0.0381
    5MOL    H68 1596   2.920   4.764   5.156  0.9431  0.5543  0.4100
    5MOL    H69 1597   3.080   4.898   4.992  1.1897  0.8913 -0.0552
    5MOL    H70 1598   3.108   4.972   5.153  1.5731 -0.9564 -1.0632
    5MOL    H71 1599   2.950   5.176   5.031 -0.9910 -1.3532 -0.3214
    5MOL    H72 1600   3.122   5.172   5.005 -0.7417  1.6207  1.3763
    5MOL    H73 1601   3.096   5.039   4.801  1.7061  1.9210  0.1738
    5MOL    H74 1602   2.921   5.016   4.838  0.9310 -1.0964 -3.1401
    5MOL    H75 1603   2.923   5.182   4.678  0.8103 -1.6837  0.6582
    5MOL    H76 1604   2.907   5.276   4.822  1.0693  2.7775 -0.5294
    5MOL    H77 1605   3.068   5.269   4.739 -1.2135  3.0116  1.3927
    5MOL    C78 1606   2.841   4.897   5.313  0.5182 -0.8726 -0.3789
    5MOL    C79 1607   2.802   4.782   5.411  0.4094 -0.1573 -0.0225
    5MOL    O80 1608   2.803   4.832   5.543  0.9877  0.0950 -0.3211
    5MOL    C81 1609   2.699   4.917   5.583  0.0104 -0.5419 -1.2674
    5MOL    C82 1610   2.713   4.953   5.733 -0.0840  0.4174 -0.4365
    5MOL    C83 1611   2.815   5.067   5.763  0.7282 -0.4592 -0.5263
    5MOL    C84 1612   2.960   5.018   5.752 -0.7847  0.4526  0.1385
    5MOL    H85 1613   2.770   4.979   5.314  1.4486 -0.0574 -0.8985
    5MOL    H86 1614   2.941   4.935   5.332 -0.6893  2.1838  0.1184
    5MOL    H87 1615   2.698   4.752   5.397  0.8367 -0.7775 -1.8993
    5MOL    H88 1616   2.608   4.858   5.584  0.8320 -1.8357 -1.1722
    5MOL    H89 1617   2.692   5.001   5.514  0.0332  0.0060 -0.5979
    5MOL    H90 1618   2.623   4.986   5.784 -0.1572  0.5236 -0.6328
    5MOL    H91 1619   2.744   4.863   5.785 -0.0849  0.1752 -0.8488
    5MOL    H92 1620   2.801   5.097   5.867 -2.9837 -2.0231 -0.4891
    5MOL    H93 1621   2.798   5.148   5.693 -2.4225 -1.2828 -0.7750
    5MOL    H94 1622   3.013   5.029   5.657  2.1930 -3.3797  1.2679
    5MOL    H95 1623   3.012   5.088   5.817 -0.4286  2.1018 -1.8322
    5MOL    H96 1624   2.965   4.917   5.791  1.8810  1.1055  1.5610
    5MOL    C97 1625   2.893   4.660   5.412 -0.2508 -0.0470 -0.2103
    5MOL    C98 1626   2.827   4.549   5.495 -0.1078 -0.9843  0.3238
    5MOL    O99 1627   2.728   4.493   5.407  0.4347 -0.5576 -0.1503
    5MOL   C100 1628   2.612   4.447   5.473  0.0165  0.1923 -0.7308
    5MOL   C101 1629   2.511   4.385   5.374  0.0767 -0.6310  0.0778
    5MOL   C102 1630   2.463   4.489   5.275 -0.4028 -0.4311  0.0989
    5MOL   C103 1631   2.375   4.420   5.171  0.2541  0.4709  0.5772
    5MOL   H104 1632   2.985   4.672   5.470 -0.9716 -0.4738  1.0558
    5MOL   H105 1633   2.904   4.622   5.311  3.6150  0.8182 -0.1832
    5MOL   H106 1634   2.792   4.592   5.589 -0.3229  0.7318 -0.5196
    5MOL   H107 1635   2.561   4.525   5.530 -1.2103 -0.2581 -1.2099
    5MOL   H108 1636   2.619   4.373   5.553 -0.2393 -0.3195 -1.1811
    5MOL   H109 1637   2.427   4.340   5.426 -1.8411  1.0942 -1.4117
    5MOL   H110 1638   2.548   4.297   5.322  0.2353 -1.5119  1.6665
    5MOL   H111 1639   2.551   4.539   5.235 -0.0286 -2.4084 -1.6323
    5MOL   H112 1640   2.403   4.562   5.330  0.3185  0.8391 -0.7833
    5MOL   H113 1641   2.294   4.369   5.222 -0.6660 -1.1658 -2.3957
    5MOL   H114 1642   2.343   4.494   5.097 -0.1077 -0.4631 -0.2233
    5MOL   H115 1643   2.424   4.344   5.109 -1.3200 -1.2400  1.3819
    5MOL   C116 1644   2.918   4.430   5.534 -0.1310  0.0561  0.3880
    5MOL   C117 1645   3.019   4.457   5.643 -0.5638 -0.2699 -0.7515
    5MOL   O118 1646   2.946   4.453   5.761  0.2229 -0.1558 -0.5298
    5MOL   C119 1647   2.980   4.549   5.863 -0.1060  0.8490  0.0106
    5MOL   C120 1648   2.922   4.504   6.003  0.4694 -0.0178 -0.0517
    5MOL   C121 1649   2.771   4.497   6.000  0.0095  0.1103  0.2310
    5MOL   C122 1650   2.704   4.447   6.126 -0.0860  0.1639 -0.1368
    5MOL   H123 1651   2.857   4.345   5.564 -1.4217  0.8348  0.0170
    5MOL   H124 1652   2.960   4.402   5.438 -2.2296  1.2269 -0.9080
    5MOL   H125 1653   3.070   4.553   5.632 -1.1671  0.5781  3.2149
    5MOL   H126 1654   2.941   4.647   5.836 -1.4095  1.0646  2.4999
    5MOL   H127 1655   3.089   4.548   5.861 -0.1243 -0.2255 -1.5769
    5MOL   H128 1656   2.952   4.572   6.083 -2.7469  0.9734  0.3757
    5MOL   H129 1657   2.972   4.411   6.031  0.4307  0.1261  0.5119
    5MOL   H130 1658   2.734   4.598   5.982  2.0325  0.6733 -0.9323
    5MOL   H131 1659   2.738   4.437   5.915 -0.2886 -0.3099  0.6448
    5MOL   H132 1660   2.601   4.425   6.100  0.3741 -1.4845 -0.6161
    5MOL   H133 1661   2.707   4.513   6.213  0.4325  0.7081 -0.5551
    5MOL   H134 1662   2.754   4.353   6.149 -0.7135 -0.1666 -0.1260
    5MOL   C135 1663   3.128   4.357   5.650  0.0915 -0.4804  0.4667
    5MOL   C136 1664   3.261   4.401   5.566  0.0744  0.8662 -0.1933
    5MOL   O137 1665   3.215   4.455   5.446 -0.3740 -0.2478  0.0984
    5MOL   C138 1666   3.214   4.361   5.333  0.6740  0.0122  0.6536
    5MOL   C139 1667   3.173   4.429   5.199 -0.3096  0.1455  0.2490
    5MOL   C140 1668   3.280   4.513   5.132  0.9516 -0.6395 -0.0567
    5MOL   C141 1669   3.233   4.594   5.010 -0.7216  0.2311 -0.1541
    5MOL   H142 1670   3.088   4.260   5.621  1.9985 -1.3536  0.7049
    5MOL   H143 1671   3.152   4.332   5.753 -0.3987  0.0625  0.7186
    5MOL   H144 1672   3.309   4.303   5.556  1.0553  1.4141 -0.9771
    5MOL   H145 1673   3.145   4.284   5.366  0.3299 -0.8702 -2.0199
    5MOL   H146 1674   3.311   4.312   5.330  0.9813  0.4856  2.2818
    5MOL   H147 1675   3.081   4.487   5.215  0.4138  1.8152 -1.4224
    5MOL   H148 1676   3.143   4.352   5.128 -1.0896  0.8689 -0.2238
    5MOL   H149 1677   3.311   4.580   5.212  0.5141  0.5602 -0.8720
    5MOL   H150 1678   3.362   4.447   5.104  0.5388 -0.6670 -1.2072
    5MOL   H151 1679   3.303   4.675   4.989  0.7772 -1.0975 -0.3988
    5MOL   H152 1680   3.210   4.542   4.917 -0.7479  0.9249 -0.5445
    5MOL   H153 1681   3.139   4.648   5.026 -0.0085  1.7762 -0.9877
    5MOL   C154 1682   3.364   4.492   5.641 -0.2573 -0.2544 -0.4089
    5MOL   C155 1683   3.506   4.483   5.573 -0.3463  0.1801  0.3121
    5MOL   O156 1684   3.549   4.347   5.571  0.7520  0.1559  0.2939
    5MOL   C157 1685   3.618   4.291   5.454 -0.1341  0.5434 -0.2970
    5MOL   C158 1686   3.571   4.145   5.427  0.5742 -0.5776 -0.6279
    5MOL   C159 1687   3.637   4.042   5.518 -0.2684  0.7325 -0.6352
    5MOL   C160 1688   3.776   3.994   5.477  0.2330  0.2176  0.0886
    5MOL   H161 1689   3.369   4.442   5.738 -3.6993 -1.6219 -0.8837
    5MOL   H162 1690   3.337   4.594   5.666 -0.6019 -0.1843 -1.0514
    5MOL   H163 1691   3.491   4.530   5.476  0.0374 -0.7416 -0.1980
    5MOL   H164 1692   3.601   4.359   5.370 -0.1474  0.7959 -0.0898
    5MOL   H165 1693   3.727   4.292   5.454 -0.1106 -1.3436  1.1498
    5MOL   H166 1694   3.591   4.117   5.324 -2.5032 -0.3436 -1.3425
    5MOL   H167 1695   3.462   4.144   5.439  0.7210  1.2740  1.1543
    5MOL   H168 1696   3.653   4.089   5.615  0.5401  1.0545 -0.9211
    5MOL   H169 1697   3.564   3.965   5.542 -1.2216  2.2154  1.4153
    5MOL   H170 1698   3.852   4.069   5.498  0.4479 -0.0452  0.2592
    5MOL   H171 1699   3.797   3.902   5.533  1.6919  1.1744  1.1467
    5MOL   H172 1700   3.766   3.965   5.372 -1.8998  1.0218  0.0296
    5MOL   C173 1701   3.598   4.567   5.657 -0.7328  1.1796  0.2722
    5MOL   C174 1702   3.741   4.584   5.604 -0.0953 -0.1049 -0.3405
    5MOL   O175 1703   3.729   4.662   5.486  0.5184 -0.1850 -0.2322
    5MOL   C176 1704   3.807   4.624   5.374  0.0686  0.1921 -0.2105
    5MOL   C177 1705   3.808   4.725   5.269  0.3811 -0.3908  0.3467
    5MOL   C178 1706   3.914   4.699   5.160 -0.7181  0.0310  0.3283
    5MOL   C179 1707   3.873   4.762   5.029  0.5107  0.0669 -0.7369
    5MOL   H180 1708   3.602   4.520   5.755 -1.8997 -1.0659 -0.7110
    5MOL   H181 1709   3.541   4.659   5.671  0.3913  1.6748  1.6993
    5MOL   H182 1710   3.778   4.483   5.587 -0.5618 -0.1127 -1.3433
    5MOL   H183 1711   3.776   4.523   5.347  0.0907  0.4315 -1.1515
    5MOL   H184 1712   3.912   4.627   5.401 -0.0913 -1.6153  0.6785
    5MOL   H185 1713   3.819   4.822   5.317 -1.1342 -0.7243  1.4071
    5MOL   H186 1714   3.707   4.738   5.231  0.4518  2.5874  1.0413
    5MOL   H187 1715   4.009   4.738   5.199 -1.0067  2.3258 -1.1252
    5MOL   H188 1716   3.923   4.593   5.137 -1.5730 -0.1340  0.7516
    5MOL   H189 1717   3.780   4.717   4.995  1.4504 -1.5649 -1.2346
    5MOL   H190 1718   3.869   4.870   5.038 -0.3484 -0.1670  1.8419
    5MOL   H191 1719   3.951   4.743   4.954  0.4293  0.9685 -1.0543
    5MOL   C192 1720   3.838   4.642   5.709 -0.3573 -0.0835 -0.1041
    5MOL   C193 1721   3.807   4.780   5.769 -0.0847 -0.2850 -0.5712
    5MOL   O194 1722   3.837   4.793   5.909  0.2611  0.0220 -0.5563
    5MOL   C195 1723   3.744   4.750   6.005  0.2292 -0.0935 -0.7715
    5MOL   C196 1724   3.793   4.798   6.138 -0.0719 -0.7706  0.0148
    5MOL   C197 1725   3.695   4.771   6.251 -0.0504 -0.3083 -0.5059
    5MOL   C198 1726   3.730   4.840   6.382 -0.0115 -0.2314  0.1027
    5MOL   H199 1727   3.938   4.643   5.667 -0.0903 -0.4057  0.5255
    5MOL   H200 1728   3.840   4.575   5.795 -1.5560  0.6702  0.5326
    5MOL   H201 1729   3.700   4.790   5.757 -0.5052 -0.2464  2.6072
    5MOL   H202 1730   3.743   4.641   5.997 -1.7521 -0.0958 -0.8365
    5MOL   H203 1731   3.647   4.794   5.979  0.3155 -0.6411 -2.0364
    5MOL   H204 1732   3.887   4.748   6.162  0.3628  0.9497  2.0963
    5MOL   H205 1733   3.811   4.905   6.138 -1.8587 -0.3762  3.6242
    5MOL   H206 1734   3.672   4.667   6.276  0.8512  0.1461  2.3484
    5MOL   H207 1735   3.596   4.811   6.227  0.8469  3.5491  1.8978
    5MOL   H208 1736   3.809   4.788   6.437 -0.2216 -0.4112  0.2353
    5MOL   H209 1737   3.759   4.944   6.366 -4.5297  1.0425 -0.4023
    5MOL   H210 1738   3.644   4.832   6.448 -0.1090 -3.3687 -0.3161
    5MOL   C211 1739   3.889   4.887   5.695  0.0418  0.5438  0.4444
    5MOL   C212 1740   3.845   5.033   5.715  0.3718 -0.0160  0.0044
    5MOL   O213 1741   3.954   5.122   5.687  0.2673 -0.1693  0.3135
    5MOL   C214 1742   4.060   5.123   5.778  0.1136 -0.6438  0.0914
    5MOL   C215 1743   4.116   5.266   5.772 -0.0635 -0.7419 -0.3622
    5MOL   C216 1744   4.054   5.374   5.865 -0.4118  0.0102 -0.4525
    5MOL   C217 1745   4.028   5.348   6.016 -0.4008 -0.2803  0.0667
    5MOL   H218 1746   3.900   4.865   5.589 -1.2734 -2.0477  0.8064
    5MOL   H219 1747   3.992   4.868   5.725 -0.5986 -2.0912  1.0596
    5MOL   H220 1748   3.817   5.042   5.820  0.5744  2.0955 -0.1168
    5MOL   H221 1749   4.025   5.107   5.880 -0.1650  0.9083  0.2591
    5MOL   H222 1750   4.134   5.051   5.744  1.3779  0.1322  1.1745
    5MOL   H223 1751   4.222   5.271   5.797 -0.8647  0.5419  3.0817
    5MOL   H224 1752   4.117   5.308   5.672 -1.3824 -0.1181 -0.1260
    5MOL   H225 1753   3.959   5.409   5.825 -1.4554 -0.1833  1.7623
    5MOL   H226 1754   4.115   5.464   5.864  1.4694 -1.2410  0.0520
    5MOL   H227 1755   3.973   5.431   6.060 -2.8050 -1.2504 -0.9884
    5MOL   H228 1756   4.122   5.335   6.068  0.0888  0.4055 -0.6412
    5MOL   H229 1757   3.974   5.254   6.032 -0.2198 -0.2615  0.7648
    5MOL   C230 1758   3.724   5.070   5.632 -0.1586 -0.3315  0.1934
    5MOL   C231 1759   3.659   5.200   5.672  0.4096 -0.2086 -0.6810
    5MOL   O232 1760   3.599   5.244   5.553 -0.1491 -0.1756  0.0970
    5MOL   C233 1761   3.628   5.383   5.520  0.5160 -0.2401  0.9133
    5MOL   C234 1762   3.526   5.436   5.421 -0.3688 -0.0437  0.5348
    5MOL   C235 1763   3.540   5.361   5.283 -0.5847  0.2105 -0.5314
    5MOL   C236 1764   3.472   5.430   5.161 -0.3737  1.2522  0.4882
    5MOL   H237 1765   3.652   4.989   5.629  0.9922 -1.3485 -0.3719
    5MOL   H238 1766   3.756   5.082   5.528  0.6524  0.1904  0.4954
    5MOL   H239 1767   3.743   5.270   5.679 -0.4868  0.7896  0.2217
    5MOL   H240 1768   3.629   5.441   5.611 -3.3148  1.3790  0.0053
    5MOL   H241 1769   3.728   5.387   5.477  0.2469 -1.9676  0.0639
    5MOL   H242 1770   3.427   5.438   5.467  0.6770  1.3427  2.8181
    5MOL   H243 1771   3.561   5.538   5.410  0.9563 -0.6251 -0.7049
    5MOL   H244 1772   3.497   5.261   5.290 -2.7814  1.1575 -0.2669
    5MOL   H245 1773   3.648   5.351   5.273 -0.3929 -0.4667  1.7788
    5MOL   H246 1774   3.495   5.380   5.067  0.4636 -1.0308  1.8616
    5MOL   H247 1775   3.514   5.531   5.163 -1.5585  1.8368 -2.0129
    5MOL   H248 1776   3.363   5.436   5.158 -0.3960  1.2255  1.2998
    5MOL   C249 1777   3.572   5.204   5.802 -0.7309 -0.3845  0.7262
    5MOL   C250 1778   3.439   5.131   5.796  0.8052  0.3859  0.6069
    5MOL   O251 1779   3.355   5.205   5.886 -0.0477 -0.2218 -0.0836
    5MOL   C252 1780   3.284   5.314   5.825 -0.0091 -0.2009 -0.2211
    5MOL   C253 1781   3.186   5.363   5.935  0.2943 -0.1244  0.0964
    5MOL   C254 1782   3.111   5.485   5.892  0.2365  0.0060 -0.0074
    5MOL   C255 1783   3.001   5.531   5.989  0.5254 -0.6280 -0.0108
    5MOL   H256 1784   3.560   5.312   5.812  1.7372 -0.1171  1.2394
    5MOL   H257 1785   3.629   5.162   5.885  2.5349  1.7868 -0.2842
    5MOL   H258 1786   3.401   5.125   5.694  0.0013  1.8014  0.7986
    5MOL   H259 1787   3.227   5.275   5.740  3.4259 -1.2919 -2.1035
    5MOL   H260 1788   3.338   5.406   5.805  0.0557  0.7931  4.1340
    5MOL   H261 1789   3.114   5.282   5.943  0.7689 -0.6121 -0.4794
    5MOL   H262 1790   3.223   5.364   6.037 -0.3347 -0.0897  0.3306
    5MOL   H263 1791   3.184   5.566   5.892 -2.4624  2.5514  0.6884
    5MOL   H264 1792   3.086   5.490   5.786  1.1126  2.5271 -0.1430
    5MOL   H265 1793   3.042   5.567   6.084 -1.3477  0.9301  0.2435
    5MOL   H266 1794   2.940   5.443   6.007 -1.0350  0.3055 -0.6568
    5MOL   H267 1795   2.937   5.606   5.942 -1.1432 -1.6303  0.6344
    5MOL   C268 1796   3.450   4.998   5.857  0.0657  0.1699 -0.3053
    5MOL   C269 1797   3.340   4.902   5.816  0.3304  0.7614 -0.4098
    5MOL   O270 1798   3.381   4.874   5.685 -0.2408 -0.5672  0.8156
    5MOL   C271 1799   3.271   4.880   5.587 -0.0824 -0.2331  0.4003
    5MOL   C272 1800   3.323   4.866   5.451  0.2768  0.4143  0.4700
    5MOL   C273 1801   3.407   4.988   5.420  0.8273 -1.2496  0.5261
    5MOL   C274 1802   3.488   4.987   5.290  0.0603  0.5510 -1.0495
    5MOL   H275 1803   3.545   4.954   5.826 -0.0085 -0.8083  0.8006
    5MOL   H276 1804   3.457   5.012   5.965 -0.2748  0.0905 -0.2748
    5MOL   H277 1805   3.241   4.946   5.809 -0.3545 -0.6329  0.3525
    5MOL   H278 1806   3.192   4.806   5.604 -0.7375  0.5846  0.9250
    5MOL   H279 1807   3.218   4.974   5.599  0.1036 -0.1268  0.3868
    5MOL   H280 1808   3.380   4.774   5.440  1.6888  1.1075  1.7936
    5MOL   H281 1809   3.241   4.847   5.382  0.6748 -0.4616  0.2251
    5MOL   H282 1810   3.467   5.017   5.506 -1.7158 -0.6228  2.1248
    5MOL   H283 1811   3.348   5.080   5.418  0.1071 -1.6825  1.6566
    5MOL   H284 1812   3.532   4.887   5.290  1.1695  1.0275 -0.9935
    5MOL   H285 1813   3.566   5.063   5.299  1.0568 -0.8561  3.1309
    5MOL   H286 1814   3.431   5.026   5.205 -0.0162  1.2113 -0.6978
    5MOL   C287 1815   3.327   4.770   5.902  0.5256  0.0799  0.2224
    5MOL   C288 1816   3.284   4.777   6.053 -0.0561 -0.0915  0.5236
    5MOL   O289 1817   3.241   4.650   6.096  0.6077  0.1748 -0.0858
    5MOL   C290 1818   3.345   4.566   6.132 -0.4158  0.1752 -0.2070
    5MOL   C291 1819   3.290   4.433   6.163 -1.0058 -1.0747 -0.3078
    5MOL   C292 1820   3.392   4.351   6.238 -0.3597  1.0047  0.4274
    5MOL   C293 1821   3.333   4.213   6.273  0.3121  0.1888  0.3624
    5MOL   H294 1822   3.412   4.704   5.886 -0.5132 -1.3725  0.5866
    5MOL   H295 1823   3.247   4.717   5.850  0.7399 -1.6809  1.6699
    5MOL   H296 1824   3.365   4.827   6.106  0.6449 -0.4081 -0.2366
    5MOL   H297 1825   3.415   4.556   6.049  0.2665 -0.4072  0.4369
    5MOL   H298 1826   3.393   4.617   6.215 -0.1999  0.0868 -0.2760
    5MOL   H299 1827   3.264   4.381   6.071  0.5074 -1.4251 -0.5503
    5MOL   H300 1828   3.200   4.435   6.223 -0.9746 -1.4265 -0.2476
    5MOL   H301 1829   3.432   4.397   6.329 -0.8077  1.6805  0.2820
    5MOL   H302 1830   3.480   4.332   6.176 -0.1798 -0.5115  1.1065
    5MOL   H303 1831   3.299   4.153   6.188 -2.0454 -0.6179  1.8571
    5MOL   H304 1832   3.415   4.155   6.315 -1.5882 -2.2297  0.8456
    5MOL   H305 1833   3.257   4.217   6.350 -1.0168 -2.9163 -0.7199
    5MOL   C306 1834   3.162   4.867   6.072  0.7089  0.3503 -0.8301
    5MOL   C307 1835   3.137   4.907   6.224 -0.1050 -0.1601 -0.8306
    5MOL   O308 1836   3.017   4.983   6.225  0.9512 -0.1566  0.2587
    5MOL   C309 1837   2.905   4.898   6.250  0.0278  0.6800  0.6225
    5MOL   C310 1838   2.810   4.915   6.128  0.1520 -0.3450  0.9106
    5MOL   C311 1839   2.670   4.861   6.164 -0.0115 -0.1554 -0.8710
    5MOL   C312 1840   2.567   4.914   6.068 -0.2926  0.0316  0.0432
    5MOL   H313 1841   3.161   4.961   6.016 -3.2542  1.0342  0.1847
    5MOL   H314 1842   3.073   4.831   6.020  0.1762  1.5530 -0.7733
    5MOL   H315 1843   3.128   4.812   6.275 -0.7812 -0.0561 -0.7562
    5MOL   H316 1844   2.850   4.927   6.340  0.7787  0.3019  1.2087
    5MOL   H317 1845   2.927   4.791   6.255 -0.6618  0.5616  1.3264
    5MOL   H318 1846   2.846   4.874   6.033 -0.6388 -0.3357  0.6040
    5MOL   H319 1847   2.804   5.022   6.109  0.8932 -0.5211 -0.3652
    5MOL   H320 1848   2.669   4.752   6.163  1.1510 -0.1879  0.5507
    5MOL   H321 1849   2.638   4.892   6.264  0.0073 -0.1858 -0.8554
    5MOL   H322 1850   2.566   4.843   5.985  1.0137 -0.6050  0.5519
    5MOL   H323 1851   2.580   5.017   6.035 -2.2892  0.9581  2.0385
    5MOL   H324 1852   2.471   4.904   6.118  0.1393 -0.0918  0.8637
    5MOL   C325 1853   3.249   5.002   6.277  0.6265 -0.0538 -0.0299
    5MOL   C326 1854   3.264   4.999   6.430  0.3682  0.3435 -0.8910
    5MOL   O327 1855   3.269   4.867   6.476  0.6960 -0.0690  0.2103
    5MOL   C328 1856   3.222   4.837   6.602  0.3932 -0.3955  0.1756
    5MOL   C329 1857   3.245   4.690   6.646 -0.1295  0.5446 -0.8183
    5MOL   C330 1858   3.396   4.664   6.665  0.2100 -0.0970 -0.8931
    5MOL   C331 1859   3.411   4.512   6.698  0.1438 -0.4174 -0.3856
    5MOL   H332 1860   3.221   5.099   6.237 -0.3737  0.2050  1.2596
    5MOL   H333 1861   3.345   4.969   6.238  0.3137 -1.7186  0.5361
    5MOL   H334 1862   3.177   5.040   6.484  0.7530 -0.8080  0.6418
    5MOL   H335 1863   3.114   4.855   6.597  0.3997 -0.6724 -1.0139
    5MOL   H336 1864   3.265   4.899   6.680 -2.5981  0.0241  1.5764
    5MOL   H337 1865   3.191   4.670   6.738  2.9191  2.4872  1.5282
    5MOL   H338 1866   3.214   4.618   6.571  1.1349 -1.7401  0.8120
    5MOL   H339 1867   3.431   4.724   6.749 -0.7083  1.9466 -1.9410
    5MOL   H340 1868   3.452   4.697   6.578 -1.0641  2.6521 -0.7265
    5MOL   H341 1869   3.513   4.483   6.724  0.4674  0.7624 -0.3042
    5MOL   H342 1870   3.382   4.458   6.607 -1.2792  0.0794 -0.2322
    5MOL   H343 1871   3.340   4.487   6.776 -0.4644  2.2131 -0.0453
    5MOL   C344 1872   3.393   5.068   6.479  0.0085  0.2367  0.9261
    5MOL   C345 1873   3.391   5.221   6.469  0.1615  0.5188 -0.2741
    5MOL   O346 1874   3.528   5.260   6.442 -0.0631  0.1920  0.1414
    5MOL   C347 1875   3.563   5.268   6.298  0.0358 -0.1560 -0.7443
    5MOL   C348 1876   3.717   5.291   6.290 -0.0186  0.2477  0.8281
    5MOL   C349 1877   3.765   5.407   6.383 -0.6044  0.1371 -0.1697
    5MOL   C350 1878   3.920   5.415   6.383 -0.0587  0.1429 -0.0525
    5MOL   H351 1879   3.424   5.034   6.578 -0.5096 -1.2494  0.5935
    5MOL   H352 1880   3.478   5.024   6.426 -0.2674  0.5612  0.2103
    5MOL   H353 1881   3.328   5.255   6.387  2.7239 -0.4047 -2.7098
    5MOL   H354 1882   3.513   5.327   6.221  1.1807 -0.3938 -1.6790
    5MOL   H355 1883   3.547   5.165   6.266  2.5323 -0.7375 -0.1930
    5MOL   H356 1884   3.747   5.290   6.185 -1.3915  0.1875  0.4250
    5MOL   H357 1885   3.752   5.197   6.334 -0.4431 -0.4159 -0.2281
    5MOL   H358 1886   3.704   5.489   6.345 -0.8387  0.4080  0.7774
    5MOL   H359 1887   3.725   5.390   6.483 -3.1535  0.8794 -1.0124
    5MOL   H360 1888   3.950   5.330   6.444 -0.0645 -0.3832 -0.7724
    5MOL   H361 1889   3.967   5.505   6.424  0.3344 -1.7550  3.9122
    5MOL   H362 1890   3.960   5.403   6.282 -1.5681  2.6842 -0.9911
    5MOL   C363 1891   3.357   5.279   6.601 -0.3120 -0.2221 -0.2554
    5MOL   C364 1892   3.345   5.434   6.609  0.7965 -0.1810 -0.3932
    5MOL   O365 1893   3.377   5.471   6.741 -0.1955 -0.1901 -0.1926
    5MOL   C366 1894   3.355   5.608   6.770 -0.1746  0.4452  0.5801
    5MOL   C367 1895   3.407   5.640   6.905 -0.5698 -0.1508  0.3370
    5MOL   C368 1896   3.318   5.600   7.027  0.2730 -0.0018  1.0130
    5MOL   C369 1897   3.171   5.657   7.027 -0.1127  0.2668 -0.5520
    5MOL   H370 1898   3.434   5.242   6.668 -1.8808 -2.2261  0.4971
    5MOL   H371 1899   3.271   5.236   6.653 -0.4899  1.5263  0.9443
    5MOL   H372 1900   3.249   5.476   6.579  0.1033 -2.3983 -1.3337
    5MOL   H373 1901   3.249   5.631   6.774  0.0217  1.4384  0.0160
    5MOL   H374 1902   3.393   5.675   6.694 -3.3558  0.2665 -1.2473
    5MOL   H375 1903   3.415   5.748   6.919 -0.9114 -0.4047  2.7280
    5MOL   H376 1904   3.508   5.606   6.926 -1.0813 -0.6703  2.0635
    5MOL   H377 1905   3.371   5.627   7.119  1.8979 -1.2544  0.4811
    5MOL   H378 1906   3.327   5.492   7.041  2.2932 -0.1229 -0.8864
    5MOL   H379 1907   3.176   5.766   7.025 -2.8970  0.3857 -3.0689
    5MOL   H380 1908   3.114   5.617   6.944 -0.0132 -1.3332  0.1321
    5MOL   H381 1909   3.116   5.622   7.115  0.4115  0.7180 -0.0399
    5MOL   H382 1910   3.420   5.482   6.546 -0.3153  0.1958 -1.4492
    6MOL     C1 1911   1.380   3.592   2.010  0.3902  0.8622  0.0265
    6MOL     C2 1912   1.456   3.495   1.914 -0.1451  0.0758 -0.7313
    6MOL     O3 1913   1.371   3.444   1.816  0.2876  0.3554 -0.1072
    6MOL     C4 1914   1.317   3.318   1.857  0.5944 -0.1937 -0.1743
    6MOL     C5 1915   1.196   3.275   1.776  0.1667 -0.1109 -0.2208
    6MOL     C6 1916   1.095   3.390   1.749  0.0845 -0.5074  0.0741
    6MOL     C7 1917   1.012   3.431   1.872 -0.1533  0.0772 -0.2615
    6MOL     H8 1918   1.292   3.548   2.055  0.0810  1.1037 -0.3439
    6MOL     H9 1919   1.443   3.619   2.095  0.4046  2.3070 -0.4301
    6MOL    H10 1920   1.486   3.411   1.977 -3.5814 -0.3438  0.4749
    6MOL    H11 1921   1.397   3.245   1.873  1.7337  0.7383 -1.4926
    6MOL    H12 1922   1.285   3.338   1.959 -0.4335 -0.0749 -0.5164
    6MOL    H13 1923   1.144   3.193   1.826 -0.3581  0.1500 -0.3412
    6MOL    H14 1924   1.224   3.221   1.686 -0.9062 -2.0384  0.5638
    6MOL    H15 1925   1.022   3.349   1.679 -0.4269 -4.0738  2.5462
    6MOL    H16 1926   1.139   3.479   1.704  0.0980 -0.8606 -0.6258
    6MOL    H17 1927   0.956   3.344   1.905  2.4971 -0.9070  1.8502
    6MOL    H18 1928   0.944   3.512   1.848 -2.5766 -1.6767  0.5007
    6MOL    H19 1929   1.086   3.468   1.943  0.1318  0.5219 -0.7888
    6MOL    H20 1930   1.343   3.684   1.964 -1.1135 -0.7274 -1.9965
    6MOL    C21 1931   1.571   3.578   1.844 -0.3468  0.5607 -0.2042
    6MOL    C22 1932   1.671   3.492   1.763  0.4349  0.1352  0.2529
    6MOL    O23 1933   1.747   3.581   1.685  0.0203 -0.4450 -0.1269
    6MOL    C24 1934   1.824   3.527   1.579  0.3033 -0.7249  0.6559
    6MOL    C25 1935   1.852   3.642   1.477  0.3174 -0.5250  0.1225
    6MOL    C26 1936   1.725   3.701   1.412  0.0097  0.0902 -0.4921
    6MOL    C27 1937   1.769   3.812   1.314 -0.5258 -0.8704 -0.3055
    6MOL    H28 1938   1.621   3.648   1.910  0.5955 -0.2034 -0.0998
    6MOL    H29 1939   1.517   3.638   1.771 -1.4939  1.6932  1.5422
    6MOL    H30 1940   1.601   3.428   1.709 -1.4902  2.6350 -0.3265
    6MOL    H31 1941   1.784   3.443   1.522 -1.3683 -0.2424  1.0958
    6MOL    H32 1942   1.918   3.493   1.624  1.5280  1.0636 -0.4936
    6MOL    H33 1943   1.907   3.715   1.537  0.1469 -0.2486 -0.0570
    6MOL    H34 1944   1.919   3.600   1.402 -0.7688 -1.8225 -0.1284
    6MOL    H35 1945   1.691   3.616   1.352  1.2113 -0.8358  0.1303
    6MOL    H36 1946   1.648   3.742   1.477 -1.0922 -2.1111 -0.3755
    6MOL    H37 1947   1.770   3.910   1.362 -3.0748 -0.2434 -1.4357
    6MOL    H38 1948   1.864   3.794   1.263 -0.5044 -1.9480  0.1046
    6MOL    H39 1949   1.690   3.825   1.240 -0.7938 -1.0494 -0.0520
    6MOL    C40 1950   1.762   3.407   1.863  0.3514  0.1675  0.3857
    6MOL    C41 1951   1.803   3.263   1.821  0.6146 -0.8571  0.1993
    6MOL    O42 1952   1.669   3.199   1.810  0.1795  0.4001 -0.1655
    6MOL    C43 1953   1.657   3.064   1.766 -0.4145  0.0597 -0.3097
    6MOL    C44 1954   1.712   3.053   1.617  0.2526 -0.9369  0.6357
    6MOL    C45 1955   1.627   3.126   1.514  0.1734 -0.5097  0.0221
    6MOL    C46 1956   1.691   3.131   1.377 -0.2487  0.0650  0.0948
    6MOL    H47 1957   1.717   3.404   1.962 -0.4817  2.0259  0.0918
    6MOL    H48 1958   1.856   3.461   1.881  0.2502 -0.2490  2.1899
    6MOL    H49 1959   1.858   3.284   1.729  1.3902 -0.1439  0.8167
    6MOL    H50 1960   1.553   3.034   1.779 -0.5619 -1.2427 -3.7840
    6MOL    H51 1961   1.707   3.003   1.841 -1.4980  2.3588  2.3658
    6MOL    H52 1962   1.699   2.948   1.591 -0.3356 -1.3851  2.6173
    6MOL    H53 1963   1.818   3.079   1.624 -0.1792  0.7386  1.0634
    6MOL    H54 1964   1.621   3.230   1.546 -0.3323 -0.0269 -1.5958
    6MOL    H55 1965   1.521   3.099   1.509 -0.1268  0.7487 -0.7729
    6MOL    H56 1966   1.730   3.030   1.361 -0.5229 -0.0265  0.0133
    6MOL    H57 1967   1.623   3.158   1.296  2.9073 -2.0577 -3.4495
    6MOL    H58 1968   1.769   3.208   1.370 -0.4878  0.2608 -0.4606
    6MOL    C59 1969   1.896   3.194   1.924 -0.9737 -0.0761  0.7304
    6MOL    C60 1970   2.024   3.269   1.965  0.6734  0.7586 -0.2054
    6MOL    O61 1971   2.089   3.188   2.065 -0.4816 -0.3118 -0.2478
    6MOL    C62 1972   2.135   3.253   2.184  0.8853  0.0709  0.0063
    6MOL    C63 1973   2.202   3.145   2.269 -0.8277 -0.0458 -0.0635
    6MOL    C64 1974   2.301   3.205   2.372 -0.1375  0.2987  0.8620
    6MOL    C65 1975   2.350   3.111   2.475  0.0916  0.1128  0.2587
    6MOL    H66 1976   1.831   3.177   2.010 -2.7524 -0.3435 -0.6417
    6MOL    H67 1977   1.920   3.093   1.890 -0.6405  0.8807 -1.9149
    6MOL    H68 1978   1.996   3.364   2.010  2.0281  0.4908  1.2699
    6MOL    H69 1979   2.049   3.309   2.222  1.0325  1.3086 -1.4180
    6MOL    H70 1980   2.204   3.335   2.161 -0.0632  0.8861  0.0117
    6MOL    H71 1981   2.125   3.075   2.301 -0.4337 -0.8392 -0.8533
    6MOL    H72 1982   2.262   3.090   2.197 -1.2588 -2.1352  1.1248
    6MOL    H73 1983   2.382   3.253   2.317  1.5547 -1.0915  2.0560
    6MOL    H74 1984   2.241   3.271   2.435 -1.9456 -0.3628 -0.1380
    6MOL    H75 1985   2.263   3.058   2.516 -1.1135  1.2349 -0.7922
    6MOL    H76 1986   2.412   3.037   2.425  2.4994  3.5477 -2.0432
    6MOL    H77 1987   2.391   3.150   2.569  0.6954 -1.3819  0.6363
    6MOL    C78 1988   2.121   3.292   1.842 -0.7825  0.3413 -0.2645
    6MOL    C79 1989   2.244   3.369   1.874  0.4076  0.0761 -0.1034
    6MOL    O80 1990   2.256   3.459   1.757  0.4518 -0.1011 -1.0633
    6MOL    C81 1991   2.197   3.593   1.772 -0.2147 -0.4138 -0.2484
    6MOL    C82 1992   2.198   3.658   1.632  0.4598 -0.4140  1.1360
    6MOL    C83 1993   2.340   3.666   1.575 -0.6101  0.5358 -0.3646
    6MOL    C84 1994   2.335   3.746   1.443 -0.6334 -0.9919  0.2262
    6MOL    H85 1995   2.070   3.345   1.762  0.7632  0.9153 -0.8854
    6MOL    H86 1996   2.145   3.198   1.793 -1.1148  2.0298 -3.8155
    6MOL    H87 1997   2.225   3.428   1.964 -0.5332  0.7648 -0.7422
    6MOL    H88 1998   2.247   3.653   1.848 -1.8312  0.3569  0.2262
    6MOL    H89 1999   2.095   3.573   1.806 -0.2410 -0.3409 -0.2837
    6MOL    H90 2000   2.140   3.592   1.567 -0.9158  0.4460  1.4666
    6MOL    H91 2001   2.152   3.756   1.641 -0.3039 -0.8574  2.2051
    6MOL    H92 2002   2.365   3.562   1.553 -1.2256  0.5152 -0.9817
    6MOL    H93 2003   2.406   3.720   1.643 -2.7105 -0.5310  2.6549
    6MOL    H94 2004   2.329   3.853   1.464  0.6851 -1.1212  1.3580
    6MOL    H95 2005   2.428   3.731   1.389 -0.4634 -0.2991  0.3185
    6MOL    H96 2006   2.250   3.722   1.379 -0.1683  2.3562 -1.7383
    6MOL    C97 2007   2.375   3.288   1.886  0.2554  0.5959 -0.0109
    6MOL    C98 2008   2.503   3.375   1.925  0.0678  0.3010  0.4427
    6MOL    O99 2009   2.495   3.405   2.065  0.2631 -0.6896  0.2493
    6MOL   C100 2010   2.511   3.536   2.110 -0.4381  0.2064 -0.3461
    6MOL   C101 2011   2.511   3.544   2.263 -0.0069  0.5472 -0.7076
    6MOL   C102 2012   2.622   3.461   2.320 -0.1972  0.0432 -0.4056
    6MOL   C103 2013   2.634   3.481   2.473 -0.5705 -0.4721  0.3359
    6MOL   H104 2014   2.389   3.236   1.790  2.3657  1.3154 -0.1298
    6MOL   H105 2015   2.364   3.206   1.957 -0.8803 -0.5081 -1.4250
    6MOL   H106 2016   2.492   3.473   1.877 -1.5247 -0.2754 -0.4050
    6MOL   H107 2017   2.427   3.599   2.080 -1.2681 -0.1758  1.1220
    6MOL   H108 2018   2.598   3.579   2.059  0.6057 -0.4906  0.8204
    6MOL   H109 2019   2.430   3.487   2.309  1.0397 -0.2206  0.2132
    6MOL   H110 2020   2.517   3.644   2.304 -1.0720  0.8295 -1.2218
    6MOL   H111 2021   2.705   3.503   2.263 -1.2949  1.4009 -1.0232
    6MOL   H112 2022   2.615   3.355   2.294 -0.4664  0.6919 -3.0976
    6MOL   H113 2023   2.565   3.417   2.528 -2.2962  2.1218  1.2374
    6MOL   H114 2024   2.737   3.469   2.507 -0.2595 -0.7570 -0.6725
    6MOL   H115 2025   2.602   3.582   2.497  1.5170  0.0836  0.8239
    6MOL   C116 2026   2.638   3.302   1.892 -0.6657  0.1724 -0.1205
    6MOL   C117 2027   2.766   3.388   1.896  0.3379 -0.6437 -0.0022
    6MOL   O118 2028   2.882   3.301   1.901  0.4411 -0.0991 -0.5257
    6MOL   C119 2029   2.980   3.344   2.004  0.8200  0.6166 -0.0080
    6MOL   C120 2030   3.092   3.241   2.002 -0.0772  0.3253  0.8929
    6MOL   C121 2031   3.196   3.234   2.118  0.3823 -0.4057  0.0947
    6MOL   C122 2032   3.246   3.370   2.158  0.4804  0.0264  0.2440
    6MOL   H123 2033   2.652   3.207   1.943  2.0990 -0.8095 -2.5755
    6MOL   H124 2034   2.631   3.267   1.789 -1.4627  0.5976 -0.2221
    6MOL   H125 2035   2.773   3.460   1.977 -2.7349  1.1828 -1.2804
    6MOL   H126 2036   2.934   3.346   2.103  1.7027  1.3432  0.3950
    6MOL   H127 2037   3.032   3.436   1.979  3.2838 -0.2220  1.8048
    6MOL   H128 2038   3.152   3.246   1.912 -1.5356 -1.0539 -0.1865
    6MOL   H129 2039   3.052   3.140   2.007  0.5014  0.1052  1.0301
    6MOL   H130 2040   3.137   3.198   2.203 -0.4843  0.7455 -0.0139
    6MOL   H131 2041   3.282   3.167   2.111  0.0322 -0.7504 -0.9588
    6MOL   H132 2042   3.291   3.358   2.256 -1.2382 -1.2200  0.9167
    6MOL   H133 2043   3.168   3.443   2.179 -2.7236 -2.4677 -2.4387
    6MOL   H134 2044   3.323   3.405   2.089  1.0524 -1.5146  0.0878
    6MOL   C135 2045   2.778   3.475   1.761  0.1258 -0.2057 -0.1112
    6MOL   C136 2046   2.859   3.607   1.771 -0.3209 -0.5132 -0.4698
    6MOL   O137 2047   2.917   3.645   1.642  0.1365 -0.2341  0.0095
    6MOL   C138 2048   3.030   3.559   1.602  0.2465 -0.7862 -0.4494
    6MOL   C139 2049   3.130   3.651   1.529  0.6648  0.1309  0.3574
    6MOL   C140 2050   3.194   3.765   1.610 -0.0680 -0.0803 -0.2873
    6MOL   C141 2051   3.308   3.829   1.530 -0.7212 -0.2872 -0.3060
    6MOL   H142 2052   2.679   3.496   1.723  0.6958 -3.0285 -3.3497
    6MOL   H143 2053   2.827   3.410   1.689 -1.2922  0.2118 -1.4750
    6MOL   H144 2054   2.942   3.596   1.840  1.4031 -0.2069 -2.4215
    6MOL   H145 2055   2.984   3.486   1.537  0.0393 -2.8763  1.9679
    6MOL   H146 2056   3.079   3.497   1.677  0.2909 -1.6279 -1.1688
    6MOL   H147 2057   3.065   3.698   1.455  0.3030  1.7851  1.7077
    6MOL   H148 2058   3.198   3.584   1.476 -0.3524 -0.2245 -0.5306
    6MOL   H149 2059   3.118   3.826   1.659 -0.8377 -0.6210 -0.7977
    6MOL   H150 2060   3.251   3.711   1.686 -2.2880 -0.9697  0.7722
    6MOL   H151 2061   3.326   3.930   1.567 -2.4511  0.3937 -1.2493
    6MOL   H152 2062   3.399   3.769   1.536 -0.3527  0.2347 -0.5399
    6MOL   H153 2063   3.293   3.830   1.422 -0.6848 -0.5442 -0.3139
    6MOL   C154 2064   2.771   3.728   1.816 -0.0890 -0.8280 -0.2228
    6MOL   C155 2065   2.846   3.843   1.890 -0.0544 -1.1251 -0.0563
    6MOL   O156 2066   2.871   3.784   2.021 -0.5658  0.0475 -0.2309
    6MOL   C157 2067   3.004   3.793   2.066  0.1334 -0.1475 -0.1190
    6MOL   C158 2068   3.005   3.705   2.195 -0.3728 -0.2031 -0.3616
    6MOL   C159 2069   3.146   3.708   2.264 -0.1768 -0.7066 -0.7952
    6MOL   C160 2070   3.147   3.634   2.401  0.4270  0.5684  0.5344
    6MOL   H161 2071   2.698   3.688   1.887 -2.5088 -1.6316 -3.0768
    6MOL   H162 2072   2.719   3.769   1.730  2.3513  0.2600 -1.2248
    6MOL   H163 2073   2.939   3.855   1.834  0.6052  0.4534  1.3545
    6MOL   H164 2074   3.076   3.757   1.993  0.3284 -1.4132  0.6780
    6MOL   H165 2075   3.027   3.899   2.081 -1.8816  0.2692  0.1929
    6MOL   H166 2076   2.974   3.602   2.176  0.1681 -0.3829 -0.2632
    6MOL   H167 2077   2.939   3.742   2.274 -1.0257 -0.5073 -0.7560
    6MOL   H168 2078   3.214   3.665   2.191  1.0785  0.7154 -0.4962
    6MOL   H169 2079   3.171   3.813   2.280 -0.9146 -0.3495 -1.9286
    6MOL   H170 2080   3.246   3.616   2.443 -0.2020  1.3971  2.4374
    6MOL   H171 2081   3.082   3.676   2.477 -0.3259 -0.1012  0.2676
    6MOL   H172 2082   3.101   3.537   2.384  0.0834  0.5318  1.6408
    6MOL   C173 2083   2.758   3.967   1.904 -0.0742 -0.1957 -0.1111
    6MOL   C174 2084   2.767   4.077   1.802  0.0469  0.1777  0.7632
    6MOL   O175 2085   2.753   4.017   1.675 -0.4637 -0.0244  0.0666
    6MOL   C176 2086   2.816   4.080   1.564 -0.2917 -0.2900 -0.4035
    6MOL   C177 2087   2.720   4.055   1.442 -0.5958 -0.3873  0.3748
    6MOL   C178 2088   2.588   4.134   1.446  0.7466  0.1312  0.3115
    6MOL   C179 2089   2.500   4.119   1.320  0.3201 -0.1654  0.6193
    6MOL   H180 2090   2.778   4.016   1.999  0.8239  0.1989 -0.5024
    6MOL   H181 2091   2.652   3.943   1.913  0.1478 -0.6473  1.4921
    6MOL   H182 2092   2.859   4.135   1.816  0.9028 -0.3275 -2.4064
    6MOL   H183 2093   2.914   4.033   1.553 -0.0820  0.3723 -1.3187
    6MOL   H184 2094   2.829   4.186   1.587  0.5230 -0.5726  0.4905
    6MOL   H185 2095   2.697   3.948   1.440  1.1460 -0.7546 -1.4827
    6MOL   H186 2096   2.778   4.079   1.353 -0.3107 -0.8043  0.4466
    6MOL   H187 2097   2.530   4.103   1.533 -0.8498 -0.2836 -0.8905
    6MOL   H188 2098   2.606   4.239   1.469  2.5259 -0.3642  1.2857
    6MOL   H189 2099   2.480   4.014   1.298  1.7088 -0.4460  0.6339
    6MOL   H190 2100   2.412   4.184   1.325  0.5722  0.1456  1.0146
    6MOL   H191 2101   2.567   4.146   1.239 -1.3349 -0.4670 -0.8781
    6MOL   C192 2102   2.643   4.166   1.815  0.4487 -0.4713 -0.3107
    6MOL   C193 2103   2.641   4.266   1.933  0.3326  0.5252  0.9904
    6MOL   O194 2104   2.735   4.368   1.910 -0.5234 -0.0163  0.0322
    6MOL   C195 2105   2.821   4.399   2.016  0.1292 -0.3397 -0.5960
    6MOL   C196 2106   2.904   4.517   1.972 -0.0669 -0.0568  0.6128
    6MOL   C197 2107   3.028   4.551   2.057  0.3745  0.0644  0.1012
    6MOL   C198 2108   3.118   4.658   1.994  0.7885  0.5056  0.1363
    6MOL   H199 2109   2.556   4.105   1.794  0.0909  0.5707 -1.9353
    6MOL   H200 2110   2.647   4.224   1.723 -1.8775  0.5769  0.2265
    6MOL   H201 2111   2.655   4.220   2.030 -2.1553 -0.6802  0.7956
    6MOL   H202 2112   2.873   4.308   2.044 -0.4962  0.1662  2.3321
    6MOL   H203 2113   2.756   4.428   2.098 -0.0881  1.2483 -1.3214
    6MOL   H204 2114   2.939   4.507   1.869  0.9813  1.6831  0.7703
    6MOL   H205 2115   2.852   4.613   1.975 -0.1905 -0.1188  0.4219
    6MOL   H206 2116   3.085   4.458   2.061  0.0896 -0.1624 -0.9748
    6MOL   H207 2117   2.995   4.585   2.156 -1.7267 -0.0298 -0.5410
    6MOL   H208 2118   3.215   4.673   2.041  0.4289  0.4414  0.9074
    6MOL   H209 2119   3.131   4.635   1.888 -1.1361 -1.6101  0.3196
    6MOL   H210 2120   3.078   4.759   1.992 -0.0616  0.1807  0.4365
    6MOL   C211 2121   2.498   4.329   1.940 -0.4897  0.0741 -0.0458
    6MOL   C212 2122   2.386   4.240   1.996  0.1995 -0.1562  0.0064
    6MOL   O213 2123   2.408   4.192   2.127 -0.1463 -0.6855 -0.2848
    6MOL   C214 2124   2.463   4.059   2.139 -0.4675 -0.1314 -0.0577
    6MOL   C215 2125   2.446   3.995   2.271 -0.3855 -0.5519 -0.0645
    6MOL   C216 2126   2.489   4.074   2.391 -0.4356 -0.8703 -0.1334
    6MOL   C217 2127   2.470   3.998   2.523 -0.2061  0.4763 -0.5203
    6MOL   H218 2128   2.469   4.364   1.841 -0.5248 -1.5178 -0.6002
    6MOL   H219 2129   2.497   4.408   2.015 -0.8704  0.8244 -0.8215
    6MOL   H220 2130   2.362   4.158   1.929  0.2935  0.2980 -0.5834
    6MOL   H221 2131   2.407   3.992   2.073 -0.7216  0.4338 -0.4223
    6MOL   H222 2132   2.569   4.053   2.114 -0.0064  2.6116  1.0423
    6MOL   H223 2133   2.340   3.975   2.287 -0.0393 -0.3698  2.7438
    6MOL   H224 2134   2.498   3.900   2.262  3.7663  1.5773  0.3191
    6MOL   H225 2135   2.439   4.171   2.391 -0.6087 -0.9607 -0.5223
    6MOL   H226 2136   2.594   4.105   2.392  0.2081 -2.9820 -0.7433
    6MOL   H227 2137   2.512   3.897   2.529 -0.2927  0.4087 -1.0452
    6MOL   H228 2138   2.366   3.970   2.536  0.6558 -2.3561  0.6876
    6MOL   H229 2139   2.494   4.053   2.614  1.3703  0.1422 -0.7226
    6MOL   C230 2140   2.253   4.307   2.008 -0.1888 -0.5605 -0.4325
    6MOL   C231 2141   2.195   4.342   1.876  0.1473  0.4494  0.2358
    6MOL   O232 2142   2.152   4.228   1.803 -0.4431 -0.2964  0.0777
    6MOL   C233 2143   2.203   4.229   1.671  0.6594  0.4675  0.5241
    6MOL   C234 2144   2.179   4.081   1.622 -0.0366  0.3694 -0.1822
    6MOL   C235 2145   2.063   4.047   1.536 -0.1350  0.4837  1.3518
    6MOL   C236 2146   1.921   4.080   1.589  0.1450 -0.0947  0.2809
    6MOL   H237 2147   2.262   4.400   2.064 -1.3079  0.1568 -1.4195
    6MOL   H238 2148   2.181   4.250   2.067 -0.8801  2.5723  1.9041
    6MOL   H239 2149   2.267   4.397   1.816  0.0352 -0.5623 -0.8448
    6MOL   H240 2150   2.162   4.305   1.605  1.1524 -0.4340 -0.8317
    6MOL   H241 2151   2.311   4.239   1.670  0.5367  1.7772 -1.0503
    6MOL   H242 2152   2.270   4.046   1.573 -0.1926 -1.2291  0.6270
    6MOL   H243 2153   2.177   4.023   1.715 -2.2799  2.1662  0.9330
    6MOL   H244 2154   2.065   3.941   1.510 -1.2850  0.3106  1.9504
    6MOL   H245 2155   2.076   4.090   1.436  0.8917 -0.6939  0.9625
    6MOL   H246 2156   1.848   4.052   1.513 -0.0658  1.2568 -0.0314
    6MOL   H247 2157   1.922   4.188   1.606  0.0930 -0.0375 -0.0718
    6MOL   H248 2158   1.893   4.034   1.683  1.7644  1.3429  1.5116
    6MOL   C249 2159   2.069   4.424   1.881 -0.1191 -0.6162  0.0219
    6MOL   C250 2160   2.078   4.565   1.943  0.1227  0.6413  0.6686
    6MOL   O251 2161   1.946   4.625   1.946  0.3291 -0.0335  0.0180
    6MOL   C252 2162   1.862   4.591   2.055  0.7131  0.4020 -0.2257
    6MOL   C253 2163   1.719   4.651   2.029 -0.1836 -0.2495  0.0161
    6MOL   C254 2164   1.722   4.801   1.993  0.2747  0.4606  0.0735
    6MOL   C255 2165   1.782   4.888   2.105  0.1042  0.5974  0.6294
    6MOL   H256 2166   1.993   4.365   1.933  0.2869 -1.4912 -0.3851
    6MOL   H257 2167   2.021   4.430   1.784 -0.7424  0.8355  0.4001
    6MOL   H258 2168   2.110   4.550   2.046 -1.3917  1.8400  1.3331
    6MOL   H259 2169   1.907   4.620   2.150 -2.9291 -0.5056  1.8763
    6MOL   H260 2170   1.858   4.483   2.065  2.2072  0.4530  0.9883
    6MOL   H261 2171   1.672   4.603   1.943 -0.0234 -1.0861  0.3914
    6MOL   H262 2172   1.652   4.631   2.112 -0.0300 -0.1608  0.1607
    6MOL   H263 2173   1.762   4.827   1.895  0.8996  2.8163  0.9114
    6MOL   H264 2174   1.615   4.816   1.983  0.3683  0.7714 -0.4876
    6MOL   H265 2175   1.744   4.990   2.093  1.1272  0.7786 -1.2450
    6MOL   H266 2176   1.891   4.891   2.112  0.1696  1.1910 -0.4501
    6MOL   H267 2177   1.744   4.866   2.205  0.4222  0.5205  0.7351
    6MOL   C268 2178   2.170   4.662   1.864  0.3234  0.6344 -1.1658
    6MOL   C269 2179   2.173   4.809   1.923  0.5501  0.7587 -1.0585
    6MOL   O270 2180   2.255   4.808   2.041  0.0344 -0.4597 -0.3702
    6MOL   C271 2181   2.190   4.852   2.158 -0.2802  1.2591  1.1468
    6MOL   C272 2182   2.158   5.006   2.159  0.6566  0.4114 -0.3075
    6MOL   C273 2183   2.271   5.109   2.161 -0.1618 -0.6233 -0.3717
    6MOL   C274 2184   2.223   5.246   2.193 -0.0560  0.3501 -0.3797
    6MOL   H275 2185   2.273   4.627   1.866  0.3961  0.9434  0.4479
    6MOL   H276 2186   2.148   4.669   1.757  0.0982 -0.7979 -1.2222
    6MOL   H277 2187   2.069   4.831   1.947 -0.3088 -2.5255 -1.5425
    6MOL   H278 2188   2.103   4.788   2.146  1.4163 -1.0839  1.0444
    6MOL   H279 2189   2.240   4.804   2.241 -1.4587 -2.8580 -0.3848
    6MOL   H280 2190   2.090   5.018   2.075  1.9668  2.8383 -1.0685
    6MOL   H281 2191   2.104   5.017   2.252  1.1937 -0.0969  0.0764
    6MOL   H282 2192   2.322   5.118   2.065 -1.3169  2.2252 -0.7729
    6MOL   H283 2193   2.344   5.069   2.232  2.3537  1.1928 -1.8479
    6MOL   H284 2194   2.148   5.282   2.122 -0.1542  0.6481 -0.1290
    6MOL   H285 2195   2.317   5.302   2.201  0.1931 -0.1948  0.5716
    6MOL   H286 2196   2.171   5.254   2.288  1.1828  0.4103  0.3035
    6MOL   C287 2197   2.238   4.919   1.830 -0.2580 -0.5948 -0.8881
    6MOL   C288 2198   2.185   4.937   1.686  0.2768  0.3341 -0.9379
    6MOL   O289 2199   2.271   5.043   1.631 -0.0478 -0.3800  0.2699
    6MOL   C290 2200   2.396   5.006   1.589 -0.4732  0.0059 -0.4440
    6MOL   C291 2201   2.494   5.124   1.561  0.1664  0.6501  0.3702
    6MOL   C292 2202   2.491   5.198   1.695  0.1879 -0.0344 -0.1977
    6MOL   C293 2203   2.568   5.332   1.683  0.1558 -0.0375 -0.3106
    6MOL   H294 2204   2.346   4.902   1.833 -0.5780 -2.5126  2.0872
    6MOL   H295 2205   2.215   5.010   1.884  0.1629 -1.1929  0.3291
    6MOL   H296 2206   2.213   4.847   1.630  1.1739 -0.7822  1.2545
    6MOL   H297 2207   2.439   4.937   1.661 -0.4808 -0.3141 -0.7440
    6MOL   H298 2208   2.388   4.949   1.496 -0.4088 -0.2210 -0.3121
    6MOL   H299 2209   2.449   5.179   1.478 -0.9083  1.1130  1.2631
    6MOL   H300 2210   2.598   5.096   1.542 -0.2643 -0.2612 -0.7045
    6MOL   H301 2211   2.542   5.132   1.766 -0.3333  0.8564  1.0289
    6MOL   H302 2212   2.396   5.214   1.746  0.6722 -2.9813  1.7929
    6MOL   H303 2213   2.665   5.317   1.635  1.1981 -1.0470  2.0494
    6MOL   H304 2214   2.515   5.403   1.619 -0.0989 -0.4541 -0.5675
    6MOL   H305 2215   2.576   5.377   1.782 -2.3132  0.7399 -0.4227
    6MOL   C306 2216   2.037   4.968   1.665  0.3518 -0.2713 -1.0031
    6MOL   C307 2217   1.979   4.963   1.520  0.6947 -0.2713 -0.7056
    6MOL   O308 2218   1.915   5.082   1.493 -0.0119  0.3536 -0.3547
    6MOL   C309 2219   1.997   5.177   1.433 -0.6702  0.1164  0.4737
    6MOL   C310 2220   1.898   5.278   1.378  0.7560  0.3045 -0.2296
    6MOL   C311 2221   1.952   5.401   1.288  0.4753  0.7481 -0.0967
    6MOL   C312 2222   1.836   5.494   1.233 -0.7163  0.0387  0.2941
    6MOL   H313 2223   1.981   4.893   1.722  1.0204  2.1033  2.9309
    6MOL   H314 2224   2.013   5.062   1.715 -2.2358 -0.9901 -0.8172
    6MOL   H315 2225   2.064   4.947   1.454  1.0397 -0.9233 -0.1157
    6MOL   H316 2226   2.055   5.130   1.353  0.0061  2.5946 -0.5408
    6MOL   H317 2227   2.059   5.225   1.509 -0.1328  2.1582 -1.2010
    6MOL   H318 2228   1.847   5.319   1.465  0.0976 -1.1214  0.0655
    6MOL   H319 2229   1.813   5.236   1.324  1.3200 -0.9748 -0.1411
    6MOL   H320 2230   2.022   5.449   1.357  2.1677  1.6716 -2.4147
    6MOL   H321 2231   2.011   5.375   1.201  1.0253  0.4423  0.3632
    6MOL   H322 2232   1.769   5.428   1.177 -0.8099 -0.2405  0.7364
    6MOL   H323 2233   1.886   5.569   1.172 -0.8609  1.8601  2.3655
    6MOL   H324 2234   1.768   5.550   1.297 -0.3127 -1.5871  2.1913
    6MOL   C325 2235   1.881   4.853   1.498  0.0058  0.0250  0.3014
    6MOL   C326 2236   1.930   4.701   1.498  0.3582  0.1857 -0.1840
    6MOL   O327 2237   1.814   4.617   1.491 -0.3740  0.1229 -0.1265
    6MOL   C328 2238   1.767   4.569   1.618 -0.4247  0.3497  0.3443
    6MOL   C329 2239   1.639   4.496   1.598 -0.7351 -0.6186 -0.3647
    6MOL   C330 2240   1.552   4.599   1.525 -0.2969  0.0235  0.0697
    6MOL   C331 2241   1.401   4.571   1.490  0.1169  0.4724  0.7413
    6MOL   H332 2242   1.833   4.865   1.401  2.3407 -1.8025 -1.1398
    6MOL   H333 2243   1.794   4.862   1.563 -1.1368  0.4770 -1.2563
    6MOL   H334 2244   1.992   4.692   1.587  1.5562 -2.2355 -1.2137
    6MOL   H335 2245   1.755   4.645   1.695 -1.7790 -0.0313  0.5148
    6MOL   H336 2246   1.839   4.499   1.659 -0.2402  1.2470  1.5959
    6MOL   H337 2247   1.658   4.408   1.538 -0.0412  0.0324 -1.1106
    6MOL   H338 2248   1.603   4.457   1.693 -0.7864 -1.3509 -0.6859
    6MOL   H339 2249   1.606   4.626   1.434 -2.0970  1.3586 -0.6370
    6MOL   H340 2250   1.543   4.691   1.583  0.6706  0.3773 -0.3281
    6MOL   H341 2251   1.347   4.657   1.451  0.1001 -0.0049 -0.3030
    6MOL   H342 2252   1.355   4.547   1.586 -0.0501 -0.0761  0.5220
    6MOL   H343 2253   1.388   4.490   1.419  2.0096  0.9974 -0.2445
    6MOL   C344 2254   2.017   4.662   1.382  0.3214 -0.1280 -0.1936
    6MOL   C345 2255   2.163   4.678   1.388 -0.1831  0.4420  0.5186
    6MOL   O346 2256   2.220   4.673   1.257 -0.2196  0.4959  0.3266
    6MOL   C347 2257   2.200   4.797   1.187  0.7239 -0.6542  0.0269
    6MOL   C348 2258   2.228   4.782   1.042  0.1943 -0.7073  0.2054
    6MOL   C349 2259   2.110   4.712   0.974 -0.3013 -0.0703  0.3723
    6MOL   C350 2260   2.136   4.658   0.839 -0.5842 -0.1497  0.1142
    6MOL   H351 2261   2.000   4.555   1.371 -1.7306 -0.4100  4.3618
    6MOL   H352 2262   1.969   4.699   1.292 -0.2800 -2.0538 -0.6950
    6MOL   H353 2263   2.189   4.774   1.432 -0.9908  0.6438  0.5516
    6MOL   H354 2264   2.271   4.870   1.225 -0.5581  0.3199  0.6159
    6MOL   H355 2265   2.096   4.829   1.186  1.5446  2.1816  0.6349
    6MOL   H356 2266   2.325   4.735   1.026  0.1737 -1.6906  2.7348
    6MOL   H357 2267   2.256   4.883   1.010 -2.2375  0.0241  0.3035
    6MOL   H358 2268   2.084   4.627   1.038  0.7969 -0.3537  0.4517
    6MOL   H359 2269   2.018   4.769   0.972  0.4738  1.2251  1.0602
    6MOL   H360 2270   2.057   4.597   0.797  0.9084 -0.7403 -1.8872
    6MOL   H361 2271   2.222   4.592   0.828  0.5143  1.2636 -0.0099
    6MOL   H362 2272   2.148   4.748   0.779  1.5553 -1.1753 -1.0627
    6MOL   C363 2273   2.237   4.584   1.484 -0.4162 -0.1652  0.3681
    6MOL   C364 2274   2.382   4.621   1.510 -0.1885  0.5723  0.3330
    6MOL   O365 2275   2.451   4.548   1.615  0.7672 -0.0330 -0.1639
    6MOL   C366 2276   2.536   4.640   1.696  0.0118 -0.0284 -0.2734
    6MOL   C367 2277   2.665   4.668   1.613 -0.5914  0.3142 -0.4159
    6MOL   C368 2278   2.742   4.535   1.584  0.7418  0.6636 -0.1763
    6MOL   C369 2279   2.883   4.554   1.533 -0.6117  0.0883 -0.7642
    6MOL   H370 2280   2.228   4.480   1.453  0.0119 -0.3633  0.9071
    6MOL   H371 2281   2.198   4.574   1.585  0.0569 -0.5261  0.5146
    6MOL   H372 2282   2.381   4.726   1.537  0.6759  0.5808  0.3416
    6MOL   H373 2283   2.562   4.584   1.786 -0.2697  0.8294  0.3453
    6MOL   H374 2284   2.487   4.731   1.730  0.7417  0.3002 -0.1026
    6MOL   H375 2285   2.727   4.731   1.677  0.2859 -2.3181  1.3891
    6MOL   H376 2286   2.650   4.723   1.520  1.6153 -1.0719 -1.6343
    6MOL   H377 2287   2.686   4.496   1.499  0.4241  2.7011 -0.9150
    6MOL   H378 2288   2.742   4.456   1.660 -0.8512 -0.4534 -1.3060
    6MOL   H379 2289   2.895   4.625   1.452 -0.8761  2.4839  1.2293
    6MOL   H380 2290   2.948   4.587   1.615 -0.9096  4.9648 -2.3670
    6MOL   H381 2291   2.932   4.461   1.504 -2.7827 -1.2973 -0.1149
    6MOL   H382 2292   2.444   4.623   1.421  1.6991 -1.8284  1.5259
    7MOL     C1 2293   5.606   1.867   3.677  0.4180 -0.1830 -0.0873
    7MOL     C2 2294   5.510   1.832   3.791 -0.7031 -0.0057  0.3096
    7MOL     O3 2295   5.574   1.845   3.920  0.4004 -0.4966  0.2305
    7MOL     C4 2296   5.684   1.765   3.957  0.4582 -0.1083  0.4230
    7MOL     C5 2297   5.704   1.763   4.108 -0.5294 -0.7235 -0.9510
    7MOL     C6 2298   5.579   1.706   4.183  0.0427  0.6797  0.6909
    7MOL     C7 2299   5.587   1.738   4.332  0.1906  0.5395  0.7189
    7MOL     H8 2300   5.663   1.957   3.701  0.3280  0.0890 -0.8769
    7MOL     H9 2301   5.679   1.790   3.652  0.0758  0.3477 -2.8546
    7MOL    H10 2302   5.495   1.725   3.772  0.1737  0.0739 -0.9290
    7MOL    H11 2303   5.673   1.666   3.914  0.2124 -0.0919  0.4475
    7MOL    H12 2304   5.775   1.801   3.908  0.7760 -0.6249  0.6322
    7MOL    H13 2305   5.707   1.868   4.136 -0.8445 -0.7593 -0.7841
    7MOL    H14 2306   5.799   1.716   4.133 -0.6708 -0.9650 -0.8695
    7MOL    H15 2307   5.574   1.597   4.181 -1.4099  0.7365  0.9154
    7MOL    H16 2308   5.490   1.743   4.132  0.6241  2.4020  0.9010
    7MOL    H17 2309   5.651   1.820   4.363 -0.6472  0.9582  1.3802
    7MOL    H18 2310   5.643   1.658   4.380 -0.0215 -0.7534 -1.1141
    7MOL    H19 2311   5.485   1.752   4.368 -0.1465  1.5379 -0.5940
    7MOL    H20 2312   5.556   1.896   3.585  1.9899 -0.5338 -1.0718
    7MOL    C21 2313   5.394   1.925   3.782  0.7347 -0.1513  0.1779
    7MOL    C22 2314   5.292   1.896   3.893  0.2500 -0.4955 -0.4560
    7MOL    O23 2315   5.193   1.998   3.893 -0.1447  0.4612 -0.8451
    7MOL    C24 2316   5.196   2.079   4.014  0.1792 -0.4942 -0.0582
    7MOL    C25 2317   5.073   2.173   4.006  1.0827 -0.1396 -1.1124
    7MOL    C26 2318   5.041   2.235   4.149 -0.1057  0.0202 -0.4029
    7MOL    C27 2319   4.945   2.349   4.147 -0.3253  0.5978  0.3317
    7MOL    H28 2320   5.357   1.911   3.680  1.4222  0.8440 -0.2213
    7MOL    H29 2321   5.430   2.028   3.785  0.0128  0.1013  0.1612
    7MOL    H30 2322   5.348   1.895   3.987 -0.6675  1.4712  0.1229
    7MOL    H31 2323   5.281   2.147   4.021 -0.5375  0.4229 -0.1049
    7MOL    H32 2324   5.193   2.003   4.093 -0.3107 -1.0868 -0.6375
    7MOL    H33 2325   5.091   2.257   3.938 -1.4860  0.9179 -0.5649
    7MOL    H34 2326   4.985   2.120   3.968  1.1244 -0.2875 -0.9995
    7MOL    H35 2327   4.991   2.148   4.191  0.4690  0.7543  1.8974
    7MOL    H36 2328   5.121   2.265   4.217  1.3588 -0.9650 -1.6743
    7MOL    H37 2329   4.860   2.321   4.085 -1.2006 -0.6732  2.0656
    7MOL    H38 2330   4.911   2.353   4.250  0.5727  0.2536  0.6493
    7MOL    H39 2331   4.978   2.448   4.116 -0.0177  0.2203 -0.5483
    7MOL    C40 2332   5.214   1.765   3.859  0.1507  0.0302 -0.9498
    7MOL    C41 2333   5.172   1.692   3.988 -0.1536  0.9410 -0.2939
    7MOL    O42 2334   5.150   1.558   3.949  0.4612 -0.0665 -0.3396
    7MOL    C43 2335   5.240   1.448   3.989  0.1835 -0.4920 -0.1256
    7MOL    C44 2336   5.154   1.319   3.977 -0.7508 -0.5191  0.9087
    7MOL    C45 2337   5.124   1.281   3.835  0.4670  0.2044 -0.9448
    7MOL    C46 2338   5.049   1.145   3.814 -0.0643 -0.1690 -0.0743
    7MOL    H47 2339   5.272   1.687   3.810 -0.0320 -2.3970  2.5249
    7MOL    H48 2340   5.125   1.769   3.798 -1.8299  1.5352  1.8879
    7MOL    H49 2341   5.252   1.703   4.062 -1.7120 -1.2249  1.7862
    7MOL    H50 2342   5.280   1.468   4.088  0.9898  0.0191 -0.5529
    7MOL    H51 2343   5.329   1.430   3.929  1.7435  1.5047  1.5355
    7MOL    H52 2344   5.069   1.322   4.045  1.7455  0.5224  4.0863
    7MOL    H53 2345   5.205   1.233   4.021  0.8791 -0.3536 -0.6021
    7MOL    H54 2346   5.219   1.264   3.785 -0.8598 -2.1501 -2.8113
    7MOL    H55 2347   5.063   1.362   3.797  0.8236  1.1841  0.5237
    7MOL    H56 2348   4.947   1.144   3.851 -0.7590  1.7269 -1.8316
    7MOL    H57 2349   5.057   1.120   3.708 -0.2410 -1.8955  0.3120
    7MOL    H58 2350   5.109   1.071   3.866 -2.3232 -2.1592 -0.2317
    7MOL    C59 2351   5.037   1.745   4.034 -0.7006 -0.1613  0.6072
    7MOL    C60 2352   4.980   1.693   4.171  0.7721  0.0158  0.6331
    7MOL    O61 2353   4.902   1.801   4.225  0.3572 -0.2306  0.3388
    7MOL    C62 2354   4.970   1.877   4.322  0.3803 -0.6556 -0.5027
    7MOL    C63 2355   4.856   1.949   4.403  0.5734  0.0093  0.0191
    7MOL    C64 2356   4.781   1.860   4.507 -0.6795 -0.1593 -0.1689
    7MOL    C65 2357   4.856   1.780   4.619 -0.3979  0.5947 -0.3697
    7MOL    H66 2358   5.047   1.853   4.044 -0.2539 -0.1192 -0.3164
    7MOL    H67 2359   4.954   1.752   3.964 -1.1341  2.1259  1.3277
    7MOL    H68 2360   5.066   1.667   4.234  0.5694 -1.2631  0.3914
    7MOL    H69 2361   5.045   1.943   4.278 -0.5446  0.2490 -0.7362
    7MOL    H70 2362   5.012   1.806   4.393 -3.2805 -3.0588 -0.5858
    7MOL    H71 2363   4.899   2.031   4.460 -1.2601 -0.1245  1.6402
    7MOL    H72 2364   4.779   1.979   4.333 -0.8779  0.9541  1.9755
    7MOL    H73 2365   4.700   1.924   4.545  0.8503  0.4971  2.0553
    7MOL    H74 2366   4.725   1.788   4.448 -1.8149  1.9576 -1.7820
    7MOL    H75 2367   4.935   1.716   4.581 -1.8765  0.0049 -2.5421
    7MOL    H76 2368   4.901   1.848   4.691 -2.9686  1.8109  0.1749
    7MOL    H77 2369   4.780   1.726   4.676  0.2263  0.8734  0.7253
    7MOL    C78 2370   4.884   1.578   4.154  0.3615 -0.3297 -0.0284
    7MOL    C79 2371   4.855   1.495   4.279 -0.0209 -0.1901  0.4714
    7MOL    O80 2372   4.980   1.440   4.329  0.0540 -0.5848  0.1746
    7MOL    C81 2373   4.996   1.415   4.465 -0.0915  0.2187 -0.5262
    7MOL    C82 2374   5.151   1.396   4.486  0.0095  0.5949  0.3335
    7MOL    C83 2375   5.184   1.354   4.627  0.4363  0.0184 -0.1783
    7MOL    C84 2376   5.335   1.334   4.644  0.0632  0.0141  0.4077
    7MOL    H85 2377   4.919   1.520   4.069 -1.6322 -0.9902 -0.4239
    7MOL    H86 2378   4.790   1.618   4.115  2.3381  3.0287 -1.5495
    7MOL    H87 2379   4.812   1.565   4.351 -1.8023  0.0260 -0.7778
    7MOL    H88 2380   4.924   1.337   4.489  0.0102  0.3302  0.1379
    7MOL    H89 2381   4.959   1.500   4.522  0.7594 -0.7867  1.5555
    7MOL    H90 2382   5.188   1.327   4.410  0.1166 -0.7878  1.6119
    7MOL    H91 2383   5.208   1.487   4.470  1.2738 -0.5900 -2.2027
    7MOL    H92 2384   5.129   1.262   4.646 -0.7872  0.5025 -1.2532
    7MOL    H93 2385   5.149   1.435   4.692 -0.5982  0.3076 -1.0738
    7MOL    H94 2386   5.350   1.290   4.743  0.9886 -1.0893 -0.2271
    7MOL    H95 2387   5.374   1.271   4.565 -0.0888 -0.5623  0.7910
    7MOL    H96 2388   5.382   1.432   4.641  0.9828 -0.4676 -1.3522
    7MOL    C97 2389   4.760   1.378   4.256  0.3334  0.7779  0.4758
    7MOL    C98 2390   4.608   1.420   4.264 -0.0298  0.4182  0.2283
    7MOL    O99 2391   4.568   1.514   4.154 -0.1993  0.3857  0.1461
    7MOL   C100 2392   4.443   1.575   4.168 -0.1735  0.2769 -0.6808
    7MOL   C101 2393   4.452   1.723   4.161 -0.5790 -0.0610 -0.2644
    7MOL   C102 2394   4.512   1.772   4.026 -0.1278  0.3020 -0.2289
    7MOL   C103 2395   4.571   1.914   4.022  0.1202  0.0362  0.3043
    7MOL   H104 2396   4.774   1.308   4.338  0.8341 -0.8628 -1.0061
    7MOL   H105 2397   4.781   1.318   4.168 -1.1705  0.1536  0.5356
    7MOL   H106 2398   4.598   1.480   4.354  1.6753  1.7883 -0.4758
    7MOL   H107 2399   4.402   1.549   4.266  1.3165  0.8292  0.1122
    7MOL   H108 2400   4.370   1.533   4.099 -2.0273 -1.9945  2.5404
    7MOL   H109 2401   4.515   1.750   4.246  0.2585  0.0845 -0.9284
    7MOL   H110 2402   4.351   1.762   4.175 -0.3006  0.3052  0.7715
    7MOL   H111 2403   4.441   1.771   3.944  0.9777 -0.3001 -1.2010
    7MOL   H112 2404   4.595   1.704   4.006  0.9863  0.9785  1.9019
    7MOL   H113 2405   4.642   1.929   3.940 -1.6311 -2.7746 -1.8234
    7MOL   H114 2406   4.491   1.987   4.025  2.6536  2.9421 -0.4212
    7MOL   H115 2407   4.630   1.917   4.114  2.8064 -1.0751 -1.3091
    7MOL   C116 2408   4.514   1.294   4.261  0.0522  0.7703 -0.1774
    7MOL   C117 2409   4.515   1.224   4.400 -0.2760 -0.2896  0.1351
    7MOL   O118 2410   4.479   1.325   4.496 -0.1945  0.3092  0.2241
    7MOL   C119 2411   4.576   1.367   4.593 -0.6396  0.0839  0.2413
    7MOL   C120 2412   4.510   1.462   4.699  0.1450  0.1215  0.7600
    7MOL   C121 2413   4.474   1.606   4.641  0.1771 -0.4985 -0.2723
    7MOL   C122 2414   4.450   1.721   4.738 -0.5646  0.6093  0.3623
    7MOL   H123 2415   4.409   1.321   4.252 -0.6565 -1.3756  1.3136
    7MOL   H124 2416   4.540   1.220   4.186 -0.7373  0.8417 -0.5205
    7MOL   H125 2417   4.615   1.188   4.424 -0.6256 -1.2603  0.1389
    7MOL   H126 2418   4.668   1.406   4.548  0.0741 -1.1743  0.6056
    7MOL   H127 2419   4.598   1.279   4.653 -1.9814 -0.3288  0.1520
    7MOL   H128 2420   4.576   1.480   4.784  1.8230 -3.3434  0.2764
    7MOL   H129 2421   4.422   1.417   4.747  0.5668 -0.2461  1.2010
    7MOL   H130 2422   4.554   1.649   4.581 -1.0596 -0.2151 -1.7536
    7MOL   H131 2423   4.390   1.605   4.572  0.4780  0.9863 -0.6789
    7MOL   H132 2424   4.438   1.821   4.696 -3.7803 -0.2139 -0.8204
    7MOL   H133 2425   4.536   1.721   4.804 -0.7497  0.0976  0.6082
    7MOL   H134 2426   4.356   1.720   4.793 -2.6245  4.8131 -2.7990
    7MOL   C135 2427   4.412   1.105   4.427 -0.1408  0.2151  0.4811
    7MOL   C136 2428   4.432   1.038   4.567  0.1511  0.5487  0.2085
    7MOL   O137 2429   4.333   0.946   4.595  0.2154  0.1021 -0.2866
    7MOL   C138 2430   4.205   0.994   4.635 -0.5843 -0.3568 -0.4706
    7MOL   C139 2431   4.114   0.882   4.694  0.1162  0.0882  0.1509
    7MOL   C140 2432   4.186   0.780   4.778  0.3982  0.2027  0.0960
    7MOL   C141 2433   4.111   0.659   4.830  0.1512  0.4631 -0.0562
    7MOL   H142 2434   4.430   1.039   4.342 -2.1239  1.2841 -0.7973
    7MOL   H143 2435   4.310   1.143   4.418 -0.0252  0.2594 -0.7103
    7MOL   H144 2436   4.425   1.104   4.654  0.3132 -2.8641  2.9218
    7MOL   H145 2437   4.154   1.025   4.543 -1.6414 -0.5780  0.0300
    7MOL   H146 2438   4.218   1.080   4.701 -0.1519  1.9038 -3.3737
    7MOL   H147 2439   4.070   0.832   4.607  0.2353  3.2570 -1.8181
    7MOL   H148 2440   4.038   0.926   4.758  0.5921  1.4955 -0.2454
    7MOL   H149 2441   4.273   0.748   4.721  0.0251  2.0806 -1.5969
    7MOL   H150 2442   4.227   0.839   4.860  0.9864  1.5830 -1.1676
    7MOL   H151 2443   4.093   0.589   4.749 -1.2288 -0.5755  1.1136
    7MOL   H152 2444   4.176   0.616   4.906 -0.6501 -1.6370 -0.5372
    7MOL   H153 2445   4.019   0.676   4.886  0.0405 -2.2813  0.6693
    7MOL   C154 2446   4.561   0.961   4.569 -0.8630  0.8625 -0.9576
    7MOL   C155 2447   4.599   0.921   4.715  0.1130  0.4013 -0.0840
    7MOL   O156 2448   4.635   1.040   4.790  0.1829  0.1408  0.3438
    7MOL   C157 2449   4.597   1.042   4.926  0.1332  0.0007 -0.9363
    7MOL   C158 2450   4.621   1.180   4.992  0.0305 -0.4179 -0.1856
    7MOL   C159 2451   4.593   1.182   5.135 -0.4001  0.3128 -0.8623
    7MOL   C160 2452   4.696   1.098   5.221  0.3109 -0.3711 -1.3131
    7MOL   H161 2453   4.652   1.002   4.525  1.6411 -3.2854  0.0453
    7MOL   H162 2454   4.538   0.869   4.514 -1.2955 -0.0499  0.7262
    7MOL   H163 2455   4.510   0.875   4.758 -0.0911  0.9125  0.0423
    7MOL   H164 2456   4.491   1.022   4.944  0.6845 -1.8001  0.4275
    7MOL   H165 2457   4.657   0.971   4.983  0.1175  1.6086  1.1376
    7MOL   H166 2458   4.558   1.259   4.951  0.8230 -1.4948 -3.6131
    7MOL   H167 2459   4.719   1.223   4.971  1.5999 -2.9514  1.6038
    7MOL   H168 2460   4.608   1.284   5.169  1.9545 -0.6885  1.2327
    7MOL   H169 2461   4.490   1.151   5.153 -0.0939 -0.7551 -0.8816
    7MOL   H170 2462   4.711   1.126   5.325 -0.3115 -0.0526 -1.3110
    7MOL   H171 2463   4.674   0.993   5.234 -1.1733 -0.0964 -1.5893
    7MOL   H172 2464   4.798   1.092   5.182  0.3397  1.6785 -1.6080
    7MOL   C173 2465   4.714   0.813   4.736 -0.4421  0.2046 -0.8391
    7MOL   C174 2466   4.718   0.688   4.646 -0.4883 -0.0241  0.6061
    7MOL   O175 2467   4.838   0.608   4.668  0.1407  0.6208 -0.6047
    7MOL   C176 2468   4.934   0.623   4.565  0.5510 -0.1936 -0.0756
    7MOL   C177 2469   5.063   0.535   4.583 -0.0313 -0.6402  0.5267
    7MOL   C178 2470   5.143   0.574   4.703 -0.0850  0.3344  0.2984
    7MOL   C179 2471   5.266   0.474   4.730 -0.3279 -0.4740 -0.9010
    7MOL   H180 2472   4.704   0.779   4.840  2.1142 -4.1571 -1.8959
    7MOL   H181 2473   4.810   0.862   4.729  0.2553 -1.0873 -0.5674
    7MOL   H182 2474   4.692   0.719   4.544  0.0467 -2.8650 -0.4221
    7MOL   H183 2475   4.965   0.727   4.562 -2.2105  0.6906  0.3353
    7MOL   H184 2476   4.899   0.592   4.467 -1.2851  1.3612  0.0505
    7MOL   H185 2477   5.131   0.552   4.499  0.4580 -3.1823  0.3718
    7MOL   H186 2478   5.037   0.429   4.593 -1.1275 -0.5059 -0.6466
    7MOL   H187 2479   5.165   0.680   4.684 -1.8540  0.6792  0.1679
    7MOL   H188 2480   5.075   0.573   4.788 -2.4106  3.3496 -1.4312
    7MOL   H189 2481   5.336   0.513   4.804 -0.2884 -1.6696 -0.2966
    7MOL   H190 2482   5.231   0.382   4.777  1.2603 -0.5032  0.2813
    7MOL   H191 2483   5.329   0.464   4.642 -0.5128  1.7806 -1.3198
    7MOL   C192 2484   4.612   0.587   4.692  0.2703  0.2999  0.1975
    7MOL   C193 2485   4.584   0.467   4.587 -0.9834 -0.1341  1.1810
    7MOL   O194 2486   4.478   0.385   4.635 -0.6011 -0.1589  0.0080
    7MOL   C195 2487   4.486   0.321   4.767  0.0408  0.7003 -0.0370
    7MOL   C196 2488   4.357   0.241   4.775  0.0038 -0.8183  0.0862
    7MOL   C197 2489   4.328   0.156   4.895 -0.2742 -0.3645  0.0636
    7MOL   C198 2490   4.443   0.071   4.943  0.7849  1.1247 -0.2268
    7MOL   H199 2491   4.522   0.646   4.708 -0.3662 -0.8599  0.9106
    7MOL   H200 2492   4.649   0.545   4.785 -0.8401  0.8111  0.8706
    7MOL   H201 2493   4.673   0.409   4.561 -1.2535 -0.7465  1.5929
    7MOL   H202 2494   4.502   0.406   4.833 -4.2818  0.9858  0.7901
    7MOL   H203 2495   4.577   0.262   4.770 -1.8144 -2.2612 -0.4806
    7MOL   H204 2496   4.270   0.303   4.751 -0.2931 -0.3402  2.2807
    7MOL   H205 2497   4.369   0.174   4.689  1.7194 -1.1690  0.5837
    7MOL   H206 2498   4.235   0.099   4.891 -0.0797 -0.5880 -1.5793
    7MOL   H207 2499   4.314   0.217   4.984 -0.4754 -2.2023  1.3367
    7MOL   H208 2500   4.466   7.801   4.864  3.1772  2.1161 -0.4946
    7MOL   H209 2501   4.529   0.132   4.971  2.1901  0.0943 -2.1897
    7MOL   H210 2502   4.398   0.027   5.032 -0.6423 -0.0934 -1.5191
    7MOL   C211 2503   4.520   0.520   4.451 -0.3046  0.9614  0.5145
    7MOL   C212 2504   4.622   0.540   4.334 -0.1643  0.9378  0.1974
    7MOL   O213 2505   4.669   0.408   4.299 -0.1399 -0.1736 -0.1314
    7MOL   C214 2506   4.779   0.411   4.213 -0.5980 -0.1251  0.3263
    7MOL   C215 2507   4.842   0.276   4.217 -0.0989  0.4211  1.1596
    7MOL   C216 2508   4.762   0.162   4.158  0.0960  0.1782 -0.6158
    7MOL   C217 2509   4.845   0.041   4.129 -0.2321  0.7791 -0.1410
    7MOL   H218 2510   4.478   0.618   4.475  1.7819  1.2833  2.9835
    7MOL   H219 2511   4.444   0.454   4.410  1.1616 -0.1296 -0.5096
    7MOL   H220 2512   4.710   0.600   4.358  1.3956 -0.9944 -0.5427
    7MOL   H221 2513   4.766   0.457   4.115 -0.7810  2.8904  1.6952
    7MOL   H222 2514   4.859   0.472   4.256  1.1066 -2.0465 -0.0407
    7MOL   H223 2515   4.938   0.281   4.165 -0.9100  0.3401 -0.3631
    7MOL   H224 2516   4.874   0.255   4.319  0.6686 -2.0597  0.4495
    7MOL   H225 2517   4.723   0.208   4.067 -1.3522  0.3429  0.0703
    7MOL   H226 2518   4.683   0.143   4.231  0.9489  0.7784  0.4937
    7MOL   H227 2519   4.942   0.067   4.088 -0.3430  2.1138  0.4070
    7MOL   H228 2520   4.799   7.777   4.056 -1.5040 -0.0601  1.3789
    7MOL   H229 2521   4.867   7.780   4.216  1.4950 -0.8359 -1.6855
    7MOL   C230 2522   4.555   0.618   4.216  0.4769  0.0469  0.2009
    7MOL   C231 2523   4.532   0.767   4.241 -0.5070 -0.1692  0.3231
    7MOL   O232 2524   4.646   0.841   4.291 -1.3046  0.2391  0.0988
    7MOL   C233 2525   4.760   0.857   4.207  0.0261  0.7426  0.0590
    7MOL   C234 2526   4.875   0.906   4.291 -0.3601 -0.0817  0.2394
    7MOL   C235 2527   5.018   0.880   4.230 -0.3286 -0.2153 -0.1269
    7MOL   C236 2528   5.093   1.009   4.202 -0.9001 -0.7745  0.1177
    7MOL   H237 2529   4.462   0.568   4.188  0.9292 -1.2858  1.0049
    7MOL   H238 2530   4.618   0.599   4.130 -1.4257  0.7866 -1.3935
    7MOL   H239 2531   4.444   0.770   4.306 -1.3722 -1.1859 -0.7825
    7MOL   H240 2532   4.787   0.764   4.157 -1.1262 -2.0310  4.2902
    7MOL   H241 2533   4.735   0.929   4.130  1.5011  1.2195  0.0042
    7MOL   H242 2534   4.862   1.011   4.319 -0.2913 -0.1199  0.4113
    7MOL   H243 2535   4.877   0.852   4.385  1.6358 -0.2763  0.1024
    7MOL   H244 2536   5.029   0.813   4.146  2.1824 -1.1414  0.8699
    7MOL   H245 2537   5.082   0.828   4.301 -0.1506 -0.0484 -0.1637
    7MOL   H246 2538   5.145   1.063   4.281 -0.3372 -1.8676  0.4991
    7MOL   H247 2539   5.030   1.085   4.155  1.0921  2.0098  1.8103
    7MOL   H248 2540   5.171   0.973   4.135 -0.8548 -2.2854  0.9678
    7MOL   C249 2541   4.474   0.840   4.118 -0.2590 -0.2835  0.2089
    7MOL   C250 2542   4.321   0.809   4.078  0.0798  0.9210 -0.0521
    7MOL   O251 2543   4.289   0.873   3.961  0.0302 -0.2619  0.5435
    7MOL   C252 2544   4.341   0.821   3.839 -0.5926 -0.4391 -1.0970
    7MOL   C253 2545   4.305   0.931   3.734  0.3344 -0.3707 -0.1265
    7MOL   C254 2546   4.154   0.952   3.698 -0.0519 -0.1481  0.1982
    7MOL   C255 2547   4.127   0.956   3.547  0.2602 -0.3449  0.4867
    7MOL   H256 2548   4.537   0.821   4.031  1.2540 -0.1827  1.2710
    7MOL   H257 2549   4.479   0.948   4.124  3.1332 -0.4112  0.3173
    7MOL   H258 2550   4.311   0.702   4.058  2.0510  0.9243 -1.1781
    7MOL   H259 2551   4.306   0.721   3.816  1.8385 -1.4799 -0.4757
    7MOL   H260 2552   4.450   0.818   3.837 -0.6245 -2.4692 -0.5264
    7MOL   H261 2553   4.347   1.030   3.751 -0.4625  0.1027 -0.8746
    7MOL   H262 2554   4.351   0.903   3.639  0.7501 -0.7505  0.1880
    7MOL   H263 2555   4.095   0.870   3.740 -0.6455  0.0821 -0.1748
    7MOL   H264 2556   4.115   1.042   3.745 -2.2997 -0.6193 -0.6863
    7MOL   H265 2557   4.033   0.997   3.511  0.4309 -0.2082  0.2011
    7MOL   H266 2558   4.130   0.857   3.501 -2.1586  0.6561 -1.8975
    7MOL   H267 2559   4.190   1.037   3.511 -1.7144  0.3276 -1.6002
    7MOL   C268 2560   4.207   0.856   4.175 -0.6547 -0.0027  0.5503
    7MOL   C269 2561   4.067   0.820   4.139 -0.5711 -0.3852  0.5157
    7MOL   O270 2562   4.055   0.681   4.163 -0.1139  0.1695  0.1638
    7MOL   C271 2563   3.994   0.605   4.063 -0.6931  0.0439  0.0142
    7MOL   C272 2564   4.085   0.582   3.951 -0.2816 -0.2075 -0.2094
    7MOL   C273 2565   4.016   0.501   3.831  0.5512  0.4748  0.0275
    7MOL   C274 2566   4.083   0.510   3.693  0.3006  0.0811 -0.1728
    7MOL   H275 2567   4.222   0.822   4.278  1.7946  1.4045  0.6983
    7MOL   H276 2568   4.201   0.964   4.187 -1.9828 -0.4303  4.9463
    7MOL   H277 2569   4.049   0.846   4.035 -2.4451 -3.2631  0.0505
    7MOL   H278 2570   3.972   0.501   4.089 -2.1189 -0.1872 -1.9991
    7MOL   H279 2571   3.898   0.646   4.033  0.0033  0.3435 -1.8773
    7MOL   H280 2572   4.118   0.674   3.902  0.3310 -0.2032  0.2089
    7MOL   H281 2573   4.171   0.526   3.985  0.3333  0.7032 -0.2313
    7MOL   H282 2574   3.910   0.530   3.828  0.0229 -1.2382  1.7106
    7MOL   H283 2575   3.992   0.397   3.853  0.4708  0.8904  1.9907
    7MOL   H284 2576   4.185   0.476   3.711  0.5597  0.6852 -0.4632
    7MOL   H285 2577   4.084   0.613   3.656 -0.9107  0.1877  0.0662
    7MOL   H286 2578   4.037   0.442   3.621 -0.7903 -1.5905  2.0540
    7MOL   C287 2579   3.959   0.901   4.215  0.4843  0.3659 -0.6001
    7MOL   C288 2580   3.808   0.872   4.168 -0.6052  0.4743  0.1669
    7MOL   O289 2581   3.725   0.989   4.166  0.1973 -0.2653  0.5724
    7MOL   C290 2582   3.739   1.066   4.045  0.0595  0.4711 -0.8150
    7MOL   C291 2583   3.668   1.197   4.079 -0.2464 -0.0628  0.1971
    7MOL   C292 2584   3.668   1.288   3.953  0.1053  0.5505  0.0411
    7MOL   C293 2585   3.797   1.380   3.933  0.7691 -0.6924  0.0665
    7MOL   H294 2586   3.976   1.007   4.194 -0.2617  1.0337  1.9415
    7MOL   H295 2587   3.975   0.889   4.323 -0.2488  1.8822 -0.3135
    7MOL   H296 2588   3.806   0.840   4.063  2.4235 -0.0929  0.2434
    7MOL   H297 2589   3.843   1.093   4.029  0.4150  0.2093  0.9390
    7MOL   H298 2590   3.708   1.018   3.952 -0.9654  1.6601 -1.0987
    7MOL   H299 2591   3.734   1.243   4.153  0.8906 -0.0674 -0.8054
    7MOL   H300 2592   3.569   1.172   4.116 -1.3984  1.1836 -1.9350
    7MOL   H301 2593   3.578   1.347   3.935 -0.4982 -0.4701 -0.2794
    7MOL   H302 2594   3.669   1.226   3.864 -0.0343 -0.1423  0.5239
    7MOL   H303 2595   3.825   1.440   4.020  1.7248 -0.5347 -0.3496
    7MOL   H304 2596   3.883   1.315   3.919  0.9314 -0.3998 -0.3313
    7MOL   H305 2597   3.771   1.450   3.853 -0.5256  0.3816  1.3962
    7MOL   C306 2598   3.734   0.772   4.258 -0.2050 -0.4590 -0.0880
    7MOL   C307 2599   3.605   0.719   4.204  0.3826  0.3706  0.3934
    7MOL   O308 2600   3.617   0.622   4.102 -0.0304  0.5675 -0.1939
    7MOL   C309 2601   3.624   0.490   4.159 -0.1593  0.6987 -0.1497
    7MOL   C310 2602   3.648   0.382   4.054 -0.3886  0.2994  0.2270
    7MOL   C311 2603   3.535   0.354   3.965  0.3722  0.5838 -0.5452
    7MOL   C312 2604   3.589   0.295   3.841 -0.4066  0.0196  0.7824
    7MOL   H313 2605   3.805   0.693   4.280 -1.7256 -2.0096 -0.6272
    7MOL   H314 2606   3.727   0.815   4.358 -0.1438  1.2876 -0.8146
    7MOL   H315 2607   3.564   0.672   4.293 -0.7770  0.8130  0.1024
    7MOL   H316 2608   3.529   0.479   4.212  0.0450 -0.8456 -0.0894
    7MOL   H317 2609   3.708   0.482   4.228 -1.1421 -0.1024  0.9851
    7MOL   H318 2610   3.665   0.282   4.093  1.2959 -0.2408 -1.8100
    7MOL   H319 2611   3.743   0.411   4.008 -0.9773  1.5905 -0.2125
    7MOL   H320 2612   3.463   0.294   4.020 -1.5191  2.1661 -1.2174
    7MOL   H321 2613   3.468   0.436   3.936 -1.5606 -1.4858 -2.1812
    7MOL   H322 2614   3.530   0.297   3.749  1.6157 -1.8510 -0.6214
    7MOL   H323 2615   3.620   0.193   3.863  2.4349  0.6814  0.1765
    7MOL   H324 2616   3.687   0.335   3.816 -0.0719 -1.1168  0.2108
    7MOL   C325 2617   3.499   0.821   4.147  0.6243 -0.1341  0.8452
    7MOL   C326 2618   3.356   0.778   4.143  0.3779 -0.2478 -0.3888
    7MOL   O327 2619   3.304   0.764   4.266 -0.0435 -0.2188  0.5842
    7MOL   C328 2620   3.181   0.689   4.272 -0.3730 -0.1458  0.3504
    7MOL   C329 2621   3.209   0.546   4.295 -0.4419 -0.3093  0.3362
    7MOL   C330 2622   3.289   0.523   4.424 -0.1831 -0.5215  0.0540
    7MOL   C331 2623   3.291   0.368   4.449  0.2022  0.1745  0.5947
    7MOL   H332 2624   3.522   0.842   4.043 -0.5683  0.0973  0.6203
    7MOL   H333 2625   3.499   0.920   4.193 -0.1483  0.4193 -0.3474
    7MOL   H334 2626   3.344   0.677   4.104 -0.7328  0.5391 -2.1096
    7MOL   H335 2627   3.109   0.703   4.191 -1.6897 -1.7365  1.2412
    7MOL   H336 2628   3.137   0.736   4.360 -1.3717  0.5958 -0.5307
    7MOL   H337 2629   3.123   0.481   4.308 -0.3207 -0.6114 -0.4051
    7MOL   H338 2630   3.264   0.502   4.212 -0.1585 -0.5784  0.6641
    7MOL   H339 2631   3.243   0.582   4.503  0.4250  0.8096 -0.5643
    7MOL   H340 2632   3.392   0.560   4.415 -0.2060  0.5189  3.2780
    7MOL   H341 2633   3.191   0.334   4.478 -0.1296 -0.7626 -1.5378
    7MOL   H342 2634   3.367   0.333   4.519  1.6181 -0.4421 -1.2159
    7MOL   H343 2635   3.309   0.320   4.353  0.9204  0.0092  0.8074
    7MOL   C344 2636   3.263   0.892   4.073 -0.3414 -0.2081 -1.0160
    7MOL   C345 2637   3.256   0.901   3.919  0.1711 -0.1387  0.5512
    7MOL   O346 2638   3.168   1.003   3.867 -0.6504  0.0228 -0.1710
    7MOL   C347 2639   3.233   1.112   3.802  0.7103 -0.0552  0.2579
    7MOL   C348 2640   3.142   1.238   3.795  0.2953  0.3370  0.0902
    7MOL   C349 2641   3.188   1.346   3.708 -0.4955  0.0297  0.1428
    7MOL   C350 2642   3.079   1.444   3.703 -0.0310  0.0487 -0.2676
    7MOL   H351 2643   3.157   0.879   4.096 -0.2015 -0.1902 -0.3367
    7MOL   H352 2644   3.287   0.991   4.111 -1.0096 -0.0332 -1.0496
    7MOL   H353 2645   3.355   0.917   3.878 -0.1565 -1.2112 -0.7205
    7MOL   H354 2646   3.260   1.086   3.700  0.9749  0.2584  0.2491
    7MOL   H355 2647   3.325   1.151   3.846  1.4172 -2.2063  0.7161
    7MOL   H356 2648   3.107   1.264   3.895 -0.5850 -3.2569  0.7764
    7MOL   H357 2649   3.050   1.202   3.749 -0.1510  1.4225  0.1108
    7MOL   H358 2650   3.280   1.389   3.749 -0.6163  0.1806  0.2600
    7MOL   H359 2651   3.215   1.316   3.608  2.0528 -0.2399  0.8786
    7MOL   H360 2652   3.051   1.472   3.804 -0.9050 -0.9138 -0.2342
    7MOL   H361 2653   2.985   1.412   3.657  0.8879 -1.6663 -1.0016
    7MOL   H362 2654   3.110   1.527   3.638 -0.7233  0.8837  0.4549
    7MOL   C363 2655   3.212   0.768   3.856 -0.1840 -0.1053 -0.6486
    7MOL   C364 2656   3.286   0.736   3.727  0.5103 -0.3681 -0.3965
    7MOL   O365 2657   3.415   0.718   3.767 -0.5217 -0.0964  0.1797
    7MOL   C366 2658   3.507   0.660   3.669  0.1038  0.5955  0.1600
    7MOL   C367 2659   3.643   0.704   3.729 -0.5440  0.4921 -0.0231
    7MOL   C368 2660   3.682   0.850   3.702 -0.1668  0.0961 -0.0613
    7MOL   C369 2661   3.826   0.886   3.745  0.3406  0.6201  0.4909
    7MOL   H370 2662   3.109   0.775   3.821 -0.3665  0.0103 -0.0946
    7MOL   H371 2663   3.227   0.686   3.926  0.1749  0.1804 -0.3861
    7MOL   H372 2664   3.276   0.819   3.657 -1.5585 -1.1852 -1.1179
    7MOL   H373 2665   3.484   0.690   3.567 -0.1165  0.4393  0.1642
    7MOL   H374 2666   3.496   0.554   3.689 -2.4268  0.8509  0.2353
    7MOL   H375 2667   3.720   0.640   3.686 -1.5449 -2.3240  2.2192
    7MOL   H376 2668   3.661   0.678   3.833  1.1190  2.0643  0.1054
    7MOL   H377 2669   3.613   0.920   3.749  0.0436  1.3909 -1.6288
    7MOL   H378 2670   3.663   0.872   3.597 -1.0506 -1.2528 -0.1865
    7MOL   H379 2671   3.841   0.993   3.733  1.8183  0.5254  1.2959
    7MOL   H380 2672   3.843   0.856   3.849 -1.9789  1.1663  1.0476
    7MOL   H381 2673   3.883   0.811   3.690 -1.3179  1.4856 -2.4706
    7MOL   H382 2674   3.245   0.650   3.674 -0.6886  0.4323 -0.7931
    8MOL     C1 2675   0.006   3.373   1.739  0.3643  0.9135  0.3342
    8MOL     C2 2676   0.013   3.223   1.713 -0.0509  0.6248 -0.6388
    8MOL     O3 2677   0.041   3.188   1.586 -0.2878 -0.2219  0.2758
    8MOL     C4 2678   7.725   3.162   1.502 -0.1554  0.2091 -0.5276
    8MOL     C5 2679   7.752   3.158   1.356  0.7080 -0.0055  0.0039
    8MOL     C6 2680   0.052   3.061   1.307  0.0957  0.0113 -0.7579
    8MOL     C7 2681   0.062   3.038   1.158  0.3582 -0.0364 -0.3086
    8MOL     H8 2682   7.784   3.400   1.842  0.1917  0.5330  0.3935
    8MOL     H9 2683   0.101   3.425   1.723  0.7388  0.3263  0.5826
    8MOL    H10 2684   7.727   3.168   1.745  1.8831 -1.9825  0.3223
    8MOL    H11 2685   7.682   3.068   1.536  0.4098  0.0920 -0.1273
    8MOL    H12 2686   7.656   3.246   1.513  2.0982  2.0420  0.1395
    8MOL    H13 2687   7.765   3.263   1.331 -0.2906  0.6725  2.1589
    8MOL    H14 2688   7.658   3.118   1.318  0.5993 -0.3208  0.5888
    8MOL    H15 2689   0.027   2.962   1.345  2.4347 -0.2758  0.0930
    8MOL    H16 2690   0.148   3.083   1.353 -0.1578 -0.1698 -0.1283
    8MOL    H17 2691   0.107   3.123   1.107  1.9416 -0.1321  0.8688
    8MOL    H18 2692   7.770   3.027   1.104 -0.9372 -0.7027  2.0119
    8MOL    H19 2693   0.117   2.944   1.152  0.4585 -0.3712  3.8307
    8MOL    H20 2694   7.732   3.416   1.675 -0.4974 -0.4743  0.3916
    8MOL    C21 2695   0.127   3.162   1.799  0.5088  0.1643 -0.7528
    8MOL    C22 2696   0.104   3.147   1.953  0.1984  0.2219 -0.0700
    8MOL    O23 2697   0.006   3.053   1.968 -0.1255 -0.4923  0.6378
    8MOL    C24 2698   7.692   3.085   2.034 -0.1984  0.3535 -0.5254
    8MOL    C25 2699   7.614   2.960   2.077  0.1470  0.6602  0.1621
    8MOL    C26 2700   7.472   2.995   2.112  0.1938 -0.0973 -0.6018
    8MOL    C27 2701   7.385   2.879   2.166 -0.4666 -1.1132  0.4380
    8MOL    H28 2702   0.224   3.209   1.785  0.8585 -0.9276 -2.1228
    8MOL    H29 2703   0.152   3.063   1.759 -0.9834 -0.8119  0.6838
    8MOL    H30 2704   0.079   3.242   1.998 -2.2058 -0.1131 -0.6412
    8MOL    H31 2705   7.628   3.146   1.971 -3.9973 -1.5254  1.3373
    8MOL    H32 2706   7.709   3.142   2.125 -1.6740  2.9097 -1.8100
    8MOL    H33 2707   7.594   2.899   1.989 -1.9204 -0.0532  1.0835
    8MOL    H34 2708   7.666   2.908   2.158 -1.9443 -0.6412  0.7096
    8MOL    H35 2709   7.463   3.074   2.187 -1.0886 -1.0904  0.3148
    8MOL    H36 2710   7.417   3.035   2.027 -1.1541 -0.7285 -0.0371
    8MOL    H37 2711   7.288   2.904   2.208 -1.5282 -0.4321 -2.3144
    8MOL    H38 2712   7.363   2.813   2.082  0.0325 -2.7710  1.5741
    8MOL    H39 2713   7.441   2.825   2.242 -0.1634  0.0674  1.0540
    8MOL    C40 2714   0.233   3.085   2.019  0.4760 -0.8540 -0.3413
    8MOL    C41 2715   0.217   3.037   2.164  0.4405  0.0487 -0.1128
    8MOL    O42 2716   0.166   3.152   2.234 -0.5599 -0.2140 -0.3579
    8MOL    C43 2717   0.092   3.124   2.355 -0.7098  0.5288 -0.1175
    8MOL    C44 2718   0.030   3.257   2.414  0.1753 -0.0490 -0.1166
    8MOL    C45 2719   7.768   3.363   2.324  0.0465  1.0071  0.2375
    8MOL    C46 2720   7.724   3.487   2.402 -0.4816  0.7034  0.2400
    8MOL    H47 2721   0.312   3.159   2.011 -0.9188  0.7779  0.7243
    8MOL    H48 2722   0.267   3.004   1.954 -0.4824 -1.4421 -0.1239
    8MOL    H49 2723   0.142   2.959   2.155 -0.8773  1.4573 -1.7050
    8MOL    H50 2724   0.160   3.087   2.432 -0.4369 -1.8380 -1.4633
    8MOL    H51 2725   0.014   3.055   2.323  0.2930  0.3779 -2.3066
    8MOL    H52 2726   0.111   3.300   2.471  1.2492  0.7881 -2.2150
    8MOL    H53 2727   7.755   3.234   2.488  0.4542  1.2536  0.5984
    8MOL    H54 2728   7.689   3.320   2.263 -1.2295 -1.6686  3.6471
    8MOL    H55 2729   0.035   3.402   2.249  0.2780  0.6631  0.2728
    8MOL    H56 2730   7.636   3.471   2.465 -1.7813 -0.7381 -1.8792
    8MOL    H57 2731   0.002   3.510   2.472 -2.3148  0.8764  2.3172
    8MOL    H58 2732   7.707   3.570   2.333  0.1717 -0.5838 -1.5154
    8MOL    C59 2733   0.342   2.995   2.238  0.3906 -0.3320 -0.9897
    8MOL    C60 2734   0.419   2.880   2.178 -0.2692 -0.0487  0.7462
    8MOL    O61 2735   0.510   2.837   2.278 -0.1636 -0.2090  0.0038
    8MOL    C62 2736   0.648   2.890   2.277 -0.2088  0.0830 -0.2450
    8MOL    C63 2737   0.745   2.798   2.350 -0.4162 -0.2159  0.3074
    8MOL    C64 2738   0.812   2.699   2.258 -0.4707 -0.5114 -0.4008
    8MOL    C65 2739   0.914   2.607   2.331 -0.2577  0.3671 -0.3328
    8MOL    H66 2740   0.402   3.085   2.254 -0.5692  0.1995 -0.3555
    8MOL    H67 2741   0.301   2.970   2.336  0.4862  0.3287 -0.7745
    8MOL    H68 2742   0.467   2.908   2.084 -1.7222 -1.0384 -0.3221
    8MOL    H69 2743   0.648   2.984   2.331 -0.2438  0.1412 -0.3456
    8MOL    H70 2744   0.678   2.924   2.177 -0.7900  1.1950 -0.0439
    8MOL    H71 2745   0.812   2.866   2.403 -1.4356  0.6027  0.5633
    8MOL    H72 2746   0.691   2.743   2.427 -1.1294 -1.2584 -0.9109
    8MOL    H73 2747   0.743   2.633   2.206  1.9143 -2.4921 -1.1597
    8MOL    H74 2748   0.864   2.764   2.187 -2.4264  1.6366  0.0598
    8MOL    H75 2749   0.973   2.556   2.254 -0.7697 -0.0513 -0.4442
    8MOL    H76 2750   0.985   2.672   2.382 -0.8823  3.2615 -2.9932
    8MOL    H77 2751   0.867   2.534   2.396 -0.0841  0.7405  0.2196
    8MOL    C78 2752   0.334   2.752   2.156 -0.7206  0.3582 -0.1149
    8MOL    C79 2753   0.397   2.635   2.074  0.8429  0.0139  0.4444
    8MOL    O80 2754   0.282   2.574   2.019 -0.1409  0.1137 -0.6254
    8MOL    C81 2755   0.254   2.610   1.889  0.1708 -0.3688 -0.2066
    8MOL    C82 2756   0.108   2.564   1.859  0.0525 -0.2843 -0.0266
    8MOL    C83 2757   0.015   2.646   1.952  0.3246 -0.0862 -0.0315
    8MOL    C84 2758   7.665   2.600   1.946  0.1461  0.7453  0.1312
    8MOL    H85 2759   0.239   2.776   2.108 -0.1051 -0.7138 -1.9481
    8MOL    H86 2760   0.287   2.711   2.245 -3.4960 -0.8084 -2.0380
    8MOL    H87 2761   0.468   2.664   1.996 -2.4105  1.4331 -2.1396
    8MOL    H88 2762   0.324   2.564   1.820  1.5839 -1.6882  2.0346
    8MOL    H89 2763   0.263   2.717   1.867 -1.6669 -0.4394 -1.4258
    8MOL    H90 2764   0.083   2.574   1.753 -3.0194 -0.8409  0.6066
    8MOL    H91 2765   0.118   2.460   1.889 -0.9292 -0.8321 -1.4905
    8MOL    H92 2766   0.023   2.750   1.922 -0.8889  0.1201  0.3405
    8MOL    H93 2767   0.040   2.640   2.058 -1.2856  0.6964  0.4108
    8MOL    H94 2768   7.605   2.667   1.885 -1.2441 -1.5658 -1.0784
    8MOL    H95 2769   7.653   2.501   1.903  0.1445  0.9226 -0.2809
    8MOL    H96 2770   7.629   2.608   2.049 -1.5818 -2.2705 -0.1761
    8MOL    C97 2771   0.460   2.534   2.171 -0.0343 -0.9732  0.0507
    8MOL    C98 2772   0.507   2.401   2.102  0.6300 -0.3783 -0.2702
    8MOL    O99 2773   0.638   2.424   2.051 -0.4890 -0.1344 -0.1297
    8MOL   C100 2774   0.669   2.365   1.931  0.3091 -0.4051  0.4372
    8MOL   C101 2775   0.826   2.379   1.912  0.1098  0.0056 -0.7774
    8MOL   C102 2776   0.883   2.527   1.919 -0.4923  0.0793  0.1233
    8MOL   C103 2777   1.031   2.552   1.893  0.4586 -0.3708 -0.7942
    8MOL   H104 2778   0.374   2.513   2.235 -0.5484 -1.0456 -0.6497
    8MOL   H105 2779   0.536   2.591   2.223 -0.6430  1.1605 -1.3313
    8MOL   H106 2780   0.440   2.360   2.027 -1.4177  2.5245 -0.1234
    8MOL   H107 2781   0.620   2.402   1.841  2.1421  0.4403 -0.2316
    8MOL   H108 2782   0.648   2.258   1.928 -0.0706 -0.3597  1.3865
    8MOL   H109 2783   0.841   2.330   1.816 -4.0540 -3.5165  0.2233
    8MOL   H110 2784   0.873   2.313   1.985 -3.5513 -0.6990  1.0534
    8MOL   H111 2785   0.877   2.558   2.023 -1.0285 -1.3301  0.5206
    8MOL   H112 2786   0.823   2.603   1.868  1.9561  0.0107 -3.0264
    8MOL   H113 2787   1.055   2.560   1.787  1.1576  0.8439 -0.5454
    8MOL   H114 2788   1.050   2.640   1.954  1.2486  0.1531 -1.7809
    8MOL   H115 2789   1.092   2.476   1.942 -1.2203 -0.1021  1.7870
    8MOL   C116 2790   0.520   2.291   2.210  0.5065 -0.6847 -0.1022
    8MOL   C117 2791   0.393   2.246   2.285  0.0436  0.3285  0.9029
    8MOL   O118 2792   0.303   2.203   2.183  0.1630 -1.2285  0.2449
    8MOL   C119 2793   0.187   2.276   2.176 -0.6351  0.0524 -0.3231
    8MOL   C120 2794   0.094   2.236   2.067  0.3616  0.5061  0.8090
    8MOL   C121 2795   0.039   2.089   2.080 -0.2901  0.6464  0.3025
    8MOL   C122 2796   7.721   2.057   1.986  0.3129  0.0792  0.1223
    8MOL   H123 2797   0.556   2.210   2.148  0.9305  0.6664 -1.6452
    8MOL   H124 2798   0.599   2.324   2.277  0.1405  0.7564 -0.3617
    8MOL   H125 2799   0.363   2.330   2.348  0.8173  1.7208 -0.5580
    8MOL   H126 2800   0.211   2.382   2.173  1.3959 -0.4132 -2.4464
    8MOL   H127 2801   0.124   2.272   2.265 -1.7045  0.8136 -1.0363
    8MOL   H128 2802   0.140   2.246   1.969  0.7749  1.3157  1.0845
    8MOL   H129 2803   0.004   2.296   2.059  1.4825  1.9125 -1.7668
    8MOL   H130 2804   0.121   2.021   2.056 -2.0751 -0.9258 -1.6315
    8MOL   H131 2805   0.003   2.065   2.180 -0.5329  3.6756  0.9626
    8MOL   H132 2806   7.659   2.143   1.963 -0.7640 -0.6632  0.1950
    8MOL   H133 2807   7.646   1.984   2.017 -0.1063  0.7018  0.5673
    8MOL   H134 2808   7.751   2.031   1.884 -1.0355  0.6866 -0.4371
    8MOL   C135 2809   0.421   2.125   2.364 -0.7543 -0.5152 -0.2427
    8MOL   C136 2810   0.308   2.069   2.458 -0.1467  1.0779 -0.2351
    8MOL   O137 2811   0.302   1.932   2.491 -0.5146  0.2183  0.4593
    8MOL   C138 2812   0.307   1.840   2.377 -0.4816 -0.1729 -0.2921
    8MOL   C139 2813   0.257   1.699   2.422 -0.5306 -0.1888 -0.0174
    8MOL   C140 2814   0.266   1.599   2.304 -0.6623  0.0290  0.4082
    8MOL   C141 2815   0.260   1.450   2.333 -0.0336 -0.6008 -0.0985
    8MOL   H142 2816   0.497   2.146   2.439  1.3940 -3.0742 -1.6126
    8MOL   H143 2817   0.453   2.044   2.298 -0.7349  1.5434 -2.8474
    8MOL   H144 2818   0.210   2.089   2.414 -1.0348  0.7352  1.5323
    8MOL   H145 2819   0.407   1.841   2.335  0.2587  0.5912  1.4488
    8MOL   H146 2820   0.238   1.871   2.298  1.8996  1.4124 -1.8025
    8MOL   H147 2821   0.162   1.700   2.474 -0.1810 -1.4393  0.6720
    8MOL   H148 2822   0.331   1.679   2.500 -2.7986 -3.8546  1.3116
    8MOL   H149 2823   0.187   1.620   2.233  0.7641  1.0521 -0.8909
    8MOL   H150 2824   0.362   1.602   2.252 -1.4710 -1.4447 -1.2088
    8MOL   H151 2825   0.176   1.425   2.397 -2.7689  3.5588 -1.8288
    8MOL   H152 2826   0.252   1.387   2.245 -1.6433 -0.1643 -0.2853
    8MOL   H153 2827   0.351   1.414   2.382  1.2354 -0.0480 -1.9888
    8MOL   C154 2828   0.300   2.148   2.590  0.2392 -0.8506 -0.4576
    8MOL   C155 2829   0.166   2.148   2.658 -0.0009 -0.1289 -0.7383
    8MOL   O156 2830   0.078   2.221   2.574  0.0641 -0.3753 -0.3482
    8MOL   C157 2831   7.740   2.195   2.591  0.3571  0.2106  0.0584
    8MOL   C158 2832   7.662   2.267   2.493 -0.1036 -0.5076  0.3928
    8MOL   C159 2833   7.518   2.226   2.491  0.7549  0.0248  0.0795
    8MOL   C160 2834   7.430   2.319   2.411  0.6638  0.4987  0.2381
    8MOL   H161 2835   0.337   2.250   2.581  0.8953 -0.9147  1.1778
    8MOL   H162 2836   0.365   2.098   2.663 -0.9305  1.9887  2.6873
    8MOL   H163 2837   0.131   2.045   2.666 -0.1955  0.0119  0.2794
    8MOL   H164 2838   7.717   2.090   2.575  0.7470  0.0859  0.3223
    8MOL   H165 2839   7.716   2.224   2.694  1.7477  1.3565  0.0690
    8MOL   H166 2840   7.699   2.263   2.390 -0.3733  3.4732  0.0674
    8MOL   H167 2841   7.671   2.374   2.514 -0.5887 -0.6297  1.2404
    8MOL   H168 2842   7.512   2.123   2.457  2.1502 -0.2706  0.6901
    8MOL   H169 2843   7.471   2.230   2.589 -1.3152 -2.9175 -0.7178
    8MOL   H170 2844   7.341   2.263   2.385  0.5012  1.7754 -2.1522
    8MOL   H171 2845   7.415   2.412   2.467  0.3515  1.8112 -1.9675
    8MOL   H172 2846   7.482   2.347   2.319  1.6374 -3.0696 -0.3492
    8MOL   C173 2847   0.172   2.216   2.797 -0.6880 -0.4287 -0.5272
    8MOL   C174 2848   0.221   2.134   2.912  0.1005  0.8767 -0.4782
    8MOL   O175 2849   0.217   2.216   3.023 -0.2537 -0.1916  0.5437
    8MOL   C176 2850   0.348   2.267   3.066 -0.0373 -0.0006  0.0559
    8MOL   C177 2851   0.343   2.311   3.216  0.0379  0.4375 -0.6318
    8MOL   C178 2852   0.469   2.372   3.273  0.2308 -0.7351  0.2226
    8MOL   C179 2853   0.456   2.392   3.419  0.1014 -0.2662  0.3767
    8MOL   H180 2854   0.073   2.250   2.829 -1.1532 -2.4901  0.3678
    8MOL   H181 2855   0.231   2.307   2.784  0.3215 -0.9092  0.5897
    8MOL   H182 2856   0.318   2.089   2.892 -0.1446  0.2325 -0.2579
    8MOL   H183 2857   0.380   2.350   3.003 -2.1317  1.3182  0.6382
    8MOL   H184 2858   0.426   2.192   3.056  0.1029  0.2401 -0.6328
    8MOL   H185 2859   0.328   2.229   3.286  2.9915  0.1631 -0.2596
    8MOL   H186 2860   0.259   2.378   3.232 -0.4052 -0.3045  0.1853
    8MOL   H187 2861   0.550   2.302   3.256  1.0050 -0.1301  1.3120
    8MOL   H188 2862   0.489   2.466   3.222  2.9729 -1.2887  0.2423
    8MOL   H189 2863   0.450   2.292   3.463 -2.2990 -0.6157 -0.6771
    8MOL   H190 2864   0.536   2.444   3.472 -0.0780 -1.6457  2.0607
    8MOL   H191 2865   0.363   2.441   3.444  1.9469  2.5426  2.0044
    8MOL   C192 2866   0.122   2.019   2.937  0.1924 -0.9947 -0.4001
    8MOL   C193 2867   0.131   1.926   3.061 -0.4829 -0.0190 -0.1194
    8MOL   O194 2868   0.028   1.828   3.057  0.0342  0.0620  0.3221
    8MOL   C195 2869   7.705   1.866   3.107  0.8521 -0.1410  0.3618
    8MOL   C196 2870   7.602   1.752   3.064 -0.3313  0.5951  0.5908
    8MOL   C197 2871   7.457   1.791   3.078  0.8135  0.3484  0.1065
    8MOL   C198 2872   7.355   1.667   3.058  0.2895  0.1675  0.8068
    8MOL   H199 2873   0.112   1.961   2.846 -0.2420 -1.5857  0.0243
    8MOL   H200 2874   0.024   2.065   2.933  0.4858 -0.4894 -2.5413
    8MOL   H201 2875   0.110   1.990   3.146 -0.5960 -0.0192 -0.1469
    8MOL   H202 2876   7.680   1.967   3.073 -0.4078 -0.2252  1.0009
    8MOL   H203 2877   7.722   1.867   3.214  0.3266 -0.6143  0.4541
    8MOL   H204 2878   7.617   1.719   2.961  2.0663  0.4515  0.9548
    8MOL   H205 2879   7.618   1.660   3.120 -1.0126  0.1866  0.1150
    8MOL   H206 2880   7.430   1.873   3.011 -1.5492 -1.5267 -1.2966
    8MOL   H207 2881   7.434   1.835   3.175  3.1964 -0.5806  1.1237
    8MOL   H208 2882   7.249   1.694   3.067 -0.0916 -0.8786 -0.3703
    8MOL   H209 2883   7.370   1.633   2.955  0.5975  1.3577  0.4463
    8MOL   H210 2884   7.372   1.587   3.130  2.0958 -1.2233 -1.1262
    8MOL   C211 2885   0.273   1.866   3.077 -0.7915 -0.4048  0.4197
    8MOL   C212 2886   0.290   1.805   3.214 -0.3229  0.3331 -0.4980
    8MOL   O213 2887   0.389   1.706   3.209 -0.3952 -0.0648  0.2350
    8MOL   C214 2888   0.355   1.577   3.162 -0.4785 -0.0453 -0.6541
    8MOL   C215 2889   0.471   1.487   3.163  0.2427 -0.4203  0.2655
    8MOL   C216 2890   0.514   1.452   3.303  0.4932 -0.1953 -0.0547
    8MOL   C217 2891   0.640   1.362   3.306 -0.0739 -0.1736  0.1275
    8MOL   H218 2892   0.353   1.939   3.061 -1.4737  0.1333 -0.5466
    8MOL   H219 2893   0.282   1.790   3.000 -1.4001 -1.1578  1.0883
    8MOL   H220 2894   0.199   1.753   3.244 -2.0292  2.8660 -1.0388
    8MOL   H221 2895   0.277   1.536   3.226 -0.3337  0.5848 -0.0716
    8MOL   H222 2896   0.321   1.587   3.059  0.7871  1.6916 -0.9193
    8MOL   H223 2897   0.450   1.393   3.111  0.6415 -0.3090 -0.0962
    8MOL   H224 2898   0.550   1.537   3.107  1.8135 -2.3105  0.7176
    8MOL   H225 2899   0.431   1.402   3.353 -0.2855  0.0644 -1.0783
    8MOL   H226 2900   0.528   1.546   3.356 -0.4875  0.6325 -1.2205
    8MOL   H227 2901   0.653   1.332   3.410  2.3383 -1.1444 -0.4239
    8MOL   H228 2902   0.731   1.414   3.276 -1.1473  1.7788  0.1584
    8MOL   H229 2903   0.634   1.267   3.253  0.3551  0.7656 -1.6711
    8MOL   C230 2904   0.333   1.915   3.319  0.2442 -0.6755 -0.1900
    8MOL   C231 2905   0.281   1.897   3.467 -0.2803  0.5116 -0.3262
    8MOL   O232 2906   0.353   1.991   3.548 -0.5467  0.1375 -0.0531
    8MOL   C233 2907   0.395   1.945   3.675  0.1173 -0.4005  0.1354
    8MOL   C234 2908   0.471   2.063   3.739 -0.8957 -0.3477 -0.0157
    8MOL   C235 2909   0.490   2.051   3.890  0.8918  0.7327 -0.4869
    8MOL   C236 2910   0.518   2.192   3.939  0.4756 -0.2751  0.6148
    8MOL   H237 2911   0.285   2.011   3.300  1.9112  0.0074 -1.0457
    8MOL   H238 2912   0.441   1.925   3.328  0.2207 -0.3677 -0.2718
    8MOL   H239 2913   0.306   1.794   3.492 -0.4386  0.7512  0.8327
    8MOL   H240 2914   0.306   1.927   3.735 -1.7629 -0.4761 -2.5969
    8MOL   H241 2915   0.460   1.858   3.671 -0.0304 -0.5732  1.2820
    8MOL   H242 2916   0.567   2.065   3.689 -0.1697 -0.4692  1.3606
    8MOL   H243 2917   0.408   2.150   3.718 -2.2868 -1.1770  0.6200
    8MOL   H244 2918   0.574   1.989   3.920  0.1224 -0.0270  0.1079
    8MOL   H245 2919   0.405   2.022   3.951  0.1961  1.4731 -1.0925
    8MOL   H246 2920   0.554   2.203   4.042 -0.1480  2.1894  0.6070
    8MOL   H247 2921   0.442   2.269   3.925 -0.5974 -1.1313  1.6599
    8MOL   H248 2922   0.600   2.232   3.880  1.8295 -3.0091  0.5870
    8MOL   C249 2923   0.122   1.913   3.478  0.4492 -0.1493 -0.1715
    8MOL   C250 2924   0.061   1.853   3.608 -0.1518  0.8936 -0.1684
    8MOL   O251 2925   0.080   1.710   3.591  0.3773 -0.3866  0.1141
    8MOL   C252 2926   0.140   1.642   3.703  0.3641 -0.0557  0.3070
    8MOL   C253 2927   0.121   1.491   3.690  0.2316  0.3040 -0.0291
    8MOL   C254 2928   0.171   1.445   3.550  0.7799  1.0427 -0.2930
    8MOL   C255 2929   0.147   1.290   3.539 -0.4666 -0.1378  0.2546
    8MOL   H256 2930   0.066   1.875   3.393 -2.4403 -1.7276  2.3391
    8MOL   H257 2931   0.091   2.018   3.484  3.1239  0.7606 -1.5678
    8MOL   H258 2932   0.110   1.890   3.698  0.8467 -0.8058  0.0200
    8MOL   H259 2933   0.088   1.664   3.796 -1.4249 -0.0090 -0.6844
    8MOL   H260 2934   0.245   1.662   3.725 -0.1726  0.6993  2.2788
    8MOL   H261 2935   0.178   1.438   3.766 -3.2026 -1.1312  1.6394
    8MOL   H262 2936   0.018   1.464   3.712  0.5759 -0.0762  1.1321
    8MOL   H263 2937   0.117   1.500   3.474  0.8738  0.2100 -0.9649
    8MOL   H264 2938   0.276   1.467   3.535  0.7070  0.7862 -1.2130
    8MOL   H265 2939   0.157   1.254   3.436  1.9535 -0.4412  0.5521
    8MOL   H266 2940   0.055   1.247   3.576  0.5012 -0.3602  2.4818
    8MOL   H267 2941   0.224   1.238   3.596  0.4237 -0.0104 -0.8052
    8MOL   C268 2942   7.717   1.876   3.616 -0.0759  0.2240 -0.2213
    8MOL   C269 2943   7.688   2.009   3.679 -0.2077 -0.5520 -0.1431
    8MOL   O270 2944   7.678   2.099   3.565  0.1661 -0.0067 -0.0484
    8MOL   C271 2945   7.745   2.220   3.580 -0.3917 -0.2759 -0.3670
    8MOL   C272 2946   7.727   2.312   3.457  0.5220  0.2339  0.2132
    8MOL   C273 2947   7.779   2.248   3.324  0.0021 -0.3035 -0.3444
    8MOL   C274 2948   7.738   2.318   3.193  0.5040  0.4923  0.3993
    8MOL   H275 2949   7.663   1.875   3.522  0.1385  2.5362 -0.4143
    8MOL   H276 2950   7.685   1.794   3.680  1.7100 -0.2114  0.1457
    8MOL   H277 2951   7.757   2.044   3.756 -0.9773  2.4559 -0.7552
    8MOL   H278 2952   7.710   2.279   3.665  2.3082  0.6997  0.1240
    8MOL   H279 2953   0.051   2.207   3.591 -0.8279 -1.6165  3.1651
    8MOL   H280 2954   7.622   2.332   3.437  0.5755 -0.3243 -0.6379
    8MOL   H281 2955   7.782   2.405   3.470  0.2198  0.2452  1.5417
    8MOL   H282 2956   7.735   2.149   3.310 -1.4610 -0.0044  1.9671
    8MOL   H283 2957   0.083   2.222   3.330 -0.3665 -1.6942  0.1366
    8MOL   H284 2958   7.630   2.328   3.179  0.3376 -2.0298 -0.3545
    8MOL   H285 2959   7.782   2.267   3.107 -1.9016 -0.2877 -0.3986
    8MOL   H286 2960   7.775   2.420   3.188 -2.3193  1.5849  0.7015
    8MOL   C287 2961   7.546   2.015   3.737 -0.7086 -0.5867  0.1190
    8MOL   C288 2962   7.536   1.961   3.881 -0.6262 -0.6512 -0.2582
    8MOL   O289 2963   7.511   1.819   3.861 -0.3515 -0.0268 -0.2220
    8MOL   C290 2964   7.578   1.725   3.950 -0.3866 -0.5092 -0.4869
    8MOL   C291 2965   7.548   1.576   3.929 -0.0527  0.2903 -0.0513
    8MOL   C292 2966   7.397   1.544   3.888  0.3607  0.3446 -0.1248
    8MOL   C293 2967   7.295   1.566   3.999 -0.5919  0.7782  0.7614
    8MOL   H294 2968   7.476   1.962   3.672 -0.0332 -1.4839  0.1070
    8MOL   H295 2969   7.514   2.118   3.722 -1.0657 -0.3689  2.1864
    8MOL   H296 2970   7.624   1.984   3.941 -1.0077 -1.4424  0.6105
    8MOL   H297 2971   7.685   1.744   3.941  0.2504 -2.9558  1.1285
    8MOL   H298 2972   7.551   1.748   4.053  3.2874 -0.4666  0.5430
    8MOL   H299 2973   7.590   1.518   4.011 -1.2710  0.0339  0.3932
    8MOL   H300 2974   7.606   1.546   3.841 -0.7026  0.1098 -0.4222
    8MOL   H301 2975   7.397   1.437   3.867 -2.9407  0.1960  0.3563
    8MOL   H302 2976   7.368   1.589   3.793 -1.3738  1.1852  0.7864
    8MOL   H303 2977   7.339   1.546   4.097  2.2415  0.5281 -0.5209
    8MOL   H304 2978   7.257   1.669   3.995 -0.4400  0.7690 -1.0310
    8MOL   H305 2979   7.199   1.518   3.981  0.4007 -0.5209 -1.2209
    8MOL   C306 2980   7.417   2.014   3.961  0.3526  0.2874  0.2434
    8MOL   C307 2981   7.431   2.172   3.988  0.6840 -0.2402  0.0710
    8MOL   O308 2982   7.563   2.198   4.044 -0.0390  0.6433  0.1108
    8MOL   C309 2983   7.648   2.294   3.984  0.6886  0.6626  0.3500
    8MOL   C310 2984   7.780   2.313   4.059  0.0245  0.4690  0.5212
    8MOL   C311 2985   0.086   2.212   4.030 -0.6390  0.0523 -0.0234
    8MOL   C312 2986   0.184   2.213   4.152  0.2319 -0.2631  0.1891
    8MOL   H313 2987   7.336   1.981   3.897 -0.8438 -0.4724  2.1048
    8MOL   H314 2988   7.410   1.966   4.059 -0.0008 -0.1735 -0.0091
    8MOL   H315 2989   7.424   2.225   3.893  0.0342 -1.2262 -0.4447
    8MOL   H316 2990   7.605   2.392   4.005 -0.7982 -0.5664  3.3311
    8MOL   H317 2991   7.656   2.274   3.877 -0.4541  0.4362  0.2980
    8MOL   H318 2992   7.761   2.332   4.165 -1.2372  0.6220  0.2787
    8MOL   H319 2993   0.015   2.406   4.015 -2.6184  1.8885  1.2120
    8MOL   H320 2994   0.055   2.111   4.003 -1.0491  0.0076  0.6088
    8MOL   H321 2995   0.148   2.250   3.949 -0.4353  0.5289  0.3530
    8MOL   H322 2996   0.201   2.311   4.198 -0.0610 -0.6372  1.0948
    8MOL   H323 2997   0.277   2.159   4.130 -0.1386 -1.0447  0.5402
    8MOL   H324 2998   0.123   2.162   4.226  0.8375 -0.5057  0.5252
    8MOL   C325 2999   7.326   2.227   4.083 -0.7432  0.6287 -0.9961
    8MOL   C326 3000   7.184   2.224   4.021 -0.2328 -0.0985 -0.3618
    8MOL   O327 3001   7.142   2.089   4.009  0.1581  0.3053 -0.2207
    8MOL   C328 3002   7.057   2.081   3.894  0.2956 -0.1860 -0.2490
    8MOL   C329 3003   7.009   1.939   3.876  0.0866  0.5430 -0.1609
    8MOL   C330 3004   6.913   1.886   3.982  0.1235  0.1017 -0.1402
    8MOL   C331 3005   6.855   1.743   3.940  0.5091 -0.0570  0.3496
    8MOL   H332 3006   7.350   2.326   4.121  2.6281 -1.1376  1.7745
    8MOL   H333 3007   7.324   2.168   4.175 -2.7495  2.6057  0.2714
    8MOL   H334 3008   7.209   2.269   3.925 -0.2282 -1.2673 -0.9056
    8MOL   H335 3009   7.120   2.106   3.809 -2.3205  1.4233 -1.7779
    8MOL   H336 3010   6.976   2.153   3.885  2.2668  2.4190  1.9885
    8MOL   H337 3011   6.981   1.914   3.774  0.1685 -1.7337  0.3610
    8MOL   H338 3012   7.098   1.878   3.889 -0.4305 -0.3616 -0.8543
    8MOL   H339 3013   6.828   1.953   3.993 -0.3606 -0.8259  2.1685
    8MOL   H340 3014   6.960   1.888   4.080  0.9735  0.4700 -0.5528
    8MOL   H341 3015   6.790   1.745   3.852  2.1752  0.0080 -0.8924
    8MOL   H342 3016   6.798   1.706   4.026 -0.6279  0.6279 -0.0900
    8MOL   H343 3017   6.930   1.671   3.910 -0.3894 -0.3781 -1.1466
    8MOL   C344 3018   7.083   2.309   4.106 -0.4721 -0.4827  0.2882
    8MOL   C345 3019   7.090   2.465   4.080 -0.2157  0.0931  0.2727
    8MOL   O346 3020   7.041   2.514   4.193 -0.3810  0.1984  0.2428
    8MOL   C347 3021   7.110   2.635   4.239 -0.6603 -0.3648  0.6117
    8MOL   C348 3022   7.095   2.642   4.389  0.6058  0.0243 -0.8357
    8MOL   C349 3023   7.170   2.762   4.446 -0.3218 -0.3435  0.2354
    8MOL   C350 3024   7.206   2.752   4.597 -0.8488  0.0047 -0.0350
    8MOL   H351 3025   6.981   2.269   4.104 -0.3558 -0.7402 -1.2661
    8MOL   H352 3026   7.108   2.287   4.209 -0.9437  0.0248  0.5147
    8MOL   H353 3027   7.196   2.481   4.061 -0.4799  1.0640 -0.3665
    8MOL   H354 3028   7.071   2.728   4.196 -1.1134 -0.3199  1.1083
    8MOL   H355 3029   7.215   2.631   4.211 -0.7925 -0.8940  0.1872
    8MOL   H356 3030   7.125   2.548   4.436  2.5556  0.5681 -0.9488
    8MOL   H357 3031   6.989   2.660   4.406  0.6353 -0.1936 -0.4086
    8MOL   H358 3032   7.260   2.784   4.388 -1.9956  0.7416 -2.0557
    8MOL   H359 3033   7.118   2.853   4.415  1.8277  0.9692  0.3836
    8MOL   H360 3034   7.134   2.695   4.656 -1.1926 -0.2527 -0.6971
    8MOL   H361 3035   7.208   2.846   4.652 -2.4859 -0.4876  0.9086
    8MOL   H362 3036   7.305   2.711   4.616 -0.8224  0.1308  0.1050
    8MOL   C363 3037   7.019   2.529   3.961 -0.1024 -0.1072  0.1080
    8MOL   C364 3038   6.861   2.525   3.988 -0.2135 -0.0271  0.2112
    8MOL   O365 3039   6.795   2.512   3.869  0.3058 -0.0857 -0.1458
    8MOL   C366 3040   6.687   2.610   3.863 -0.2619  0.6521  0.7455
    8MOL   C367 3041   6.627   2.589   3.721  0.6229  0.1962 -0.4346
    8MOL   C368 3042   6.545   2.456   3.715 -0.2018  0.0433  0.5397
    8MOL   C369 3043   6.483   2.446   3.581 -0.5500 -0.0801 -0.2678
    8MOL   H370 3044   7.027   2.461   3.876 -0.6210 -1.0393  0.7960
    8MOL   H371 3045   7.051   2.631   3.943  0.8557 -0.3459  0.4372
    8MOL   H372 3046   6.830   2.598   4.062 -1.0625  0.4674 -0.6199
    8MOL   H373 3047   6.723   2.713   3.863  0.8659  0.2712 -1.3646
    8MOL   H374 3048   6.602   2.598   3.931 -0.0057  0.6106  1.0547
    8MOL   H375 3049   6.701   2.596   3.642  1.9200 -3.8058  0.3273
    8MOL   H376 3050   6.554   2.665   3.692 -0.3438 -0.1001  1.1283
    8MOL   H377 3051   6.469   2.454   3.793 -1.5476 -0.7095 -0.7623
    8MOL   H378 3052   6.615   2.374   3.735 -1.2860 -0.4906  2.3505
    8MOL   H379 3053   6.554   2.440   3.499  0.1254  1.2134  0.1963
    8MOL   H380 3054   6.425   2.355   3.563 -0.4381 -0.1148 -0.4548
    8MOL   H381 3055   6.430   2.538   3.554  2.6290  2.4830  1.7636
    8MOL   H382 3056   6.835   2.433   4.040 -0.7867 -0.1252 -0.2424
    9MOL     C1 3057   1.848   2.426   3.074 -0.2243  0.4861 -0.8667
    9MOL     C2 3058   1.869   2.515   2.961  0.1450  0.7621 -0.7414
    9MOL     O3 3059   1.985   2.465   2.890 -0.9191  0.4642 -0.3650
    9MOL     C4 3060   2.114   2.507   2.935  1.0172  0.3043 -0.6730
    9MOL     C5 3061   2.134   2.642   2.857 -0.0739  0.4219 -0.5162
    9MOL     C6 3062   2.279   2.688   2.870 -0.0018  0.8152  0.1697
    9MOL     C7 3063   2.294   2.822   2.808 -0.1274  0.0250  0.1286
    9MOL     H8 3064   1.938   2.422   3.136 -0.4152  1.1549 -0.5448
    9MOL     H9 3065   1.778   2.470   3.145  0.4850 -1.3105  0.9869
    9MOL    H10 3066   1.899   2.616   2.989  1.8665  0.8069 -2.5887
    9MOL    H11 3067   2.130   2.528   3.040 -1.2099  0.4626 -0.3417
    9MOL    H12 3068   2.191   2.435   2.907  1.4521  0.4184  0.2313
    9MOL    H13 3069   2.073   2.722   2.899 -0.7944 -0.3615 -0.0449
    9MOL    H14 3070   2.120   2.637   2.749  1.0320 -1.9756 -0.5842
    9MOL    H15 3071   2.349   2.620   2.822 -2.5065 -0.7300 -1.4236
    9MOL    H16 3072   2.311   2.692   2.974  0.1858  0.1456  0.1416
    9MOL    H17 3073   2.213   2.893   2.826  0.1782  0.5076 -0.3838
    9MOL    H18 3074   2.303   2.829   2.700 -0.4934  1.4431  0.1804
    9MOL    H19 3075   2.386   2.867   2.843  0.8303 -0.6827 -1.4401
    9MOL    H20 3076   1.805   2.330   3.043  0.8669 -0.1686 -0.3751
    9MOL    C21 3077   1.748   2.529   2.870 -0.1283 -0.2445  0.2899
    9MOL    C22 3078   1.734   2.645   2.760  0.0889 -0.3967  0.2876
    9MOL    O23 3079   1.741   2.766   2.831  0.0352 -0.1906 -0.4089
    9MOL    C24 3080   1.668   2.873   2.771 -0.8602  0.0671 -0.5185
    9MOL    C25 3081   1.686   3.000   2.852 -0.3345  0.3747  0.4397
    9MOL    C26 3082   1.601   3.115   2.802  0.6297  0.1398  0.0289
    9MOL    C27 3083   1.628   3.255   2.859  0.6875  0.0052 -0.2095
    9MOL    H28 3084   1.661   2.543   2.934 -0.8589  0.9689 -0.9539
    9MOL    H29 3085   1.749   2.439   2.808 -0.1118  0.6969 -1.0939
    9MOL    H30 3086   1.633   2.629   2.722 -1.3166  0.9876  3.2447
    9MOL    H31 3087   1.561   2.849   2.780 -0.6465 -0.1685  1.6879
    9MOL    H32 3088   1.696   2.875   2.666  1.6042 -0.8019  0.0970
    9MOL    H33 3089   1.656   2.972   2.953  0.9710 -0.7792  0.5241
    9MOL    H34 3090   1.791   3.028   2.845 -0.6306  1.3379 -0.2843
    9MOL    H35 3091   1.614   3.129   2.695  2.8316 -1.6218  0.0368
    9MOL    H36 3092   1.496   3.084   2.812  0.4566  0.1372 -1.7093
    9MOL    H37 3093   1.544   3.318   2.829 -1.0741 -3.0279 -1.9402
    9MOL    H38 3094   1.642   3.270   2.966  0.0819  1.2009 -0.2896
    9MOL    H39 3095   1.721   3.289   2.815  0.3131  0.4018 -0.7025
    9MOL    C40 3096   1.847   2.640   2.649 -0.2126  0.1453 -0.0258
    9MOL    C41 3097   1.794   2.607   2.512 -0.1854 -0.0101 -0.0093
    9MOL    O42 3098   1.740   2.473   2.518  0.3614 -0.1855  0.1850
    9MOL    C43 3099   1.635   2.457   2.417  0.0458  0.2999 -0.6494
    9MOL    C44 3100   1.525   2.378   2.481  0.1277  0.0587  0.3448
    9MOL    C45 3101   1.410   2.340   2.394 -0.3896  0.6486  0.4906
    9MOL    C46 3102   1.331   2.455   2.344  0.1655 -0.1761 -0.5091
    9MOL    H47 3103   1.917   2.560   2.674  2.4492  2.1507 -0.7886
    9MOL    H48 3104   1.906   2.733   2.648  0.4686 -0.2702  0.6361
    9MOL    H49 3105   1.715   2.677   2.483 -1.1420 -2.2461 -3.1022
    9MOL    H50 3106   1.676   2.400   2.334 -0.4986 -0.6873 -0.2558
    9MOL    H51 3107   1.595   2.553   2.383 -1.2205  0.7488  1.9862
    9MOL    H52 3108   1.496   2.419   2.578  1.5843  0.7905  0.4924
    9MOL    H53 3109   1.575   2.285   2.506  0.8103  0.6437  1.1876
    9MOL    H54 3110   1.336   2.288   2.454 -1.9989  1.2631 -0.9289
    9MOL    H55 3111   1.443   2.286   2.305 -1.0910  0.3995  0.3803
    9MOL    H56 3112   1.321   2.534   2.418 -1.0476  0.2820 -1.1594
    9MOL    H57 3113   1.368   2.485   2.246 -2.2609  0.7744 -1.1555
    9MOL    H58 3114   1.227   2.425   2.330 -0.1318  1.0651 -1.0116
    9MOL    C59 3115   1.912   2.594   2.406  0.1164 -0.5288 -0.3554
    9MOL    C60 3116   1.966   2.727   2.339  0.4088  0.0101 -0.0369
    9MOL    O61 3117   2.073   2.692   2.276 -0.7790 -0.1671  0.3742
    9MOL    C62 3118   2.168   2.798   2.266 -0.6498 -0.5242 -0.5563
    9MOL    C63 3119   2.309   2.725   2.277 -0.0126 -0.2468  0.6955
    9MOL    C64 3120   2.317   2.627   2.387 -0.3333  0.4364  0.3156
    9MOL    C65 3121   2.457   2.586   2.426  0.0755 -0.0447  0.0119
    9MOL    H66 3122   1.991   2.525   2.435  1.1244  0.6251 -0.3227
    9MOL    H67 3123   1.866   2.530   2.331 -2.4559  0.3178  0.4363
    9MOL    H68 3124   1.984   2.794   2.422  2.9452  0.6031 -1.0284
    9MOL    H69 3125   2.161   2.876   2.342 -2.1293  1.6513 -2.8690
    9MOL    H70 3126   2.164   2.838   2.165 -0.2450 -0.7393 -0.6602
    9MOL    H71 3127   2.316   2.666   2.185 -1.6250  0.1753  0.2775
    9MOL    H72 3128   2.389   2.799   2.271  1.8862 -2.3819 -1.5253
    9MOL    H73 3129   2.268   2.663   2.477  0.1673 -1.1912  1.2419
    9MOL    H74 3130   2.255   2.543   2.357  1.1443 -1.2778  1.9641
    9MOL    H75 3131   2.446   2.511   2.504  0.2407  0.5872  0.6501
    9MOL    H76 3132   2.517   2.534   2.350  2.2109  0.0489  1.5969
    9MOL    H77 3133   2.507   2.670   2.475  0.2215 -1.0401  1.5904
    9MOL    C78 3134   1.865   2.795   2.234  0.1549  0.1508 -0.4437
    9MOL    C79 3135   1.775   2.907   2.290 -0.4027  0.0963 -0.2064
    9MOL    O80 3136   1.677   2.934   2.187 -0.4019  0.3837  0.0528
    9MOL    C81 3137   1.540   2.912   2.236 -0.6377 -0.3352  0.4832
    9MOL    C82 3138   1.438   2.957   2.131 -0.2908 -0.4341  0.1715
    9MOL    C83 3139   1.293   2.910   2.155 -0.1933 -0.3313  0.2487
    9MOL    C84 3140   1.191   2.974   2.057  1.0017  0.0100  0.9250
    9MOL    H85 3141   1.805   2.725   2.177 -1.5764  2.4858 -1.5773
    9MOL    H86 3142   1.920   2.851   2.158  1.7389 -1.1210 -0.2719
    9MOL    H87 3143   1.738   2.882   2.390 -1.5107 -0.9565 -0.8629
    9MOL    H88 3144   1.535   2.980   2.320  0.1369 -0.4492  0.6265
    9MOL    H89 3145   1.523   2.807   2.259 -2.0486 -0.0716  0.6436
    9MOL    H90 3146   1.446   3.065   2.119  0.4352 -0.6452 -1.2645
    9MOL    H91 3147   1.468   2.914   2.036 -0.1584 -0.5624  0.2695
    9MOL    H92 3148   1.265   2.951   2.252 -0.9648 -0.2283 -0.0175
    9MOL    H93 3149   1.271   2.803   2.154 -2.2461  0.0823 -2.5930
    9MOL    H94 3150   1.209   3.080   2.037  0.4737 -0.2498 -1.0511
    9MOL    H95 3151   1.189   2.936   1.955 -1.9781 -1.1505  1.3723
    9MOL    H96 3152   1.092   2.974   2.102  0.7327  0.1881  0.3464
    9MOL    C97 3153   1.855   3.040   2.308  0.1704  0.2065  0.5393
    9MOL    C98 3154   1.785   3.154   2.370  0.3727  0.2435 -0.6424
    9MOL    O99 3155   1.871   3.234   2.452  0.1368 -0.5288  0.1870
    9MOL   C100 3156   1.899   3.175   2.577  0.8364 -0.1271 -0.0311
    9MOL   C101 3157   1.961   3.281   2.662  0.7110 -0.4867  0.4590
    9MOL   C102 3158   2.018   3.243   2.805  0.0639  0.7432  0.1896
    9MOL   C103 3159   2.083   3.373   2.866  0.1716  0.0120  0.3561
    9MOL   H104 3160   1.909   3.071   2.220  0.1241 -0.7670  0.1564
    9MOL   H105 3161   1.930   3.001   2.377  0.6125 -1.8897 -1.1001
    9MOL   H106 3162   1.702   3.108   2.424  1.2064  0.3332  0.7532
    9MOL   H107 3163   1.959   3.087   2.553 -2.2010 -1.9862 -1.1628
    9MOL   H108 3164   1.802   3.137   2.609 -0.2366  2.3318 -0.2865
    9MOL   H109 3165   1.894   3.366   2.662 -2.0259 -2.5570 -0.2920
    9MOL   H110 3166   2.043   3.318   2.600  0.0589  0.2487  0.0317
    9MOL   H111 3167   2.100   3.178   2.778 -0.5516 -0.1856  0.5241
    9MOL   H112 3168   1.946   3.196   2.873 -1.2634 -1.5749 -2.7228
    9MOL   H113 3169   2.134   3.349   2.959  2.3417  1.7959 -0.3495
    9MOL   H114 3170   2.167   3.421   2.817 -0.1218  0.3744  0.2027
    9MOL   H115 3171   2.011   3.452   2.889  0.5185  0.6282 -0.6672
    9MOL   C116 3172   1.724   3.241   2.257 -0.1665 -0.7881 -0.4624
    9MOL   C117 3173   1.630   3.346   2.323  0.7538 -0.3289  0.5512
    9MOL   O118 3174   1.608   3.448   2.221 -0.7226 -0.5305  0.1182
    9MOL   C119 3175   1.697   3.552   2.218  0.0180 -0.2488 -0.2254
    9MOL   C120 3176   1.667   3.655   2.324  0.5396  0.4397  0.3816
    9MOL   C121 3177   1.740   3.790   2.309  0.8753 -0.2730  0.5400
    9MOL   C122 3178   1.732   3.877   2.432 -0.1936 -0.3899 -1.0820
    9MOL   H123 3179   1.804   3.280   2.194  0.3983  1.3244  1.4717
    9MOL   H124 3180   1.658   3.180   2.195 -2.5878 -0.2093  1.4493
    9MOL   H125 3181   1.683   3.393   2.406  1.1027  0.8536 -0.3264
    9MOL   H126 3182   1.701   3.587   2.115 -1.4649 -1.6980 -0.7935
    9MOL   H127 3183   1.801   3.520   2.225  0.1256  0.5625  2.7422
    9MOL   H128 3184   1.701   3.612   2.418  0.6706  0.7759  0.4895
    9MOL   H129 3185   1.559   3.668   2.338  0.5096  0.9907 -0.3340
    9MOL   H130 3186   1.843   3.762   2.287  1.1250  0.8757  0.2260
    9MOL   H131 3187   1.715   3.840   2.215  0.1143  0.6899  1.2486
    9MOL   H132 3188   1.785   3.972   2.420  1.8344 -1.2743  0.6346
    9MOL   H133 3189   1.779   3.823   2.514  0.4997 -1.3598 -2.1077
    9MOL   H134 3190   1.627   3.890   2.461 -0.5661  0.1921 -2.6498
    9MOL   C135 3191   1.495   3.288   2.362 -0.2052 -0.6530  0.0308
    9MOL   C136 3192   1.403   3.391   2.423  0.4173 -0.7559  0.0491
    9MOL   O137 3193   1.274   3.335   2.406  0.2207 -0.7378 -0.3327
    9MOL   C138 3194   1.179   3.435   2.373 -0.0340  0.1594  1.0696
    9MOL   C139 3195   1.039   3.381   2.374  0.4102 -0.5755 -1.1196
    9MOL   C140 3196   1.000   3.282   2.266  0.1712 -0.0968 -0.3975
    9MOL   C141 3197   0.879   3.199   2.299 -0.1071 -0.1015  0.0793
    9MOL   H142 3198   1.511   3.201   2.426  0.8635 -1.4233 -1.2389
    9MOL   H143 3199   1.441   3.250   2.275  0.4590 -0.6386 -0.3950
    9MOL   H144 3200   1.419   3.483   2.366 -2.7954 -0.6968 -0.8867
    9MOL   H145 3201   1.200   3.470   2.272  1.3993 -0.3248  1.1810
    9MOL   H146 3202   1.197   3.523   2.434  0.8764 -0.4218  1.6632
    9MOL   H147 3203   0.972   3.468   2.371  1.8554  0.6002 -0.0357
    9MOL   H148 3204   1.037   3.335   2.473  1.3337  0.9935 -0.3585
    9MOL   H149 3205   0.977   3.343   2.178  0.9486  0.5679 -0.1428
    9MOL   H150 3206   1.090   3.223   2.251 -0.2201 -0.5481 -0.9980
    9MOL   H151 3207   0.804   3.265   2.344  1.5747  0.8431  1.5320
    9MOL   H152 3208   0.825   3.165   2.210 -0.1815  0.7106 -0.1901
    9MOL   H153 3209   0.885   3.122   2.376  0.6701  0.9048  1.0368
    9MOL   C154 3210   1.441   3.406   2.572 -0.6534 -0.1668 -0.4600
    9MOL   C155 3211   1.410   3.533   2.649 -0.4180 -0.5609 -0.4495
    9MOL   O156 3212   1.515   3.563   2.740  0.0394  0.0700 -0.4977
    9MOL   C157 3213   1.634   3.614   2.685 -0.5758 -0.9288  0.0559
    9MOL   C158 3214   1.738   3.614   2.797 -0.3247  0.9605  0.2567
    9MOL   C159 3215   1.715   3.711   2.910 -0.0569 -0.0970 -0.1495
    9MOL   C160 3216   1.764   3.654   3.045 -0.0317  0.4299 -0.6311
    9MOL   H161 3217   1.543   3.371   2.587 -1.3279 -1.5419  1.1956
    9MOL   H162 3218   1.390   3.326   2.627  1.5113 -1.3731 -0.1600
    9MOL   H163 3219   1.401   3.609   2.571  0.8653  0.5485  0.4646
    9MOL   H164 3220   1.677   3.542   2.615  0.7110  0.2711 -0.4014
    9MOL   H165 3221   1.620   3.711   2.638 -0.3013 -0.0569  1.7404
    9MOL   H166 3222   1.839   3.626   2.758 -0.1674  0.7252  0.5986
    9MOL   H167 3223   1.729   3.517   2.845  0.8707  0.1244 -1.1686
    9MOL   H168 3224   1.773   3.799   2.883 -0.5589 -0.0979 -1.2156
    9MOL   H169 3225   1.611   3.735   2.932  0.5266  0.7111  1.8968
    9MOL   H170 3226   1.870   3.632   3.033 -0.4892 -0.6410 -2.9657
    9MOL   H171 3227   1.749   3.724   3.127  1.1456  0.2377 -0.2489
    9MOL   H172 3228   1.720   3.562   3.084  0.1245  0.0098 -1.4263
    9MOL   C173 3229   1.282   3.518   2.725  0.1194 -0.3518  0.3351
    9MOL   C174 3230   1.207   3.648   2.764 -0.2958 -0.5843 -0.2825
    9MOL   O175 3231   1.079   3.607   2.812  0.4015 -0.6056 -0.3698
    9MOL   C176 3232   0.968   3.599   2.717 -0.0864 -0.3970  0.3374
    9MOL   C177 3233   0.847   3.547   2.796 -0.0029  0.3314  0.4071
    9MOL   C178 3234   0.808   3.628   2.914 -0.2527  0.1471 -0.2808
    9MOL   C179 3235   0.692   3.570   2.995  0.0866  0.7511 -0.0199
    9MOL   H180 3236   1.304   3.458   2.814 -0.7276  1.2495  1.6638
    9MOL   H181 3237   1.213   3.462   2.662  0.0958 -0.8590  0.8008
    9MOL   H182 3238   1.193   3.706   2.673 -2.0842  1.0768  0.9994
    9MOL   H183 3239   0.989   3.546   2.625  2.7314  0.7553  0.2732
    9MOL   H184 3240   0.953   3.702   2.685  2.7109  0.7750  2.5547
    9MOL   H185 3241   0.866   3.444   2.828 -1.0747  0.0959  0.3153
    9MOL   H186 3242   0.769   3.542   2.720  1.4362  2.4393 -1.2755
    9MOL   H187 3243   0.895   3.647   2.977  0.3743 -1.3045 -0.7055
    9MOL   H188 3244   0.795   3.731   2.879  1.4130  0.0625 -1.2011
    9MOL   H189 3245   0.712   3.468   3.029 -0.0401  0.2532 -1.4153
    9MOL   H190 3246   0.660   3.618   3.088  2.9164 -1.0157  1.9591
    9MOL   H191 3247   0.602   3.570   2.933 -0.5486 -0.6861  0.8705
    9MOL   C192 3248   1.281   3.743   2.858 -0.1015 -0.4550 -0.5409
    9MOL   C193 3249   1.191   3.834   2.940 -0.2656 -0.4580 -0.1104
    9MOL   O194 3250   1.265   3.874   3.054 -0.2803  0.2453  0.2131
    9MOL   C195 3251   1.241   3.793   3.165  0.4536  0.6828  0.4068
    9MOL   C196 3252   1.358   3.823   3.262 -0.3391  0.3644  0.2333
    9MOL   C197 3253   1.363   3.737   3.392 -0.0901 -0.9354  0.7798
    9MOL   C198 3254   1.486   3.760   3.485  0.1756 -0.0419 -0.4404
    9MOL   H199 3255   1.365   3.796   2.813  0.1336  0.3282  0.8084
    9MOL   H200 3256   1.328   3.671   2.924 -0.4894 -1.5957 -1.4738
    9MOL   H201 3257   1.101   3.780   2.969 -1.8132  1.4272 -1.2475
    9MOL   H202 3258   1.253   3.688   3.137 -2.8594  0.5343 -0.6927
    9MOL   H203 3259   1.142   3.809   3.210  0.5387  0.4901  0.6680
    9MOL   H204 3260   1.452   3.809   3.209 -1.1476 -1.0558 -0.8942
    9MOL   H205 3261   1.348   3.924   3.301  1.8292  0.0181  1.7558
    9MOL   H206 3262   1.367   3.631   3.364  0.2915 -0.1050 -2.5336
    9MOL   H207 3263   1.273   3.755   3.450  0.0992  2.4118  0.1406
    9MOL   H208 3264   1.488   3.862   3.525  2.2020 -0.0130 -0.5413
    9MOL   H209 3265   1.488   3.692   3.570 -1.9081 -0.4351 -0.6859
    9MOL   H210 3266   1.587   3.762   3.442 -0.0260 -0.8749 -0.9453
    9MOL   C211 3267   1.141   3.964   2.864  0.1940  0.2046 -0.3421
    9MOL   C212 3268   1.046   4.049   2.940 -0.2086 -0.5045 -0.6699
    9MOL   O213 3269   1.003   4.148   2.842 -0.3245 -0.1286  0.0354
    9MOL   C214 3270   1.075   4.273   2.844  0.3978 -0.8380 -0.2191
    9MOL   C215 3271   1.012   4.364   2.744  0.1273  0.3148  0.4455
    9MOL   C216 3272   1.078   4.504   2.730 -0.5552  0.5396 -0.7708
    9MOL   C217 3273   1.047   4.605   2.839 -0.5765  0.6206 -0.1030
    9MOL   H218 3274   1.097   3.940   2.767 -2.6354 -0.3068  1.0149
    9MOL   H219 3275   1.228   4.026   2.841 -0.1526  0.8310  0.0355
    9MOL   H220 3276   1.110   4.087   3.019 -0.5103 -0.9057 -0.2289
    9MOL   H221 3277   1.066   4.315   2.944  0.2452  0.5954 -0.8242
    9MOL   H222 3278   1.177   4.260   2.806  0.0328  0.0644 -1.5346
    9MOL   H223 3279   1.024   4.317   2.646  1.2034  1.0278  0.2188
    9MOL   H224 3280   0.904   4.373   2.759 -0.4264  0.7606 -3.3281
    9MOL   H225 3281   1.044   4.534   2.631 -2.9351 -2.1079 -0.8406
    9MOL   H226 3282   1.183   4.494   2.701 -0.7818 -1.4322 -1.0140
    9MOL   H227 3283   1.083   4.573   2.937 -2.2091  2.0197  0.9980
    9MOL   H228 3284   0.938   4.610   2.835 -0.8652 -2.1148  2.3317
    9MOL   H229 3285   1.089   4.701   2.810 -0.1003 -0.0143 -1.5661
    9MOL   C230 3286   0.923   3.978   2.997  0.3773 -0.2490  0.3072
    9MOL   C231 3287   0.825   4.068   3.087 -0.1781 -0.0673 -0.6186
    9MOL   O232 3288   0.694   4.014   3.071  0.2264  0.1757 -0.0308
    9MOL   C233 3289   0.625   4.068   2.955  0.1484  0.8462  0.1373
    9MOL   C234 3290   0.513   3.972   2.918  0.4199 -0.1344 -0.3360
    9MOL   C235 3291   0.384   4.006   2.984  0.1504  0.1273 -0.1691
    9MOL   C236 3292   0.259   3.934   2.927  0.5714 -0.0598  0.0257
    9MOL   H237 3293   0.944   3.887   3.052  0.0794 -0.9074 -0.6526
    9MOL   H238 3294   0.864   3.936   2.916 -1.2820  2.5371 -0.0003
    9MOL   H239 3295   0.823   4.166   3.038  0.1701  0.7037  0.8982
    9MOL   H240 3296   0.588   4.164   2.991 -2.7655 -1.1580  2.7765
    9MOL   H241 3297   0.694   4.083   2.872 -0.4101 -2.7646 -1.0603
    9MOL   H242 3298   0.501   3.985   2.811  5.1099  0.2928 -0.8905
    9MOL   H243 3299   0.533   3.865   2.932  0.0857 -0.1308  0.2029
    9MOL   H244 3300   0.370   4.113   2.971 -0.1577  0.1230  0.1380
    9MOL   H245 3301   0.393   3.982   3.090 -2.4025 -1.0217 -0.1899
    9MOL   H246 3302   0.250   3.828   2.949  1.7606 -0.5556 -1.7732
    9MOL   H247 3303   0.243   3.951   2.821  0.3258 -0.6042 -0.0257
    9MOL   H248 3304   0.172   3.983   2.970  0.5695 -0.5669  0.6063
    9MOL   C249 3305   0.860   4.068   3.233 -0.0456 -0.0966  0.7057
    9MOL   C250 3306   0.964   4.164   3.281 -0.7865 -0.7096 -0.2650
    9MOL   O251 3307   1.000   4.157   3.418 -0.4674  0.1512  0.0242
    9MOL   C252 3308   1.052   4.027   3.453  0.4227  0.2043 -0.1425
    9MOL   C253 3309   1.118   4.042   3.586 -0.3167 -0.2581 -0.1868
    9MOL   C254 3310   1.254   4.110   3.591 -0.1951  0.1706  0.0993
    9MOL   C255 3311   1.312   4.124   3.733 -0.6311  0.6130  0.0633
    9MOL   H256 3312   0.873   3.963   3.257  1.6007  0.4857  2.4606
    9MOL   H257 3313   0.758   4.082   3.271 -0.1980  2.5046 -0.5186
    9MOL   H258 3314   1.055   4.155   3.222  0.2060  2.0244  0.7388
    9MOL   H259 3315   1.128   3.982   3.389 -1.1673 -3.5876  0.5004
    9MOL   H260 3316   0.969   3.958   3.466 -0.4075  1.2981  0.4809
    9MOL   H261 3317   1.060   4.083   3.668  0.6377 -1.5887  1.1626
    9MOL   H262 3318   1.134   3.939   3.615 -1.6476 -0.3141  0.3899
    9MOL   H263 3319   1.331   4.064   3.528 -1.9842 -2.7382 -0.0486
    9MOL   H264 3320   1.241   4.205   3.540  1.5367  0.3786  0.0062
    9MOL   H265 3321   1.230   4.145   3.801 -1.6175 -0.8959 -0.6462
    9MOL   H266 3322   1.392   4.197   3.749  0.4746 -0.5159 -0.2035
    9MOL   H267 3323   1.354   4.028   3.765  1.7345  1.3807 -0.5859
    9MOL   C268 3324   0.926   4.311   3.250 -0.3658 -0.4611 -0.1114
    9MOL   C269 3325   1.023   4.421   3.299 -0.5391 -0.6634 -0.1191
    9MOL   O270 3326   1.131   4.425   3.206 -0.3969  0.2644  0.1926
    9MOL   C271 3327   1.258   4.434   3.268 -0.4310  0.1653 -0.2699
    9MOL   C272 3328   1.371   4.388   3.171  0.7377 -0.2564 -0.1121
    9MOL   C273 3329   1.350   4.238   3.122  0.3013  0.0970  1.0004
    9MOL   C274 3330   1.449   4.191   3.017  0.2113  0.8281 -0.5578
    9MOL   H275 3331   0.907   4.331   3.145  2.1020  0.5033 -0.4201
    9MOL   H276 3332   0.827   4.315   3.296  0.8239 -0.4953  2.5554
    9MOL   H277 3333   1.056   4.394   3.399 -0.0633 -1.3438 -0.4554
    9MOL   H278 3334   1.292   4.538   3.275  0.6395 -0.1342 -0.8796
    9MOL   H279 3335   1.261   4.390   3.368  2.1025  0.0130 -0.3885
    9MOL   H280 3336   1.377   4.462   3.091 -3.5494  0.7430  0.3886
    9MOL   H281 3337   1.464   4.403   3.226  0.6574  1.0756 -0.3162
    9MOL   H282 3338   1.249   4.236   3.080  0.1226 -0.4042  1.4518
    9MOL   H283 3339   1.365   4.170   3.205  0.3639 -0.7854  0.2772
    9MOL   H284 3340   1.432   4.084   3.001 -2.0613  1.2638 -1.2654
    9MOL   H285 3341   1.550   4.216   3.050  0.3920 -0.1196 -0.3767
    9MOL   H286 3342   1.450   4.238   2.919  1.5752 -1.1217 -1.5265
    9MOL   C287 3343   0.947   4.560   3.301 -0.2846 -0.1585 -0.0377
    9MOL   C288 3344   1.019   4.687   3.345  0.4563  0.3519  0.0486
    9MOL   O289 3345   1.051   4.666   3.484  0.0208 -0.4326  0.4269
    9MOL   C290 3346   1.166   4.740   3.524  0.0890  0.1784 -0.7527
    9MOL   C291 3347   1.197   4.692   3.665 -0.0162  0.4449 -0.5286
    9MOL   C292 3348   1.226   4.536   3.672 -0.5653  0.5336  0.8339
    9MOL   C293 3349   1.299   4.504   3.800 -0.3130  0.8936 -0.1464
    9MOL   H294 3350   0.862   4.554   3.369  0.0541  1.7937  0.5931
    9MOL   H295 3351   0.893   4.577   3.209 -0.8149 -0.4767  0.2128
    9MOL   H296 3352   1.109   4.705   3.286  0.1820  2.8735  0.3573
    9MOL   H297 3353   1.249   4.706   3.463 -1.4846 -2.5853 -1.4459
    9MOL   H298 3354   1.154   4.848   3.513  0.0082  0.3668  1.0375
    9MOL   H299 3355   1.116   4.716   3.735 -0.9482  0.2058 -1.5029
    9MOL   H300 3356   1.280   4.754   3.698  1.5554 -1.1891 -1.3539
    9MOL   H301 3357   1.292   4.500   3.593 -1.7762  0.5435 -0.1775
    9MOL   H302 3358   1.130   4.485   3.677 -0.3746 -0.1367 -1.5567
    9MOL   H303 3359   1.268   4.405   3.834  1.4179  0.2030 -0.5119
    9MOL   H304 3360   1.408   4.512   3.803 -0.0614 -1.2751 -1.9889
    9MOL   H305 3361   1.268   4.569   3.882 -0.1039 -1.7723  2.1106
    9MOL   C306 3362   0.931   4.807   3.329  0.5807  0.5563  0.5696
    9MOL   C307 3363   0.959   4.898   3.208 -0.0042 -0.2282 -0.2769
    9MOL   O308 3364   1.065   4.989   3.238  0.4327  0.0638  0.1215
    9MOL   C309 3365   1.122   5.058   3.131 -0.1291 -0.2422  0.6573
    9MOL   C310 3366   1.266   5.121   3.172  0.0780  0.6733  0.5780
    9MOL   C311 3367   1.322   5.211   3.066  0.0087  0.4958  0.6301
    9MOL   C312 3368   1.469   5.241   3.087 -0.3488 -0.2121 -0.2011
    9MOL   H313 3369   0.830   4.769   3.316  0.9354 -0.8429  1.7444
    9MOL   H314 3370   0.942   4.870   3.417 -0.1344  0.8661  0.4348
    9MOL   H315 3371   0.995   4.823   3.137 -1.1728 -2.3952  1.3635
    9MOL   H316 3372   1.054   5.141   3.115  0.9207  0.5525  0.2674
    9MOL   H317 3373   1.120   4.997   3.040  0.8764 -0.4614  0.7696
    9MOL   H318 3374   1.337   5.041   3.193 -1.1306  0.1923  3.0045
    9MOL   H319 3375   1.259   5.179   3.264 -1.1806  1.1218  0.2096
    9MOL   H320 3376   1.323   5.153   2.974 -2.1078 -2.5484  2.4034
    9MOL   H321 3377   1.265   5.301   3.044 -0.2373  0.2630  0.3065
    9MOL   H322 3378   1.531   5.155   3.111  0.5673  0.3672 -0.4474
    9MOL   H323 3379   1.486   5.322   3.159 -1.9452  2.8246 -3.1042
    9MOL   H324 3380   1.517   5.278   2.996  3.3079 -0.3849  1.5372
    9MOL   C325 3381   0.840   4.974   3.162  0.2188 -0.3115  0.4228
    9MOL   C326 3382   0.716   4.899   3.099  1.2118 -0.6025  0.1181
    9MOL   O327 3383   0.623   5.010   3.083 -0.2141  0.4139 -0.2346
    9MOL   C328 3384   0.519   5.025   3.187 -0.1411  0.2068  0.0381
    9MOL   C329 3385   0.400   5.119   3.155 -0.1124 -0.6292 -0.1874
    9MOL   C330 3386   0.452   5.267   3.135 -1.1298  0.8930 -0.5247
    9MOL   C331 3387   0.380   5.356   3.037  0.0207  0.4699  0.1243
    9MOL   H332 3388   0.868   5.048   3.086 -2.5292 -1.1618 -1.4942
    9MOL   H333 3389   0.805   5.045   3.237 -1.6581  0.4650 -1.1465
    9MOL   H334 3390   0.668   4.825   3.162 -0.9347  0.9520  0.3885
    9MOL   H335 3391   0.569   5.064   3.275 -0.5217 -1.0956  0.8339
    9MOL   H336 3392   0.480   4.930   3.223 -2.1784  1.0870  0.2345
    9MOL   H337 3393   0.339   5.080   3.074 -2.5455  3.4122 -0.4166
    9MOL   H338 3394   0.339   5.119   3.245  1.5994 -0.6971  1.0200
    9MOL   H339 3395   0.550   5.261   3.087 -1.5675 -1.5480 -1.1857
    9MOL   H340 3396   0.452   5.319   3.230 -0.8523 -0.4332  0.2152
    9MOL   H341 3397   0.386   5.313   2.937 -0.2260  1.1575 -0.1870
    9MOL   H342 3398   0.428   5.453   3.026  1.0575 -0.0695 -0.1659
    9MOL   H343 3399   0.276   5.374   3.062 -0.4992  0.3745 -1.8771
    9MOL   C344 3400   0.753   4.835   2.964  0.1169  0.0791  0.4768
    9MOL   C345 3401   0.640   4.746   2.917 -0.2350 -0.3957 -0.1058
    9MOL   O346 3402   0.628   4.623   2.990  0.1997  1.0555  0.1804
    9MOL   C347 3403   0.499   4.589   3.035 -0.3631 -0.2193  0.0311
    9MOL   C348 3404   0.508   4.471   3.127 -0.1137 -0.1380  0.2323
    9MOL   C349 3405   0.555   4.511   3.261 -0.7200  0.0188  0.0991
    9MOL   C350 3406   0.539   4.393   3.358 -0.5922  0.3900 -0.0977
    9MOL   H351 3407   0.769   4.919   2.897  0.4546  0.0542  0.5276
    9MOL   H352 3408   0.850   4.786   2.959  0.9332  1.7889 -0.7222
    9MOL   H353 3409   0.548   4.803   2.928  0.7846  1.3374 -0.4051
    9MOL   H354 3410   0.424   4.570   2.958  1.1905 -1.4389 -1.2111
    9MOL   H355 3411   0.467   4.682   3.081 -1.2090  0.2877 -1.5665
    9MOL   H356 3412   0.572   4.396   3.080  1.4943  1.2039  0.2411
    9MOL   H357 3413   0.406   4.433   3.132 -0.8797  1.9263  0.6813
    9MOL   H358 3414   0.655   4.554   3.267 -1.2231  0.9225  2.3815
    9MOL   H359 3415   0.489   4.590   3.297 -2.1601 -1.3431  0.4855
    9MOL   H360 3416   0.576   4.425   3.455 -0.3575  1.6978 -0.6088
    9MOL   H361 3417   0.598   4.306   3.329  0.3448  0.3343  1.9256
    9MOL   H362 3418   0.435   4.363   3.359  0.0037 -1.8179  3.5719
    9MOL   C363 3419   0.661   4.723   2.764 -0.5250 -0.0983 -0.0050
    9MOL   C364 3420   0.559   4.631   2.700 -0.3228 -0.7095 -0.3831
    9MOL   O365 3421   0.565   4.649   2.560  0.3243  0.1068  0.5874
    9MOL   C366 3422   0.477   4.742   2.500  0.4360 -0.3100 -0.3233
    9MOL   C367 3423   0.502   4.714   2.348  0.2785  0.2649  1.1016
    9MOL   C368 3424   0.632   4.782   2.290  0.1681 -0.3799  1.0719
    9MOL   C369 3425   0.660   4.932   2.319 -0.6816  0.0268  0.1564
    9MOL   H370 3426   0.764   4.700   2.737 -0.8028 -1.6339  0.2249
    9MOL   H371 3427   0.638   4.819   2.716 -0.8192 -0.1158  0.1024
    9MOL   H372 3428   0.455   4.648   2.728  0.2604 -1.2160  2.1463
    9MOL   H373 3429   0.492   4.849   2.519  1.7272 -0.4948 -0.2473
    9MOL   H374 3430   0.379   4.719   2.542 -0.0356 -0.4963 -1.5128
    9MOL   H375 3431   0.425   4.762   2.288  0.3135  1.1211  1.7309
    9MOL   H376 3432   0.500   4.606   2.332  0.4907  0.1646  1.7621
    9MOL   H377 3433   0.634   4.778   2.181 -0.3262  1.1585  0.9985
    9MOL   H378 3434   0.720   4.732   2.330  0.0869 -1.5135 -0.1177
    9MOL   H379 3435   0.694   4.939   2.422 -0.6661  0.9685  0.0872
    9MOL   H380 3436   0.736   4.970   2.251  1.5295 -1.9046  1.4807
    9MOL   H381 3437   0.564   4.982   2.303  0.6062  2.3453 -0.4152
    9MOL   H382 3438   0.565   4.527   2.732 -1.3742 -0.9532 -0.9285
   10MOL     C1 3439   4.851   5.880   2.989  0.1939 -0.7968 -0.1513
   10MOL     C2 3440   4.798   5.950   2.864  0.2156  0.2736 -0.1867
   10MOL     O3 3441   4.899   5.929   2.768  0.0127 -0.3005 -0.3944
   10MOL     C4 3442   4.999   6.036   2.757  0.0193 -0.0324  0.3477
   10MOL     C5 3443   5.121   6.004   2.666  0.5354  0.9923  0.5388
   10MOL     C6 3444   5.215   6.126   2.665 -0.0300 -0.5284 -0.1785
   10MOL     C7 3445   5.359   6.094   2.619  0.1239 -0.8858 -0.3451
   10MOL     H8 3446   4.777   5.867   3.068  0.6144 -0.7752  0.2525
   10MOL     H9 3447   4.883   5.778   2.965  0.1676 -0.2309 -2.6777
   10MOL    H10 3448   4.775   6.057   2.864  1.3967  0.5370  1.0634
   10MOL    H11 3449   4.952   6.125   2.717  0.7274 -0.1151 -0.6896
   10MOL    H12 3450   5.034   6.066   2.855 -1.1915 -0.2590  0.8570
   10MOL    H13 3451   5.087   5.973   2.567 -1.1963  3.0006  0.4818
   10MOL    H14 3452   5.171   5.920   2.714  3.1028  0.2984 -3.0818
   10MOL    H15 3453   5.230   6.152   2.770  2.4889  1.4738 -0.9950
   10MOL    H16 3454   5.166   6.214   2.625  1.0406  1.0293  1.8219
   10MOL    H17 3455   5.435   6.165   2.655 -0.5895  0.2294 -0.9939
   10MOL    H18 3456   5.370   6.091   2.510 -1.0093 -2.7689 -0.4067
   10MOL    H19 3457   5.384   5.997   2.661 -0.9801 -0.8168  0.4709
   10MOL    H20 3458   4.945   5.917   3.030  0.3813 -0.6948 -0.6728
   10MOL    C21 3459   4.676   5.872   2.805 -0.0245  0.4613  0.2807
   10MOL    C22 3460   4.545   5.892   2.885 -0.1703 -0.2924 -0.1121
   10MOL    O23 3461   4.502   6.025   2.860  0.2249  0.0282  0.4520
   10MOL    C24 3462   4.479   6.120   2.960  0.2756 -0.1148 -0.2465
   10MOL    C25 3463   4.523   6.255   2.908 -0.4141  0.6055  0.0269
   10MOL    C26 3464   4.445   6.308   2.783 -0.4802 -0.4109 -0.5601
   10MOL    C27 3465   4.535   6.399   2.697 -1.1679 -0.6640 -0.1114
   10MOL    H28 3466   4.702   5.767   2.791 -3.4476 -0.6961  2.0253
   10MOL    H29 3467   4.667   5.907   2.702 -0.7121 -1.5675 -0.3654
   10MOL    H30 3468   4.563   5.875   2.992 -0.8001 -0.9018 -0.1003
   10MOL    H31 3469   4.537   6.090   3.048 -0.2315 -2.5663 -0.7166
   10MOL    H32 3470   4.374   6.111   2.986  0.4482 -1.5925 -0.0543
   10MOL    H33 3471   4.526   6.333   2.984  1.8247 -0.2138  0.8149
   10MOL    H34 3472   4.630   6.246   2.887 -0.9184 -1.0450 -2.0168
   10MOL    H35 3473   4.418   6.224   2.719  0.5352 -0.9561 -0.2704
   10MOL    H36 3474   4.346   6.346   2.812 -0.0025  0.3961  0.0450
   10MOL    H37 3475   4.631   6.348   2.687 -0.6866  0.3716 -0.8479
   10MOL    H38 3476   4.500   6.420   2.596  1.1549  2.5169 -0.3547
   10MOL    H39 3477   4.561   6.496   2.740  2.0930 -0.2445 -2.8746
   10MOL    C40 3478   4.438   5.796   2.832 -0.0596 -0.2959 -0.3929
   10MOL    C41 3479   4.311   5.804   2.917 -0.2715 -0.0935 -0.0193
   10MOL    O42 3480   4.256   5.664   2.920  0.6968 -0.5748  0.1334
   10MOL    C43 3481   4.328   5.573   3.011 -0.1217 -0.3780  0.0065
   10MOL    C44 3482   4.222   5.539   3.117 -0.3258  0.1714 -0.6212
   10MOL    C45 3483   4.274   5.440   3.227 -0.2544  0.4234 -0.0533
   10MOL    C46 3484   4.188   5.431   3.354 -0.0663  0.1632  0.3196
   10MOL    H47 3485   4.477   5.694   2.826 -2.5010 -1.2135 -1.0308
   10MOL    H48 3486   4.421   5.836   2.732 -2.3395 -0.0875  0.0520
   10MOL    H49 3487   4.330   5.835   3.019 -0.2128  1.7686 -0.5736
   10MOL    H50 3488   4.428   5.605   3.042 -0.5636  0.2333  0.8139
   10MOL    H51 3489   4.354   5.482   2.958 -0.5909 -0.7283  0.3734
   10MOL    H52 3490   4.134   5.489   3.077  1.1649 -3.6307  0.6235
   10MOL    H53 3491   4.189   5.633   3.162 -0.6875  1.3592 -3.2956
   10MOL    H54 3492   4.373   5.470   3.260  0.8002 -2.1189 -0.7768
   10MOL    H55 3493   4.283   5.341   3.182 -1.4592  0.4432 -0.3601
   10MOL    H56 3494   4.086   5.399   3.330  0.0065 -0.2626  0.5920
   10MOL    H57 3495   4.231   5.364   3.428  0.0544 -2.0432 -1.7084
   10MOL    H58 3496   4.193   5.529   3.402  2.0683 -0.9683  2.4688
   10MOL    C59 3497   4.202   5.896   2.858  0.4142  0.3660  0.1266
   10MOL    C60 3498   4.072   5.928   2.937 -0.3934  0.5792 -0.0833
   10MOL    O61 3499   4.120   5.994   3.054  0.6371  0.1912 -0.3821
   10MOL    C62 3500   4.020   6.006   3.161 -0.4564 -0.1493 -0.9124
   10MOL    C63 3501   3.985   5.867   3.227 -0.0193  0.7125  1.1289
   10MOL    C64 3502   3.864   5.877   3.329  0.0824  0.3053  0.6069
   10MOL    C65 3503   3.872   5.769   3.434  0.2211 -0.4658 -0.1360
   10MOL    H66 3504   4.241   5.996   2.836 -1.4348  1.1623  0.3655
   10MOL    H67 3505   4.173   5.855   2.761  1.5600  1.8100 -0.8642
   10MOL    H68 3506   4.020   5.834   2.954  0.7900 -0.4435 -1.8628
   10MOL    H69 3507   3.934   6.067   3.134 -0.5615  0.0798 -0.0623
   10MOL    H70 3508   4.060   6.072   3.238 -1.1752  1.6073 -2.0120
   10MOL    H71 3509   3.973   5.793   3.149  1.0543  0.1768  1.4658
   10MOL    H72 3510   4.076   5.836   3.277  0.8082  0.5603 -0.4412
   10MOL    H73 3511   3.880   5.969   3.384 -1.0456  1.5565 -1.1306
   10MOL    H74 3512   3.769   5.892   3.279  0.7693 -0.1090 -0.8778
   10MOL    H75 3513   3.951   5.799   3.503 -0.8960  0.3326  0.8052
   10MOL    H76 3514   3.782   5.746   3.491  0.7841  0.7442  1.2876
   10MOL    H77 3515   3.902   5.674   3.391 -0.3861 -1.7657  2.2406
   10MOL    C78 3516   3.980   6.030   2.855 -0.0729 -0.0734 -0.3142
   10MOL    C79 3517   3.915   5.977   2.722  0.4772 -0.1939  0.6608
   10MOL    O80 3518   3.999   5.934   2.613 -0.5398 -0.0572 -0.2240
   10MOL    C81 3519   4.092   6.026   2.547 -0.0570 -0.1054 -0.5351
   10MOL    C82 3520   4.174   5.948   2.447  0.1345 -0.3156 -0.3717
   10MOL    C83 3521   4.262   6.031   2.355 -0.4440  0.2302  0.0942
   10MOL    C84 3522   4.382   6.093   2.419 -1.1471  0.8717  0.3050
   10MOL    H85 3523   4.033   6.122   2.827 -0.6345 -0.3768 -2.4878
   10MOL    H86 3524   3.901   6.056   2.925  1.4148  1.4036  0.8626
   10MOL    H87 3525   3.857   5.889   2.747 -0.2695 -0.1422 -0.8317
   10MOL    H88 3526   4.149   6.088   2.616  1.4016  1.0477 -2.7301
   10MOL    H89 3527   4.030   6.102   2.499 -1.8546  0.6018  2.7903
   10MOL    H90 3528   4.236   5.872   2.494  0.1732  0.0072  0.1009
   10MOL    H91 3529   4.095   5.892   2.397  1.8114 -0.7713 -2.5989
   10MOL    H92 3530   4.203   6.114   2.316  0.3470  0.5300 -0.4950
   10MOL    H93 3531   4.295   5.969   2.271 -2.2401 -0.4640 -0.1063
   10MOL    H94 3532   4.439   6.159   2.353  0.2091 -1.2130 -0.6488
   10MOL    H95 3533   4.355   6.150   2.508  0.0208  0.1775  1.1232
   10MOL    H96 3534   4.451   6.019   2.460 -1.4670 -0.1033 -0.8821
   10MOL    C97 3535   3.803   6.078   2.674 -1.0832  0.1424 -0.3569
   10MOL    C98 3536   3.711   6.023   2.573  0.6393 -0.1936  0.2933
   10MOL    O99 3537   3.637   5.942   2.664  0.0865  0.0789 -0.8866
   10MOL   C100 3538   3.583   5.832   2.594  0.0555  0.5722  0.0404
   10MOL   C101 3539   3.480   5.759   2.682  0.2057  0.6133  0.0853
   10MOL   C102 3540   3.356   5.846   2.711 -0.2980 -0.5225  0.5790
   10MOL   C103 3541   3.237   5.765   2.758  0.7195 -0.1229  0.3081
   10MOL   H104 3542   3.856   6.166   2.638  0.7134 -0.2814  1.1673
   10MOL   H105 3543   3.745   6.121   2.756  0.7195 -0.5729  1.3479
   10MOL   H106 3544   3.760   5.963   2.497  1.3684 -0.7743  1.2157
   10MOL   H107 3545   3.655   5.758   2.558  2.0076  1.8701  1.2089
   10MOL   H108 3546   3.540   5.872   2.503 -1.8838  0.4494  0.8667
   10MOL   H109 3547   3.524   5.718   2.773 -1.4957 -1.2215  0.1192
   10MOL   H110 3548   3.449   5.673   2.622 -2.9399 -0.3458  2.9253
   10MOL   H111 3549   3.324   5.897   2.620  0.6608 -0.4487  0.2833
   10MOL   H112 3550   3.373   5.927   2.782 -2.3357 -0.2807  0.8259
   10MOL   H113 3551   3.138   5.810   2.762 -0.1455 -1.6475 -2.4386
   10MOL   H114 3552   3.233   5.676   2.696  1.9171  0.4784 -0.6722
   10MOL   H115 3553   3.260   5.737   2.860  1.6752  1.8252  0.6612
   10MOL   C116 3554   3.618   6.137   2.522 -0.3028  0.5459  0.0079
   10MOL   C117 3555   3.655   6.204   2.385 -0.6635  0.4737 -0.4198
   10MOL   O118 3556   3.775   6.281   2.418  0.1443  0.2160  0.1165
   10MOL   C119 3557   3.749   6.415   2.445 -0.6368 -0.8147  0.4544
   10MOL   C120 3558   3.882   6.480   2.496 -0.6482  0.2494  0.8540
   10MOL   C121 3559   3.989   6.488   2.383 -0.2310 -0.2500  0.4657
   10MOL   C122 3560   4.126   6.528   2.433 -0.8478  0.2085 -0.2616
   10MOL   H123 3561   3.516   6.099   2.510 -0.0100  0.2243 -1.5481
   10MOL   H124 3562   3.604   6.211   2.600  3.4549 -0.3226  1.6033
   10MOL   H125 3563   3.567   6.261   2.354 -0.0797  0.1913 -2.6243
   10MOL   H126 3564   3.666   6.418   2.516 -1.2001  0.1785 -0.2347
   10MOL   H127 3565   3.722   6.458   2.349 -1.5278 -1.9168  0.2092
   10MOL   H128 3566   3.922   6.428   2.584  2.7712  1.2158 -0.0269
   10MOL   H129 3567   3.870   6.583   2.530 -1.9145  1.3593 -2.7667
   10MOL   H130 3568   4.005   6.388   2.343 -1.2699  0.1885 -1.0964
   10MOL   H131 3569   3.956   6.548   2.298 -0.1249 -1.1653 -0.2323
   10MOL   H132 3570   4.127   6.630   2.469  0.7994 -0.0952  0.5969
   10MOL   H133 3571   4.211   6.515   2.367 -0.6212  0.5498 -0.0353
   10MOL   H134 3572   4.137   6.468   2.524 -1.6821  1.1439  0.4657
   10MOL   C135 3573   3.694   6.103   2.281 -0.7403  0.3550  0.0601
   10MOL   C136 3574   3.700   6.158   2.142 -0.5875  0.0875 -0.6810
   10MOL   O137 3575   3.563   6.198   2.113  0.6347 -1.0307  0.2238
   10MOL   C138 3576   3.532   6.170   1.979 -0.2159 -0.0598 -0.1652
   10MOL   C139 3577   3.386   6.118   1.979 -0.8680  0.3077  0.2223
   10MOL   C140 3578   3.283   6.231   1.994  0.2582 -0.5894  0.0570
   10MOL   C141 3579   3.135   6.181   1.978  0.3641  0.5750  0.2244
   10MOL   H142 3580   3.621   6.023   2.276 -1.2339  0.7844  0.4071
   10MOL   H143 3581   3.784   6.056   2.323 -0.8348 -0.9311 -1.1321
   10MOL   H144 3582   3.732   6.077   2.077 -1.4965 -0.5579 -0.3392
   10MOL   H145 3583   3.598   6.093   1.940 -0.5861 -0.9168  0.8664
   10MOL   H146 3584   3.543   6.257   1.914 -0.7671  0.1003 -0.0484
   10MOL   H147 3585   3.372   6.050   2.063 -1.2632  0.3995  0.2302
   10MOL   H148 3586   3.375   6.069   1.882  1.6238  0.5375 -0.2291
   10MOL   H149 3587   3.298   6.269   2.095 -1.8463 -1.7819  0.8474
   10MOL   H150 3588   3.297   6.306   1.916  1.9736 -0.6928  0.2499
   10MOL   H151 3589   3.094   6.130   2.066 -0.7514  0.4836 -0.3370
   10MOL   H152 3590   3.067   6.266   1.974  0.5586  0.8040  1.5327
   10MOL   H153 3591   3.127   6.126   1.885 -4.1075 -0.6730  1.2117
   10MOL   C154 3592   3.804   6.267   2.115  0.1635 -0.6503 -0.7013
   10MOL   C155 3593   3.842   6.286   1.968 -0.2642 -0.8276  0.5231
   10MOL   O156 3594   3.904   6.165   1.919  0.1908 -0.6356 -0.1903
   10MOL   C157 3595   3.918   6.144   1.773  0.5665 -0.6081 -0.2838
   10MOL   C158 3596   3.932   5.995   1.750 -0.1489 -0.6424  0.4094
   10MOL   C159 3597   3.809   5.915   1.819 -0.3454 -0.8844  0.1361
   10MOL   C160 3598   3.807   5.767   1.788  0.3144  0.0610  0.8240
   10MOL   H161 3599   3.902   6.246   2.157  0.6112 -0.9895 -1.8872
   10MOL   H162 3600   3.762   6.362   2.148  1.0059 -0.5235  0.0168
   10MOL   H163 3601   3.750   6.307   1.913 -0.4844 -0.5965  0.9780
   10MOL   H164 3602   3.837   6.188   1.715 -0.8859  1.7716  3.3595
   10MOL   H165 3603   4.011   6.194   1.746  0.0119  1.6024  1.7103
   10MOL   H166 3604   4.028   5.961   1.790  0.6352  0.5925 -0.3837
   10MOL   H167 3605   3.952   5.974   1.645  1.9956 -0.9526  0.8563
   10MOL   H168 3606   3.802   5.935   1.926 -2.7169  0.3303 -0.2176
   10MOL   H169 3607   3.716   5.964   1.792  0.0494  0.9402  1.9437
   10MOL   H170 3608   3.716   5.724   1.832  0.1921 -1.5459 -0.9120
   10MOL   H171 3609   3.831   5.749   1.684 -0.7720 -0.6366  0.6860
   10MOL   H172 3610   3.882   5.710   1.842  0.1871 -1.8561 -0.9483
   10MOL   C173 3611   3.940   6.406   1.943 -0.1450  0.9197  0.2495
   10MOL   C174 3612   3.869   6.538   1.907  0.3991 -0.5754 -0.2706
   10MOL   O175 3613   3.946   6.658   1.928  0.1095 -0.1745 -0.4936
   10MOL   C176 3614   3.955   6.696   2.065  0.0752 -0.0335 -0.2055
   10MOL   C177 3615   4.003   6.836   2.101  0.7771  0.2741  0.1793
   10MOL   C178 3616   3.981   6.876   2.249 -0.1249  0.1883  0.7292
   10MOL   C179 3617   4.033   7.015   2.283  0.1823  0.7243 -0.4801
   10MOL   H180 3618   4.003   6.394   1.855 -2.1376  2.3014 -1.4001
   10MOL   H181 3619   4.009   6.420   2.027 -1.3990 -0.6207  1.5724
   10MOL   H182 3620   3.777   6.549   1.964  1.2705 -0.0750  1.0386
   10MOL   H183 3621   4.027   6.624   2.104  2.2726  1.3940 -1.5375
   10MOL   H184 3622   3.859   6.673   2.110  1.0028 -1.5069  1.0589
   10MOL   H185 3623   3.948   6.909   2.042 -0.1058 -0.7510 -0.2606
   10MOL   H186 3624   4.110   6.835   2.081  1.1503  1.5498  1.9699
   10MOL   H187 3625   3.873   6.879   2.267 -0.1865  0.6935  0.3004
   10MOL   H188 3626   4.018   6.796   2.314 -1.0121 -0.8142  0.0264
   10MOL   H189 3627   3.996   7.043   2.381  1.4607 -0.8825  0.4943
   10MOL   H190 3628   4.141   7.013   2.295 -0.0402  1.0009  1.7181
   10MOL   H191 3629   3.992   7.090   2.215 -0.6430  0.0959 -0.6799
   10MOL   C192 3630   3.844   6.523   1.753  0.1477 -0.0967  0.1698
   10MOL   C193 3631   3.744   6.635   1.716  0.2387  0.6867  0.3009
   10MOL   O194 3632   3.756   6.653   1.576 -0.5256 -0.0133  0.0587
   10MOL   C195 3633   3.826   6.764   1.528  0.1127 -0.2882  0.6323
   10MOL   C196 3634   3.821   6.756   1.377  0.7359 -0.0448  0.3567
   10MOL   C197 3635   3.901   6.642   1.312  0.1093  0.1230  0.0394
   10MOL   C198 3636   3.895   6.653   1.157 -0.4388 -0.9970 -0.1721
   10MOL   H199 3637   3.810   6.430   1.708 -0.2417  0.1613 -0.0724
   10MOL   H200 3638   3.940   6.551   1.710  0.2279  1.0948  1.0797
   10MOL   H201 3639   3.777   6.733   1.750  1.1788  0.6597 -0.5141
   10MOL   H202 3640   3.932   6.758   1.551 -0.2184 -1.9415  1.8180
   10MOL   H203 3641   3.787   6.862   1.555 -0.6772  0.1869 -2.0691
   10MOL   H204 3642   3.715   6.755   1.353  1.1005  1.2103 -1.4197
   10MOL   H205 3643   3.863   6.850   1.341  2.4089 -0.0711  2.1679
   10MOL   H206 3644   3.864   6.545   1.346  2.2436 -0.2605  1.3615
   10MOL   H207 3645   4.003   6.635   1.350 -0.0666  1.0848  0.7150
   10MOL   H208 3646   3.936   6.752   1.135  1.7314 -2.1606 -1.6125
   10MOL   H209 3647   3.971   6.593   1.108  1.2178 -1.4955  2.8501
   10MOL   H210 3648   3.795   6.652   1.115 -0.9871  0.2104  1.0856
   10MOL   C211 3649   3.596   6.606   1.750  0.3590  0.3319 -0.0216
   10MOL   C212 3650   3.546   6.685   1.870 -0.0398 -0.1934 -0.2962
   10MOL   O213 3651   3.548   6.827   1.851  0.0018  0.5897 -0.5420
   10MOL   C214 3652   3.620   6.892   1.954 -0.8034  0.0036 -0.4919
   10MOL   C215 3653   3.634   7.039   1.918  0.2660  0.5492 -0.5947
   10MOL   C216 3654   3.671   7.065   1.776 -0.5740 -0.3849  0.8100
   10MOL   C217 3655   3.681   7.224   1.761  0.0726 -0.3046 -0.8723
   10MOL   H218 3656   3.579   6.499   1.761 -1.2378  0.5946  0.2932
   10MOL   H219 3657   3.536   6.619   1.660  0.5362 -0.2938 -0.2308
   10MOL   H220 3658   3.597   6.655   1.962 -1.8509  1.2161  1.2179
   10MOL   H221 3659   3.567   6.899   2.049 -0.4376 -1.1728 -0.1885
   10MOL   H222 3660   3.714   6.838   1.964 -0.7939  0.4702  2.2872
   10MOL   H223 3661   3.540   7.089   1.943  0.2582 -0.2592  1.0487
   10MOL   H224 3662   3.702   7.086   1.989 -0.7597  1.5969 -0.2898
   10MOL   H225 3663   3.595   7.019   1.713 -0.9309 -0.2563  1.1442
   10MOL   H226 3664   3.770   7.032   1.745  0.4854  1.6997  1.8341
   10MOL   H227 3665   3.741   7.248   1.673  3.7373  2.5460  2.2686
   10MOL   H228 3666   3.726   7.283   1.840 -1.8259  0.1542 -0.1119
   10MOL   H229 3667   3.584   7.269   1.739  0.0896  0.5913  0.8165
   10MOL   C230 3668   3.396   6.653   1.891  0.4636 -0.1197 -0.2126
   10MOL   C231 3669   3.342   6.677   2.029  0.5805  0.4524  0.0128
   10MOL   O232 3670   3.202   6.703   2.026  0.2941  0.2298 -0.4166
   10MOL   C233 3671   3.157   6.829   1.991  0.6532 -0.3043 -0.2867
   10MOL   C234 3672   3.006   6.809   1.938  0.3894 -0.2100  0.7776
   10MOL   C235 3673   2.937   6.924   1.861  0.2949  0.4321  0.2745
   10MOL   C236 3674   2.805   6.887   1.811  0.4820 -0.7120  0.8688
   10MOL   H237 3675   3.378   6.548   1.868 -1.6187  0.2867 -0.5749
   10MOL   H238 3676   3.351   6.718   1.816  0.8232 -0.4281 -0.7049
   10MOL   H239 3677   3.388   6.768   2.068  2.3833  0.6452 -2.4336
   10MOL   H240 3678   3.172   6.898   2.074  0.3093 -0.9174  0.2813
   10MOL   H241 3679   3.215   6.861   1.904 -1.4709  2.2507 -0.8465
   10MOL   H242 3680   3.006   6.714   1.885 -1.0948  0.2254 -0.0314
   10MOL   H243 3681   2.946   6.788   2.027  0.1182  0.8182  0.8436
   10MOL   H244 3682   3.001   6.965   1.783  0.6447  0.4680  0.5773
   10MOL   H245 3683   2.925   7.003   1.935 -1.9749  0.1894  0.1912
   10MOL   H246 3684   2.817   6.798   1.749 -2.2151 -1.0361  0.7401
   10MOL   H247 3685   2.756   6.963   1.750 -0.9496 -0.1696  2.6130
   10MOL   H248 3686   2.739   6.859   1.894  0.7269  2.7101  2.2755
   10MOL   C249 3687   3.365   6.564   2.134  0.2316  0.4103  0.3425
   10MOL   C250 3688   3.357   6.602   2.287  0.1806 -0.6350 -0.3606
   10MOL   O251 3689   3.483   6.651   2.329  0.2629  0.2584  0.1934
   10MOL   C252 3690   3.484   6.760   2.420  0.5689 -0.5621  0.4275
   10MOL   C253 3691   3.629   6.789   2.463  0.1733  0.2726  0.2390
   10MOL   C254 3692   3.657   6.920   2.536  0.2401  0.6568  0.2401
   10MOL   C255 3693   3.798   6.916   2.606  0.3495 -0.2108  0.5629
   10MOL   H256 3694   3.459   6.512   2.116  2.0635  2.4584  3.3838
   10MOL   H257 3695   3.287   6.496   2.101  0.6372  0.0012  0.2177
   10MOL   H258 3696   3.288   6.687   2.289  0.1247 -0.7036  1.8102
   10MOL   H259 3697   3.426   6.767   2.512  0.9874  3.3173  0.5001
   10MOL   H260 3698   3.447   6.842   2.358 -0.8940 -0.6353  1.1747
   10MOL   H261 3699   3.649   6.703   2.527  3.1210 -0.2062 -1.2247
   10MOL   H262 3700   3.706   6.782   2.387 -1.0838  0.4968 -1.0790
   10MOL   H263 3701   3.663   6.994   2.456 -3.8707  0.4022 -0.4100
   10MOL   H264 3702   3.583   6.943   2.612 -0.7765 -1.5707 -0.0292
   10MOL   H265 3703   3.880   6.904   2.535 -1.0338  1.5606 -1.3934
   10MOL   H266 3704   3.802   6.827   2.668  1.2484 -1.5487 -1.3660
   10MOL   H267 3705   3.818   7.005   2.666  0.8473  1.4096 -1.9482
   10MOL   C268 3706   3.303   6.488   2.375  0.1484 -0.4186 -0.6874
   10MOL   C269 3707   3.151   6.467   2.382 -0.3282  0.0940  0.0206
   10MOL   O270 3708   3.128   6.349   2.466  0.3484  0.2308  0.2219
   10MOL   C271 3709   3.055   6.256   2.388 -0.2476  1.2159 -0.5230
   10MOL   C272 3710   3.023   6.130   2.467 -0.3397 -0.3419  0.1784
   10MOL   C273 3711   2.938   6.156   2.591 -0.6166 -0.0581  0.0471
   10MOL   C274 3712   2.909   6.033   2.674 -0.5950  0.5297 -1.2950
   10MOL   H275 3713   3.354   6.395   2.351  1.7041 -0.4513  2.4920
   10MOL   H276 3714   3.328   6.507   2.479 -2.8292 -0.7118  0.1328
   10MOL   H277 3715   3.119   6.459   2.279  2.0212 -1.5812 -0.6235
   10MOL   H278 3716   2.960   6.292   2.349 -0.9921 -0.0665  0.0561
   10MOL   H279 3717   3.103   6.225   2.295 -1.3255  1.3923 -1.1433
   10MOL   H280 3718   2.977   6.050   2.410  0.0538 -2.4514  2.7208
   10MOL   H281 3719   3.120   6.087   2.491 -0.2906 -1.5113 -2.0279
   10MOL   H282 3720   2.845   6.209   2.573  0.0863  1.8148  1.7417
   10MOL   H283 3721   3.005   6.216   2.652 -0.1434  0.8157 -1.3100
   10MOL   H284 3722   2.995   5.966   2.684 -0.6271  0.4965 -1.2464
   10MOL   H285 3723   2.831   5.973   2.627 -0.3118 -0.2088 -0.8400
   10MOL   H286 3724   2.869   6.063   2.770 -0.2842  2.1306 -1.6592
   10MOL   C287 3725   3.080   6.584   2.445 -0.1965  0.0669 -0.3473
   10MOL   C288 3726   2.933   6.574   2.473  0.0539  0.1076 -0.8337
   10MOL   O289 3727   2.872   6.555   2.349  0.0775 -0.2618  0.5556
   10MOL   C290 3728   2.755   6.478   2.348  0.1780 -0.2079 -0.3504
   10MOL   C291 3729   2.680   6.497   2.212  0.5838 -0.6328  0.0929
   10MOL   C292 3730   2.771   6.472   2.099  0.4836  0.0504 -0.9381
   10MOL   C293 3731   2.696   6.492   1.970 -0.8239 -0.5716 -1.0071
   10MOL   H294 3732   3.094   6.677   2.388  0.3943  2.5194  3.5776
   10MOL   H295 3733   3.129   6.581   2.543  1.1703 -0.2951 -1.0229
   10MOL   H296 3734   2.920   6.477   2.520 -3.6291  0.9864  0.1759
   10MOL   H297 3735   2.763   6.371   2.369  0.9533  0.1841  1.4664
   10MOL   H298 3736   2.672   6.527   2.399  0.5503 -0.1094  0.1585
   10MOL   H299 3737   2.639   6.598   2.214  1.8457 -0.0684 -1.4205
   10MOL   H300 3738   2.598   6.425   2.210  1.1986 -1.3296 -0.1258
   10MOL   H301 3739   2.807   6.369   2.098 -2.1149 -0.9058  0.8519
   10MOL   H302 3740   2.860   6.534   2.109 -0.5673  1.0997  2.6839
   10MOL   H303 3741   2.636   6.403   1.949  0.2885 -1.2293 -1.4354
   10MOL   H304 3742   2.618   6.567   1.972 -0.5568 -0.3009  1.3059
   10MOL   H305 3743   2.770   6.510   1.893  0.7253 -0.2435  0.5178
   10MOL   C306 3744   2.874   6.686   2.559  0.3377 -0.2451 -0.7788
   10MOL   C307 3745   2.881   6.829   2.495 -0.3822  0.2756 -0.8366
   10MOL   O308 3746   2.795   6.900   2.584 -0.1585  0.1016  0.4471
   10MOL   C309 3747   2.850   6.937   2.709 -0.2625 -0.1870  0.3417
   10MOL   C310 3748   2.738   6.991   2.798 -0.5429 -0.2926  0.1647
   10MOL   C311 3749   2.648   6.890   2.862 -0.1384  0.0886  0.2978
   10MOL   C312 3750   2.530   6.947   2.945  0.3192 -0.1043 -0.6403
   10MOL   H313 3751   2.780   6.661   2.609  0.9706 -3.3686 -1.0222
   10MOL   H314 3752   2.936   6.691   2.648  0.1152  1.1871 -0.6910
   10MOL   H315 3753   2.981   6.870   2.485 -0.3224 -0.1092 -1.8156
   10MOL   H316 3754   2.914   7.022   2.686 -0.7317 -0.0144 -0.3557
   10MOL   H317 3755   2.914   6.861   2.754 -1.7917 -1.2126  0.7984
   10MOL   H318 3756   2.676   7.048   2.729  0.2612 -0.4725 -0.7353
   10MOL   H319 3757   2.776   7.057   2.876  3.6720 -2.1149 -0.2246
   10MOL   H320 3758   2.608   6.824   2.784  2.1801 -1.1876  0.1311
   10MOL   H321 3759   2.706   6.827   2.929  0.7286  1.2310  0.6336
   10MOL   H322 3760   2.448   6.878   2.966 -0.3916  0.5968 -1.1042
   10MOL   H323 3761   2.494   7.018   2.871 -0.7230 -0.3926 -0.4232
   10MOL   H324 3762   2.555   7.002   3.036 -0.3905 -1.7709  0.6001
   10MOL   C325 3763   2.813   6.860   2.365  0.0040 -0.8375  0.3983
   10MOL   C326 3764   2.820   7.011   2.325  0.3398 -0.0448  0.0019
   10MOL   O327 3765   2.956   7.026   2.289 -0.2642  0.0806  0.1813
   10MOL   C328 3766   2.995   7.160   2.282  0.2371 -0.3498 -0.1439
   10MOL   C329 3767   3.138   7.166   2.233 -0.0594  0.4890 -0.3660
   10MOL   C330 3768   3.247   7.095   2.316 -0.6971  0.0459 -0.0493
   10MOL   C331 3769   3.385   7.099   2.237  0.5929  0.5881 -0.3860
   10MOL   H332 3770   2.709   6.829   2.369 -0.6253  0.8747 -1.7254
   10MOL   H333 3771   2.871   6.811   2.288  0.1298  2.1119 -1.4670
   10MOL   H334 3772   2.796   7.071   2.412  0.8273  0.6984 -0.3771
   10MOL   H335 3773   2.996   7.206   2.381 -1.4285  1.5834 -0.9867
   10MOL   H336 3774   2.923   7.229   2.238 -1.1530 -0.6023  1.6794
   10MOL   H337 3775   3.143   7.108   2.140 -1.8652  1.5630 -1.1596
   10MOL   H338 3776   3.165   7.266   2.199  1.6266 -0.1632 -1.0048
   10MOL   H339 3777   3.220   6.993   2.343 -0.1890 -0.2565 -0.6745
   10MOL   H340 3778   3.272   7.146   2.409  0.3106 -0.7078  0.1030
   10MOL   H341 3779   3.418   7.193   2.193 -1.0095  1.8629  1.0923
   10MOL   H342 3780   3.386   7.026   2.156 -0.5936  2.7632 -2.4278
   10MOL   H343 3781   3.469   7.062   2.295  0.5831 -0.5623 -1.0846
   10MOL   C344 3782   2.725   7.046   2.204 -0.0473 -0.0462  0.8148
   10MOL   C345 3783   2.567   7.014   2.213 -0.5626  0.0702  0.3780
   10MOL   O346 3784   2.514   6.997   2.085 -0.4169 -0.2300  0.1311
   10MOL   C347 3785   2.498   6.861   2.041  0.4552 -0.5445 -0.0887
   10MOL   C348 3786   2.414   6.849   1.916 -0.0700 -0.1522  0.8044
   10MOL   C349 3787   2.428   6.961   1.811 -0.0982 -0.4333  0.1478
   10MOL   C350 3788   2.351   6.932   1.683 -0.6646 -0.5116  0.2626
   10MOL   H351 3789   2.733   7.143   2.157 -2.4398 -0.9667 -1.6553
   10MOL   H352 3790   2.765   6.986   2.122 -1.4235  0.5670 -0.3292
   10MOL   H353 3791   2.555   6.920   2.268  2.7415 -0.6069  0.0359
   10MOL   H354 3792   2.455   6.800   2.120  0.6899 -2.1891 -1.2013
   10MOL   H355 3793   2.594   6.820   2.010  1.2674  4.0265 -4.3280
   10MOL   H356 3794   2.312   6.871   1.946 -0.6163  0.4711 -1.4233
   10MOL   H357 3795   2.409   6.750   1.870 -0.0434 -0.3486  1.2255
   10MOL   H358 3796   2.386   7.054   1.849 -1.5586 -0.7840 -0.5930
   10MOL   H359 3797   2.531   6.983   1.781 -0.6814 -0.6459 -2.0493
   10MOL   H360 3798   2.414   6.859   1.631  1.1459  1.6145 -0.5777
   10MOL   H361 3799   2.340   7.025   1.628 -1.2143 -0.6632  0.1140
   10MOL   H362 3800   2.250   6.894   1.700 -0.5685 -0.8554  0.0761
   10MOL   C363 3801   2.499   7.139   2.267  0.0882 -0.1336  0.3953
   10MOL   C364 3802   2.494   7.148   2.415 -0.1088 -0.0764 -0.7609
   10MOL   O365 3803   2.431   7.283   2.436  0.0756 -0.3616 -0.3392
   10MOL   C366 3804   2.381   7.305   2.567  0.2788  0.2899  0.1792
   10MOL   C367 3805   2.349   7.452   2.585  0.6964  0.8796 -0.6638
   10MOL   C368 3806   2.479   7.533   2.576  0.2787 -0.1569  0.1333
   10MOL   C369 3807   2.447   7.681   2.607  0.2242 -0.2073 -1.2142
   10MOL   H370 3808   2.398   7.139   2.224  0.2482 -0.5146  0.0194
   10MOL   H371 3809   2.544   7.228   2.223 -0.2943 -0.7694 -1.3278
   10MOL   H372 3810   2.595   7.153   2.455 -1.4962 -0.6835  3.1108
   10MOL   H373 3811   2.458   7.279   2.639  0.3960  1.6997  0.5791
   10MOL   H374 3812   2.293   7.245   2.592  0.4715 -0.0918 -0.0556
   10MOL   H375 3813   2.299   7.474   2.679  0.6182 -1.2479 -0.1832
   10MOL   H376 3814   2.277   7.480   2.508 -2.2580  0.2696  1.7577
   10MOL   H377 3815   2.514   7.525   2.473 -2.0214 -0.4617 -0.6510
   10MOL   H378 3816   2.558   7.509   2.648  0.4484  1.5440  0.5447
   10MOL   H379 3817   2.435   7.707   2.712  1.4783 -0.1491 -1.0745
   10MOL   H380 3818   2.539   7.735   2.582  0.4504  0.0052  0.0425
   10MOL   H381 3819   2.371   7.721   2.541 -2.1648 -2.2537  0.2277
   10MOL   H382 3820   2.451   7.055   2.453  1.0042  0.1306  1.0899
   11MOL     C1 3821   4.201   1.568   5.721 -0.0889 -0.1426  0.8588
   11MOL     C2 3822   4.155   1.622   5.586 -0.5613  0.4875 -0.7158
   11MOL     O3 3823   4.060   1.536   5.529  0.0049 -0.4670  0.2452
   11MOL     C4 3824   4.100   1.459   5.419 -0.3541  0.3137 -0.0989
   11MOL     C5 3825   3.982   1.358   5.404 -0.2945  0.1705 -0.0232
   11MOL     C6 3826   3.861   1.436   5.360  0.1660  0.2098  0.1513
   11MOL     C7 3827   3.736   1.358   5.390 -0.1837 -0.1726  0.2182
   11MOL     H8 3828   4.225   1.462   5.720  0.3271 -0.0463  0.1415
   11MOL     H9 3829   4.281   1.618   5.775  1.1676  1.0659 -2.0459
   11MOL    H10 3830   4.244   1.628   5.523 -1.1368 -0.3847 -1.6321
   11MOL    H11 3831   4.106   1.513   5.324 -0.7405 -0.3310 -0.4964
   11MOL    H12 3832   4.196   1.414   5.439 -0.2964 -0.0103 -1.0696
   11MOL    H13 3833   3.966   1.314   5.502 -2.8876  0.0712 -0.4565
   11MOL    H14 3834   4.002   1.274   5.337  1.1676 -0.7177  1.4658
   11MOL    H15 3835   3.875   1.452   5.253 -0.4855 -0.7515 -0.0895
   11MOL    H16 3836   3.855   1.538   5.397 -2.4265  0.2776 -0.3362
   11MOL    H17 3837   3.737   1.255   5.355 -0.5445  0.1453 -0.7433
   11MOL    H18 3838   3.645   1.404   5.352  0.6527  0.5718 -0.8999
   11MOL    H19 3839   3.722   1.351   5.498  0.7680  3.5347  0.6571
   11MOL    H20 3840   4.118   1.570   5.792 -0.6939 -1.0149  0.1875
   11MOL    C21 3841   4.091   1.762   5.602 -0.4465 -0.1337 -0.6569
   11MOL    C22 3842   4.049   1.833   5.469 -0.1834 -0.3058 -0.0053
   11MOL    O23 3843   3.973   1.949   5.502 -0.7155 -0.4746 -0.1378
   11MOL    C24 3844   3.837   1.920   5.476 -0.5455  0.2941 -0.4598
   11MOL    C25 3845   3.753   2.044   5.528 -0.0123 -0.4679 -0.5373
   11MOL    C26 3846   3.726   2.048   5.679 -0.2329 -0.7806  0.1194
   11MOL    C27 3847   3.607   2.129   5.723  0.6688 -0.4204  0.3359
   11MOL    H28 3848   4.162   1.823   5.658 -1.4646 -1.6002  2.3586
   11MOL    H29 3849   4.007   1.758   5.671  1.0887  0.7304  1.3064
   11MOL    H30 3850   4.002   1.760   5.403  0.8756  0.1916 -1.3069
   11MOL    H31 3851   3.801   1.833   5.530  0.8764  0.4315  0.7498
   11MOL    H32 3852   3.811   1.910   5.371  2.2589  2.0859 -1.3863
   11MOL    H33 3853   3.797   2.140   5.500 -0.9304  0.6673  1.7821
   11MOL    H34 3854   3.659   2.041   5.474 -0.6193  1.3827  0.3839
   11MOL    H35 3855   3.689   1.951   5.715 -5.7245  0.8106 -0.7763
   11MOL    H36 3856   3.819   2.054   5.735 -0.1324 -0.4570 -0.0816
   11MOL    H37 3857   3.639   2.233   5.720  0.9471 -0.5093  0.2708
   11MOL    H38 3858   3.527   2.109   5.651  0.5154 -1.5130  0.8040
   11MOL    H39 3859   3.568   2.105   5.822 -0.1844  0.9866  0.3629
   11MOL    C40 3860   4.175   1.890   5.405  0.3401 -0.5485  0.3646
   11MOL    C41 3861   4.168   1.926   5.261  0.2890  0.3180 -0.6333
   11MOL    O42 3862   4.138   1.807   5.185 -0.1135 -0.0498 -0.8146
   11MOL    C43 3863   4.026   1.809   5.099 -0.1327 -0.5476 -0.1928
   11MOL    C44 3864   3.995   1.665   5.049 -0.0832 -1.2541  0.6818
   11MOL    C45 3865   4.098   1.616   4.937 -0.6044 -0.3235 -0.5317
   11MOL    C46 3866   4.051   1.495   4.851  0.3724 -0.1291 -0.2127
   11MOL    H47 3867   4.249   1.810   5.410  1.1003  0.1206 -0.0959
   11MOL    H48 3868   4.224   1.973   5.457 -0.0289  0.7447 -1.3391
   11MOL    H49 3869   4.099   2.010   5.259  1.5145  1.3858  1.1738
   11MOL    H50 3870   4.039   1.874   5.013 -1.1585  1.2722  0.9938
   11MOL    H51 3871   3.940   1.849   5.154  0.6757 -1.1330  1.5436
   11MOL    H52 3872   3.891   1.673   5.017 -0.1211  0.9480  1.2739
   11MOL    H53 3873   3.998   1.589   5.126  2.6837 -2.1072 -0.2159
   11MOL    H54 3874   4.194   1.603   4.985 -0.1927  3.1136 -0.3065
   11MOL    H55 3875   4.123   1.691   4.862 -2.7605  0.6595 -0.2989
   11MOL    H56 3876   3.944   1.492   4.832  0.4690 -1.5924 -0.5918
   11MOL    H57 3877   4.097   1.486   4.752 -1.7835 -1.8130 -1.1168
   11MOL    H58 3878   4.075   1.398   4.896  1.0148 -0.6287 -1.6116
   11MOL    C59 3879   4.300   1.983   5.203  0.2635  0.2697  0.6134
   11MOL    C60 3880   4.323   2.129   5.243 -0.0453 -0.0459  0.1552
   11MOL    O61 3881   4.350   2.150   5.378  0.5671  0.0633  0.2353
   11MOL    C62 3882   4.286   2.251   5.448  0.5343 -0.5759 -1.0109
   11MOL    C63 3883   4.310   2.234   5.602  0.0557 -0.1315  0.1443
   11MOL    C64 3884   4.222   2.324   5.687  0.3311  0.0038 -0.4747
   11MOL    C65 3885   4.237   2.291   5.841  0.5911  0.7277 -1.3380
   11MOL    H66 3886   4.380   1.911   5.221 -0.0330 -0.6177 -1.4196
   11MOL    H67 3887   4.286   1.968   5.096  2.5154 -3.8553  0.7767
   11MOL    H68 3888   4.237   2.190   5.219 -0.4331  0.1606  2.0117
   11MOL    H69 3889   4.181   2.250   5.421  0.1184  3.3426  0.1511
   11MOL    H70 3890   4.325   2.348   5.418 -0.8159  0.6081  0.9518
   11MOL    H71 3891   4.296   2.127   5.622  1.7675 -0.4889 -0.5706
   11MOL    H72 3892   4.412   2.253   5.633  0.2039 -2.5555  1.2744
   11MOL    H73 3893   4.247   2.429   5.672  1.0229 -0.5475 -3.5655
   11MOL    H74 3894   4.117   2.315   5.658 -0.0067 -0.0344  0.7282
   11MOL    H75 3895   4.211   2.187   5.860 -0.1395  0.9900 -0.8656
   11MOL    H76 3896   4.332   2.310   5.889  0.1472 -1.3587  0.4412
   11MOL    H77 3897   4.169   2.344   5.908  0.6737 -0.3306 -0.4003
   11MOL    C78 3898   4.441   2.202   5.164  0.3493  0.0408  0.3035
   11MOL    C79 3899   4.413   2.240   5.012 -0.2222 -0.0313 -0.3343
   11MOL    O80 3900   4.548   2.292   4.966  0.5380 -0.6867  0.1178
   11MOL    C81 3901   4.617   2.198   4.884 -0.3066 -0.2921  0.3095
   11MOL    C82 3902   4.759   2.248   4.845 -0.4684 -0.0446 -0.0422
   11MOL    C83 3903   4.857   2.138   4.782 -0.6338  0.1733 -0.5045
   11MOL    C84 3904   4.997   2.192   4.751  0.1829  0.0718  0.9559
   11MOL    H85 3905   4.532   2.146   5.183 -0.2120 -1.0537 -0.1852
   11MOL    H86 3906   4.457   2.299   5.211  0.7434  0.5644 -0.8797
   11MOL    H87 3907   4.387   2.141   4.974 -0.6435 -1.1634  2.7243
   11MOL    H88 3908   4.563   2.159   4.798 -0.3165 -0.6524  0.4764
   11MOL    H89 3909   4.648   2.118   4.951 -0.4126 -1.4239 -0.9601
   11MOL    H90 3910   4.737   2.324   4.770 -0.3206  0.3781  0.3384
   11MOL    H91 3911   4.795   2.302   4.932 -2.0311 -0.3742  0.8346
   11MOL    H92 3912   4.814   2.085   4.698  0.2422 -0.6807 -0.4257
   11MOL    H93 3913   4.863   2.063   4.861  1.4483 -1.4155 -2.1148
   11MOL    H94 3914   5.054   2.118   4.693 -1.6273  0.6017 -1.6061
   11MOL    H95 3915   4.981   2.278   4.687 -0.2474 -0.6022  0.1468
   11MOL    H96 3916   5.053   2.227   4.837  3.4083 -0.5664 -0.7872
   11MOL    C97 3917   4.297   2.336   4.978  0.1630  0.3225  0.2261
   11MOL    C98 3918   4.280   2.354   4.821  0.0206 -0.2376  0.1603
   11MOL    O99 3919   4.221   2.232   4.761 -0.6933 -0.1119 -0.6268
   11MOL   C100 3920   4.091   2.189   4.801 -0.1734 -0.6807  0.1087
   11MOL   C101 3921   4.046   2.077   4.710  0.1122 -0.2773  0.3419
   11MOL   C102 3922   4.151   1.964   4.709 -0.1221 -0.6162 -0.6943
   11MOL   C103 3923   4.093   1.841   4.641 -1.3540 -0.8133  0.1097
   11MOL   H104 3924   4.341   2.432   5.005  0.1658 -0.2096  2.1865
   11MOL   H105 3925   4.207   2.313   5.034 -0.2158 -0.6880 -0.7655
   11MOL   H106 3926   4.382   2.353   4.782 -0.6669  1.7880 -1.8220
   11MOL   H107 3927   4.022   2.271   4.778 -0.0131 -0.5160  0.2111
   11MOL   H108 3928   4.099   2.158   4.905 -0.8543 -0.8522  0.1139
   11MOL   H109 3929   4.020   2.110   4.610 -1.6044  1.4624  1.3411
   11MOL   H110 3930   3.958   2.040   4.763 -0.7871 -0.3461 -1.1622
   11MOL   H111 3931   4.176   1.943   4.813 -1.0107 -0.8851 -0.5268
   11MOL   H112 3932   4.241   1.989   4.654  0.1351  1.2440  0.5393
   11MOL   H113 3933   4.000   1.811   4.689 -1.7895  1.7106  0.8894
   11MOL   H114 3934   4.073   1.863   4.536  3.3187  0.3983 -0.6602
   11MOL   H115 3935   4.164   1.758   4.646 -0.0225  0.3443  0.4761
   11MOL   C116 3936   4.220   2.494   4.773 -0.5590  1.0189 -0.0414
   11MOL   C117 3937   4.244   2.524   4.620 -0.0054 -0.0328  0.0019
   11MOL   O118 3938   4.164   2.635   4.580 -0.0902  0.3601 -0.2091
   11MOL   C119 3939   4.032   2.613   4.529  0.4355  0.3440  0.5548
   11MOL   C120 3940   3.972   2.739   4.471  0.2901 -0.9164  0.9171
   11MOL   C121 3941   3.852   2.715   4.374  0.2444  0.2521  0.1455
   11MOL   C122 3942   3.784   2.844   4.318 -0.2225  0.3123  0.5259
   11MOL   H123 3943   4.113   2.490   4.795 -0.5625 -0.9898 -0.3365
   11MOL   H124 3944   4.256   2.579   4.831 -0.9185  0.0731  1.6121
   11MOL   H125 3945   4.218   2.441   4.555  0.5001  0.4999 -0.8915
   11MOL   H126 3946   3.963   2.579   4.606  1.4617 -1.7961  0.5653
   11MOL   H127 3947   4.029   2.533   4.456  0.8049  0.5446  0.3207
   11MOL   H128 3948   4.051   2.790   4.416 -0.9730 -2.0120 -1.9939
   11MOL   H129 3949   3.943   2.807   4.552 -0.2995 -1.1518  0.9084
   11MOL   H130 3950   3.898   2.655   4.296  0.4850 -0.7901  1.0712
   11MOL   H131 3951   3.773   2.650   4.413  1.7731 -3.0374 -2.0305
   11MOL   H132 3952   3.854   2.887   4.246 -0.4585 -1.4100 -0.7609
   11MOL   H133 3953   3.764   2.923   4.391 -1.0153  1.5806 -1.0173
   11MOL   H134 3954   3.684   2.832   4.276  1.2473 -0.7262 -2.9109
   11MOL   C135 3955   4.392   2.562   4.603 -0.2311  0.3923 -0.3395
   11MOL   C136 3956   4.444   2.549   4.457 -0.4832 -0.2950  0.3996
   11MOL   O137 3957   4.422   2.420   4.410 -0.4670 -0.0602 -0.7638
   11MOL   C138 3958   4.549   2.340   4.421  0.1614 -0.2095 -0.4835
   11MOL   C139 3959   4.519   2.203   4.367 -0.1401 -0.2670  0.1596
   11MOL   C140 3960   4.437   2.114   4.466 -0.1184  0.4781 -0.2318
   11MOL   C141 3961   4.440   1.975   4.413  0.0141  0.1857 -0.1025
   11MOL   H142 3962   4.459   2.499   4.662  0.2506  1.0993 -0.1276
   11MOL   H143 3963   4.415   2.655   4.654 -3.9334  1.2161 -0.0338
   11MOL   H144 3964   4.550   2.573   4.458 -0.5748  0.1209  0.4049
   11MOL   H145 3965   4.591   2.339   4.522 -1.1876 -3.1098  0.1289
   11MOL   H146 3966   4.632   2.380   4.364  0.0958  1.4511  0.5581
   11MOL   H147 3967   4.613   2.148   4.361  0.2493  0.4853 -0.7355
   11MOL   H148 3968   4.474   2.209   4.268 -0.4178  0.8578  0.3540
   11MOL   H149 3969   4.483   2.114   4.565 -0.2729  0.9184 -0.1556
   11MOL   H150 3970   4.334   2.149   4.468  0.7749  3.5427 -2.8868
   11MOL   H151 3971   4.401   1.977   4.311  0.7144  0.8844 -0.3534
   11MOL   H152 3972   4.544   1.941   4.412 -0.0087  0.1145 -0.0563
   11MOL   H153 3973   4.388   1.903   4.477  2.1027 -1.8372 -0.5913
   11MOL   C154 3974   4.375   2.659   4.380 -0.9887  0.0418 -0.0141
   11MOL   C155 3975   4.444   2.688   4.245 -0.0647  0.6291 -0.0008
   11MOL   O156 3976   4.575   2.738   4.283  0.4014  0.2084 -0.1948
   11MOL   C157 3977   4.682   2.676   4.202 -0.1480  0.4531 -0.4819
   11MOL   C158 3978   4.816   2.753   4.239  0.5800 -0.6476  0.6321
   11MOL   C159 3979   4.804   2.910   4.250 -0.0327  0.2125  0.2527
   11MOL   C160 3980   4.942   2.974   4.277  0.1421  0.5100 -0.6096
   11MOL   H161 3981   4.366   2.752   4.437 -0.9663 -0.9629  1.6728
   11MOL   H162 3982   4.271   2.633   4.359 -0.8065  0.9506 -2.0890
   11MOL   H163 3983   4.453   2.590   4.197  1.0710  0.8414 -0.2485
   11MOL   H164 3984   4.695   2.568   4.209 -0.0012  0.4638 -0.5811
   11MOL   H165 3985   4.665   2.695   4.096  0.6827 -0.6234 -0.8180
   11MOL   H166 3986   4.885   2.740   4.155 -0.7449 -1.4173 -0.3528
   11MOL   H167 3987   4.856   2.720   4.335  0.6776 -2.8212 -0.1311
   11MOL   H168 3988   4.753   2.951   4.164  0.9465  0.5016 -0.1941
   11MOL   H169 3989   4.737   2.924   4.335 -1.8862  0.5144 -1.2326
   11MOL   H170 3990   5.005   2.956   4.191 -0.4262  1.6641 -1.2680
   11MOL   H171 3991   4.941   3.081   4.298 -0.5886  0.2476  0.7868
   11MOL   H172 3992   4.984   2.920   4.362  1.1873  0.7968 -0.9365
   11MOL   C173 3993   4.375   2.782   4.146  0.1528 -0.2249  0.3129
   11MOL   C174 3994   4.447   2.823   4.007 -0.0512  0.1363  1.0502
   11MOL   O175 3995   4.454   2.708   3.919 -0.0714 -0.1756 -0.5832
   11MOL   C176 3996   4.559   2.718   3.825  0.4597 -0.0404  0.2517
   11MOL   C177 3997   4.592   2.587   3.748 -1.2914 -0.1866 -0.0976
   11MOL   C178 3998   4.668   2.470   3.821  0.0317 -0.2055  0.3273
   11MOL   C179 3999   4.588   2.408   3.928  0.3900 -0.2302 -0.6453
   11MOL   H180 4000   4.344   2.867   4.208 -0.0044 -0.2830  0.3145
   11MOL   H181 4001   4.285   2.729   4.114  0.8029 -1.9135  1.2255
   11MOL   H182 4002   4.548   2.855   4.033  0.1117  0.5755 -0.0901
   11MOL   H183 4003   4.653   2.739   3.877  2.2918 -2.4406 -1.9406
   11MOL   H184 4004   4.552   2.797   3.751  0.0938 -0.7976 -0.5302
   11MOL   H185 4005   4.646   2.617   3.658  0.4020 -2.6298  0.0716
   11MOL   H186 4006   4.502   2.557   3.695 -1.8875  1.1707  0.1043
   11MOL   H187 4007   4.699   2.390   3.754  1.4688 -0.3500  1.1328
   11MOL   H188 4008   4.764   2.513   3.850  0.9521  0.0283 -2.8640
   11MOL   H189 4009   4.562   2.468   4.015  0.0693 -2.2760  0.6935
   11MOL   H190 4010   4.493   2.366   3.894  0.3950  0.5139 -1.5981
   11MOL   H191 4011   4.650   2.330   3.972  0.9789 -0.3016 -1.5919
   11MOL   C192 4012   4.356   2.931   3.934  0.0666 -0.1357 -0.4308
   11MOL   C193 4013   4.395   3.074   3.977  0.2761  0.6017  0.2767
   11MOL   O194 4014   4.510   3.101   3.906  0.6137 -0.3404  0.5068
   11MOL   C195 4015   4.614   3.173   3.974  0.6316 -0.0188 -0.3046
   11MOL   C196 4016   4.737   3.162   3.893  0.2963  0.7352 -0.5662
   11MOL   C197 4017   4.755   3.015   3.826 -0.1594  0.8130  0.6101
   11MOL   C198 4018   4.897   3.002   3.761  0.2556 -0.1032 -0.8009
   11MOL   H199 4019   4.253   2.902   3.959 -0.7602  2.2694 -0.9050
   11MOL   H200 4020   4.355   2.907   3.828  0.1010 -2.7600  0.1229
   11MOL   H201 4021   4.410   3.075   4.085 -2.2884 -1.2609  0.6966
   11MOL   H202 4022   4.625   3.137   4.076 -1.6938 -1.3489 -0.4761
   11MOL   H203 4023   4.595   3.280   3.977 -1.3398 -0.3409 -0.7686
   11MOL   H204 4024   4.730   3.233   3.810 -0.3803  0.6521 -0.5795
   11MOL   H205 4025   4.820   3.176   3.962 -0.6612 -1.1594  0.9810
   11MOL   H206 4026   4.686   3.016   3.741  1.8671 -1.4762 -1.1172
   11MOL   H207 4027   4.726   2.941   3.900 -1.9536  2.1718  1.3286
   11MOL   H208 4028   4.969   2.995   3.842  0.1344  0.8569 -0.6023
   11MOL   H209 4029   4.901   2.924   3.684  0.9504  0.8460 -1.7347
   11MOL   H210 4030   4.909   3.098   3.710  4.5084  3.0381  5.4634
   11MOL   C211 4031   4.293   3.184   3.936  0.3492 -0.6841  0.1090
   11MOL   C212 4032   4.169   3.178   4.026  0.1289  0.7095 -0.3688
   11MOL   O213 4033   4.214   3.201   4.164  0.2230  0.1204  0.5135
   11MOL   C214 4034   4.145   3.115   4.252  0.1211 -0.6784 -0.2232
   11MOL   C215 4035   4.209   3.138   4.393 -0.2090  0.3649  0.6217
   11MOL   C216 4036   4.359   3.113   4.409  0.8592 -0.3390 -0.2174
   11MOL   C217 4037   4.420   3.177   4.542  0.1308  0.6972 -0.6245
   11MOL   H218 4038   4.262   3.168   3.833  1.4825 -1.6016 -0.1026
   11MOL   H219 4039   4.339   3.282   3.939  0.1769 -0.6414  2.6742
   11MOL   H220 4040   4.134   3.076   4.016  0.5385  0.5190  0.1044
   11MOL   H221 4041   4.038   3.130   4.246  0.2310 -0.3634 -1.5758
   11MOL   H222 4042   4.167   3.011   4.225  1.6577 -0.1588 -1.0355
   11MOL   H223 4043   4.190   3.241   4.425  0.0559  1.5012 -2.7047
   11MOL   H224 4044   4.153   3.078   4.466 -0.0732 -0.7444 -0.1766
   11MOL   H225 4045   4.405   3.163   4.324 -0.9684  0.8878 -0.5193
   11MOL   H226 4046   4.378   3.008   4.384  0.5690 -0.0442 -1.7043
   11MOL   H227 4047   4.410   3.282   4.517  1.1128  0.4677 -2.0691
   11MOL   H228 4048   4.520   3.158   4.581 -0.8926 -0.4600  1.5313
   11MOL   H229 4049   4.361   3.164   4.632  1.7184  2.7311  0.7688
   11MOL   C230 4050   4.072   3.289   3.990  0.2952  0.4273  0.1200
   11MOL   C231 4051   4.012   3.281   3.853  0.4446 -0.1076  0.5756
   11MOL   O232 4052   3.922   3.173   3.856 -0.1905 -0.0420  0.1793
   11MOL   C233 4053   3.910   3.089   3.737  0.5140 -0.4879 -0.3705
   11MOL   C234 4054   3.809   2.979   3.763  0.4713  0.1167  0.6037
   11MOL   C235 4055   3.852   2.865   3.860  0.3129 -0.1763 -0.1450
   11MOL   C236 4056   3.773   2.736   3.840  0.3471 -0.4957 -0.0502
   11MOL   H237 4057   4.133   3.378   4.002 -0.0289  0.7057 -0.2806
   11MOL   H238 4058   3.989   3.283   4.062  0.3998  0.7801  0.2672
   11MOL   H239 4059   4.088   3.264   3.776 -0.4902  1.7325 -0.7908
   11MOL   H240 4060   3.876   3.159   3.661 -0.7574 -1.1930 -0.4535
   11MOL   H241 4061   4.007   3.048   3.708 -0.3403 -1.6097 -1.7158
   11MOL   H242 4062   3.711   3.019   3.789  1.3139  1.4170  1.8597
   11MOL   H243 4063   3.799   2.923   3.670  0.1924  1.7833 -0.3762
   11MOL   H244 4064   3.844   2.885   3.967  0.6373 -2.1365  0.2741
   11MOL   H245 4065   3.953   2.833   3.834 -0.4993 -2.9895  0.0698
   11MOL   H246 4066   3.770   2.708   3.734  0.7829  0.1331 -0.2331
   11MOL   H247 4067   3.670   2.762   3.865  0.4357  0.3106 -0.4822
   11MOL   H248 4068   3.811   2.658   3.906 -1.8565 -0.4669  1.3057
   11MOL   C249 4069   3.938   3.419   3.817  0.3184  0.6469 -0.5863
   11MOL   C250 4070   3.881   3.447   3.675  0.0036  0.0397  0.1850
   11MOL   O251 4071   3.990   3.448   3.579 -0.2152  0.4918 -0.1931
   11MOL   C252 4072   4.008   3.344   3.488 -0.0512  0.0621  0.3240
   11MOL   C253 4073   4.140   3.381   3.410 -0.3403  0.6513 -0.9940
   11MOL   C254 4074   4.160   3.279   3.296  0.1451 -0.7538  0.6315
   11MOL   C255 4075   4.305   3.278   3.241 -0.1869  0.5075  0.4042
   11MOL   H256 4076   4.004   3.503   3.838  2.1013 -0.4145 -1.8147
   11MOL   H257 4077   3.860   3.422   3.893 -0.6878 -0.8171 -1.5291
   11MOL   H258 4078   3.807   3.374   3.641 -1.0617 -0.0303  2.5605
   11MOL   H259 4079   3.924   3.333   3.420  0.4374  0.2807 -0.3258
   11MOL   H260 4080   4.017   3.251   3.544  1.7592 -1.2333 -2.0309
   11MOL   H261 4081   4.128   3.480   3.367 -1.4880  0.3941 -1.3035
   11MOL   H262 4082   4.230   3.387   3.470  1.1488  0.3638 -3.1695
   11MOL   H263 4083   4.147   3.181   3.342  0.3318 -1.5878 -1.0446
   11MOL   H264 4084   4.088   3.300   3.217  0.4037  1.1637  0.8993
   11MOL   H265 4085   4.303   3.223   3.147  0.8473 -0.2879  0.8352
   11MOL   H266 4086   4.379   3.229   3.305 -0.4532 -1.4573 -0.7474
   11MOL   H267 4087   4.338   3.379   3.219  0.1398  0.2820 -0.1406
   11MOL   C268 4088   3.818   3.592   3.668 -0.3174  0.6644  0.3988
   11MOL   C269 4089   3.746   3.612   3.532 -0.0500  0.5206  0.1677
   11MOL   O270 4090   3.639   3.514   3.508  0.3104  0.2603  0.1214
   11MOL   C271 4091   3.601   3.492   3.381 -0.5793 -0.9314  0.0371
   11MOL   C272 4092   3.508   3.375   3.366  0.4486 -0.0456 -0.2709
   11MOL   C273 4093   3.564   3.255   3.434  0.4137  0.6128 -0.0981
   11MOL   C274 4094   3.465   3.133   3.430 -0.7238  0.3661  0.0783
   11MOL   H275 4095   3.756   3.601   3.757  1.0788  0.8443  1.3722
   11MOL   H276 4096   3.883   3.678   3.683 -1.3940  1.0976  2.8266
   11MOL   H277 4097   3.821   3.589   3.456  1.1613 -0.6855  1.6874
   11MOL   H278 4098   3.549   3.581   3.345 -1.3079 -1.3194  0.1178
   11MOL   H279 4099   3.687   3.474   3.316 -0.8064 -1.9278  0.0093
   11MOL   H280 4100   3.409   3.400   3.403  0.8178  1.6337 -0.3538
   11MOL   H281 4101   3.488   3.346   3.262 -0.4143  2.8647 -0.9602
   11MOL   H282 4102   3.584   3.284   3.537  0.9079  3.7939 -1.0383
   11MOL   H283 4103   3.664   3.237   3.394  0.2613  0.7777 -0.5601
   11MOL   H284 4104   3.402   3.139   3.518  0.1279 -1.0086  0.7983
   11MOL   H285 4105   3.517   3.038   3.437 -3.3144 -1.0044  1.0922
   11MOL   H286 4106   3.409   3.119   3.337  0.2572 -0.8889 -0.3376
   11MOL   C287 4107   3.707   3.759   3.514 -0.4562  0.0806  0.3765
   11MOL   C288 4108   3.790   3.829   3.412 -0.7722 -0.1977  0.5027
   11MOL   O289 4109   3.927   3.839   3.466  0.1480 -0.5840 -0.4420
   11MOL   C290 4110   4.022   3.782   3.375  0.3227 -0.4411 -0.2225
   11MOL   C291 4111   4.169   3.825   3.395  0.8602 -0.2675  0.4347
   11MOL   C292 4112   4.189   3.982   3.399 -0.0807 -0.5265 -0.1425
   11MOL   C293 4113   4.333   4.027   3.438 -0.0482 -0.5564 -0.8681
   11MOL   H294 4114   3.715   3.816   3.606  1.4778  2.7673 -1.3946
   11MOL   H295 4115   3.603   3.767   3.482 -0.1791 -0.6001 -0.7258
   11MOL   H296 4116   3.782   3.768   3.323 -1.4020  2.0351 -1.0090
   11MOL   H297 4117   4.032   3.674   3.390  0.1465  0.1319  4.6552
   11MOL   H298 4118   4.002   3.812   3.272 -0.9202 -0.4814  0.0057
   11MOL   H299 4119   4.228   3.776   3.319 -1.0192 -2.1532  0.1402
   11MOL   H300 4120   4.207   3.786   3.489 -1.7305 -0.6654  1.3776
   11MOL   H301 4121   4.124   4.036   3.468  0.1209 -0.0963 -0.2879
   11MOL   H302 4122   4.171   4.027   3.301  1.3051 -2.1860 -1.1950
   11MOL   H303 4123   4.324   4.135   3.448 -0.6212 -0.8648  2.4435
   11MOL   H304 4124   4.357   3.993   3.539 -1.9935  1.8397  0.4636
   11MOL   H305 4125   4.413   3.996   3.370  0.0747 -1.3819 -0.3587
   11MOL   C306 4126   3.741   3.977   3.397  0.4101 -0.2997 -0.3638
   11MOL   C307 4127   3.803   4.074   3.290 -0.3969 -0.0044 -1.2278
   11MOL   O308 4128   3.771   4.207   3.347  0.0285  0.7453  0.8017
   11MOL   C309 4129   3.882   4.262   3.419 -0.1093 -0.2378  0.1781
   11MOL   C310 4130   4.000   4.308   3.329  0.2767  0.3723  0.0862
   11MOL   C311 4131   4.116   4.388   3.402 -0.0375 -0.3106 -0.7313
   11MOL   C312 4132   4.211   4.449   3.310 -0.6246  0.8398 -0.1597
   11MOL   H313 4133   3.633   3.979   3.382  0.6400 -0.5163 -2.2127
   11MOL   H314 4134   3.769   4.017   3.494  0.7783  0.1086 -0.6370
   11MOL   H315 4135   3.910   4.054   3.293 -0.4435 -0.2547  4.1224
   11MOL   H316 4136   3.927   4.190   3.488  2.1038  0.5336 -0.4082
   11MOL   H317 4137   3.851   4.349   3.476  1.8627  2.6641 -2.9495
   11MOL   H318 4138   3.962   4.374   3.250  0.6941  0.6584  0.1218
   11MOL   H319 4139   4.049   4.229   3.272 -0.8854  0.1763 -0.6679
   11MOL   H320 4140   4.079   4.459   3.476  1.8755  0.5079 -0.5321
   11MOL   H321 4141   4.175   4.313   3.455  0.5261 -0.3402 -1.4063
   11MOL   H322 4142   4.222   4.375   3.231 -0.8888  0.7913 -0.1520
   11MOL   H323 4143   4.312   4.454   3.352 -0.5775 -2.0931  0.1857
   11MOL   H324 4144   4.166   4.541   3.273  2.1712  1.0978 -3.1526
   11MOL   C325 4145   3.736   4.055   3.161 -0.7684  0.0014 -0.2692
   11MOL   C326 4146   3.790   4.151   3.060  0.2025  0.3423  0.4186
   11MOL   O327 4147   3.913   4.092   3.017  0.2551  0.7347 -0.4434
   11MOL   C328 4148   3.993   4.189   2.952  0.0719 -0.7360 -0.3680
   11MOL   C329 4149   4.136   4.137   2.932 -0.0596  0.1749  0.0773
   11MOL   C330 4150   4.229   4.230   2.855 -0.5260  0.0099  0.6518
   11MOL   C331 4151   4.346   4.169   2.786 -0.0753  0.2328  0.2969
   11MOL   H332 4152   3.630   4.069   3.179 -0.5307  2.0234 -0.3650
   11MOL   H333 4153   3.751   3.951   3.129  3.1463  0.6543 -0.8901
   11MOL   H334 4154   3.803   4.243   3.117 -2.3471  0.8113  0.3143
   11MOL   H335 4155   3.991   4.281   3.010 -1.6415 -1.2615  0.4479
   11MOL   H336 4156   3.960   4.206   2.850  0.3906 -1.8745 -0.6731
   11MOL   H337 4157   4.182   4.102   3.025 -0.5363 -0.3226  0.1264
   11MOL   H338 4158   4.131   4.048   2.869  1.6522  1.4310 -1.8946
   11MOL   H339 4159   4.255   4.309   2.925 -0.7540  0.8473 -0.1892
   11MOL   H340 4160   4.177   4.277   2.771 -0.4151 -0.5659  0.2602
   11MOL   H341 4161   4.414   4.249   2.759 -0.8960  1.5868  2.1653
   11MOL   H342 4162   4.327   4.108   2.697  1.9262 -0.0440  0.0565
   11MOL   H343 4163   4.401   4.110   2.859  0.0916 -0.2913 -0.2449
   11MOL   C344 4164   3.692   4.174   2.938 -0.4578 -0.0349 -0.0044
   11MOL   C345 4165   3.561   4.247   2.973 -0.4910 -1.1385  0.1123
   11MOL   O346 4166   3.473   4.247   2.857 -0.0765 -0.1335 -0.3024
   11MOL   C347 4167   3.392   4.134   2.831  0.0075 -0.2918 -0.3612
   11MOL   C348 4168   3.254   4.183   2.773  0.1405 -0.4336  0.1472
   11MOL   C349 4169   3.151   4.072   2.775  0.4207 -0.1603 -0.1496
   11MOL   C350 4170   3.193   3.943   2.709  0.1738  0.2623  0.0085
   11MOL   H351 4171   3.744   4.235   2.864 -0.5682 -0.7805 -0.6989
   11MOL   H352 4172   3.669   4.082   2.884  0.8768 -0.5124  0.2254
   11MOL   H353 4173   3.511   4.191   3.052 -0.0994 -0.6687  0.6891
   11MOL   H354 4174   3.358   4.096   2.928  0.0414  3.4945  1.2024
   11MOL   H355 4175   3.438   4.059   2.767  0.2258 -0.2438 -0.2596
   11MOL   H356 4176   3.267   4.212   2.669 -4.1435  0.4335 -0.2366
   11MOL   H357 4177   3.214   4.276   2.813 -0.3713  0.9105 -3.3195
   11MOL   H358 4178   3.123   4.061   2.880  1.9866 -0.3423  0.2604
   11MOL   H359 4179   3.055   4.093   2.728 -0.6292 -0.6085  1.7496
   11MOL   H360 4180   3.108   3.875   2.699  0.0115  0.1880  1.7552
   11MOL   H361 4181   3.264   3.883   2.767 -1.3175  0.5753  2.1988
   11MOL   H362 4182   3.227   3.956   2.606 -1.3007  1.4207 -0.3356
   11MOL   C363 4183   3.581   4.396   3.015  0.2235  0.0543 -0.6269
   11MOL   C364 4184   3.451   4.454   3.067 -0.3197  0.1452  0.0863
   11MOL   O365 4185   3.486   4.580   3.122  0.3663  0.1256 -0.0061
   11MOL   C366 4186   3.381   4.666   3.163  0.2829  0.1475  0.2230
   11MOL   C367 4187   3.436   4.787   3.246 -0.2781  0.0296  0.1806
   11MOL   C368 4188   3.500   4.907   3.170  1.1262  0.2884 -0.5937
   11MOL   C369 4189   3.412   4.977   3.073  0.6590  0.7425  0.2516
   11MOL   H370 4190   3.619   4.458   2.934  0.8793  0.1088 -0.2842
   11MOL   H371 4191   3.654   4.394   3.095 -2.8641 -0.5647  2.2787
   11MOL   H372 4192   3.417   4.388   3.147 -1.4960  2.6856  1.7490
   11MOL   H373 4193   3.310   4.611   3.224 -0.3873 -0.4371 -1.0742
   11MOL   H374 4194   3.324   4.707   3.080  0.4271  0.8324  0.4622
   11MOL   H375 4195   3.505   4.743   3.318 -0.7560  0.2975  0.8108
   11MOL   H376 4196   3.351   4.837   3.295  0.2440  1.1073 -0.0107
   11MOL   H377 4197   3.591   4.866   3.125  1.8516 -1.2033  2.0759
   11MOL   H378 4198   3.532   4.977   3.247  3.7855  1.0375 -2.3191
   11MOL   H379 4199   3.459   5.023   2.987  0.2524  1.0521  0.1967
   11MOL   H380 4200   3.343   4.908   3.024  0.9224  0.9027 -0.3460
   11MOL   H381 4201   3.349   5.052   3.120 -0.1085 -0.2749  0.8758
   11MOL   H382 4202   3.386   4.468   2.981 -1.7817  0.8528  1.2911
   12MOL     C1 4203   0.705   0.223   4.747  0.1771  0.5151  0.1265
   12MOL     C2 4204   0.633   0.264   4.614 -0.3961  0.1563 -0.4803
   12MOL     O3 4205   0.515   0.339   4.655  0.2995  0.5001  0.3065
   12MOL     C4 4206   0.392   0.269   4.667 -0.6705  0.6435  0.5705
   12MOL     C5 4207   0.270   0.364   4.709 -0.9015  0.0932  0.6114
   12MOL     C6 4208   0.230   0.465   4.597 -0.1222  0.0860 -0.5061
   12MOL     C7 4209   0.089   0.526   4.613  0.2718  0.2729 -0.0639
   12MOL     H8 4210   0.633   0.180   4.818  1.4348 -3.0644 -0.6317
   12MOL     H9 4211   0.781   0.145   4.746 -0.5387 -0.2522  2.0702
   12MOL    H10 4212   0.611   0.179   4.550 -2.2989  1.1343 -1.1495
   12MOL    H11 4213   0.365   0.224   4.571  1.4334  0.4470  0.0230
   12MOL    H12 4214   0.402   0.189   4.740 -1.4734  0.5060  0.5332
   12MOL    H13 4215   0.304   0.411   4.802  0.1038  0.2989  0.1469
   12MOL    H14 4216   0.178   0.307   4.717 -1.1732  0.2298 -1.4179
   12MOL    H15 4217   0.242   0.432   4.494 -1.6147 -0.9127 -0.3696
   12MOL    H16 4218   0.300   0.547   4.611  1.3275 -1.2552  0.3705
   12MOL    H17 4219   0.007   0.454   4.611 -0.2553  0.8820 -1.6417
   12MOL    H18 4220   0.071   0.590   4.526 -0.9288  0.4702  0.3154
   12MOL    H19 4221   0.091   0.586   4.704  3.9189 -0.3326  0.3200
   12MOL    H20 4222   0.758   0.308   4.789  0.8922  1.0129 -1.7200
   12MOL    C21 4223   0.740   0.352   4.534  0.0564  0.0058 -0.6461
   12MOL    C22 4224   0.697   0.404   4.398  0.6609  0.9407  0.0760
   12MOL    O23 4225   0.721   0.540   4.401 -0.4096  0.2620 -0.1154
   12MOL    C24 4226   0.607   0.620   4.392  0.1919  0.2812  0.3897
   12MOL    C25 4227   0.645   0.761   4.388 -1.0895  0.1814 -0.5386
   12MOL    C26 4228   0.731   0.797   4.263  0.5257 -0.8259 -0.0747
   12MOL    C27 4229   0.758   0.952   4.245  0.0691 -0.8028  0.1420
   12MOL    H28 4230   0.827   0.287   4.518  0.4998  1.0913 -2.7966
   12MOL    H29 4231   0.770   0.436   4.595 -1.6323 -0.2178  0.5009
   12MOL    H30 4232   0.592   0.381   4.378  0.4856  0.3940  1.5896
   12MOL    H31 4233   0.548   0.608   4.483 -0.9479  1.0638 -0.2425
   12MOL    H32 4234   0.545   0.595   4.306  1.2356 -0.6305 -0.0996
   12MOL    H33 4235   0.560   0.829   4.378  0.4357  2.1200 -0.6317
   12MOL    H34 4236   0.707   0.784   4.475 -1.1832 -2.6597  0.3226
   12MOL    H35 4237   0.824   0.741   4.263  0.8361 -0.3440  1.6190
   12MOL    H36 4238   0.680   0.748   4.180  0.7818 -1.2964  0.0491
   12MOL    H37 4239   0.665   1.008   4.253 -0.2507 -1.4837  1.3644
   12MOL    H38 4240   0.822   0.995   4.322 -1.8787  0.6496  0.9811
   12MOL    H39 4241   0.802   0.964   4.146 -0.4706 -0.0198 -0.0000
   12MOL    C40 4242   0.787   0.341   4.292  1.0828 -0.3326  0.2203
   12MOL    C41 4243   0.759   0.375   4.144 -0.0052  0.5877  0.4704
   12MOL    O42 4244   0.623   0.351   4.122 -0.0454  0.3910  0.4482
   12MOL    C43 4245   0.562   0.428   4.026  0.3884  0.5245  0.8473
   12MOL    C44 4246   0.408   0.396   4.029 -0.0965  0.1602 -0.5947
   12MOL    C45 4247   0.356   0.388   4.171 -0.0118  0.1637  0.2497
   12MOL    C46 4248   0.213   0.345   4.178 -0.2496 -0.1050 -0.2313
   12MOL    H47 4249   0.775   0.235   4.312 -2.9272  0.1302  0.8784
   12MOL    H48 4250   0.889   0.370   4.316  0.5021  0.9609  1.2203
   12MOL    H49 4251   0.782   0.479   4.121 -0.7718  1.2956  2.6961
   12MOL    H50 4252   0.607   0.405   3.930 -0.7519 -1.5541  0.7905
   12MOL    H51 4253   0.567   0.535   4.048  1.9617  0.1561  2.3270
   12MOL    H52 4254   0.393   0.298   3.983  0.1815 -1.3565  2.4416
   12MOL    H53 4255   0.357   0.469   3.966  0.5048 -0.9294 -2.3849
   12MOL    H54 4256   0.359   0.486   4.220 -1.2949  0.0235  0.6205
   12MOL    H55 4257   0.419   0.325   4.233  0.6486 -0.2867 -0.8529
   12MOL    H56 4258   0.169   0.376   4.272  0.5182 -0.6787  0.3293
   12MOL    H57 4259   0.157   0.388   4.095 -0.8406 -0.7101 -0.1508
   12MOL    H58 4260   0.202   0.236   4.170  0.4453 -0.0293 -2.4634
   12MOL    C59 4261   0.839   0.263   4.056  0.1098 -0.1644  0.2244
   12MOL    C60 4262   0.995   0.266   4.071 -0.1766  0.1057  0.1441
   12MOL    O61 4263   1.058   0.170   3.988  0.2527  0.7973 -0.2635
   12MOL    C62 4264   1.060   0.037   4.048  0.1599 -0.4155 -0.6701
   12MOL    C63 4265   1.071   7.745   3.932  1.1120 -0.8017 -0.1735
   12MOL    C64 4266   0.933   7.716   3.856  0.1706 -0.2310 -0.0870
   12MOL    C65 4267   0.923   7.601   3.757  1.0149 -0.0002  0.5903
   12MOL    H66 4268   0.791   0.167   4.076  2.7264 -1.5732 -0.0408
   12MOL    H67 4269   0.811   0.274   3.951  0.1834 -1.5816  0.0566
   12MOL    H68 4270   1.019   0.242   4.175  1.5220 -2.4801 -0.8115
   12MOL    H69 4271   0.968   0.010   4.100  1.0243 -0.6117  0.7894
   12MOL    H70 4272   1.141   0.033   4.121 -0.5617  1.5002  0.2840
   12MOL    H71 4273   1.136   7.790   3.857 -0.0905 -0.9296 -1.3074
   12MOL    H72 4274   1.116   7.651   3.962  1.0982 -0.7075  0.1438
   12MOL    H73 4275   0.851   7.703   3.926  0.8356  0.4141  0.8253
   12MOL    H74 4276   0.909   0.013   3.814 -0.8151 -0.6079 -0.4162
   12MOL    H75 4277   0.953   7.504   3.797  1.7286 -0.0516 -0.0582
   12MOL    H76 4278   0.821   7.589   3.721  1.6947  1.3668 -1.9356
   12MOL    H77 4279   0.989   7.613   3.671 -2.2768  1.4764 -1.8582
   12MOL    C78 4280   1.058   0.404   4.043 -0.4415  0.4886 -0.4337
   12MOL    C79 4281   1.202   0.411   4.106 -0.6703 -0.0655 -0.6904
   12MOL    O80 4282   1.237   0.552   4.121  0.2218 -0.6831  0.5345
   12MOL    C81 4283   1.206   0.608   4.251  0.0514  0.8809 -0.7176
   12MOL    C82 4284   1.204   0.756   4.254  0.1329 -0.3636 -0.3986
   12MOL    C83 4285   1.166   0.822   4.387 -0.1835 -0.1098  0.3751
   12MOL    C84 4286   1.155   0.975   4.364  0.2852  0.1995 -0.1811
   12MOL    H85 4287   0.997   0.480   4.091  0.1655  0.1320  0.9286
   12MOL    H86 4288   1.050   0.435   3.939  3.5734  1.0574 -0.6613
   12MOL    H87 4289   1.203   0.365   4.205 -0.3884  0.5721 -0.3897
   12MOL    H88 4290   1.264   0.570   4.336 -0.7898  1.9325  0.3428
   12MOL    H89 4291   1.106   0.576   4.282  0.4042 -1.5017 -1.9559
   12MOL    H90 4292   1.304   0.784   4.222  0.4472 -0.3043  0.6318
   12MOL    H91 4293   1.139   0.789   4.173 -1.1436 -0.3777  0.5979
   12MOL    H92 4294   1.250   0.812   4.456  1.4727  1.0440 -1.4255
   12MOL    H93 4295   1.078   0.780   4.436  0.0926 -2.7555 -1.2812
   12MOL    H94 4296   1.241   1.036   4.337  0.1743 -0.0660 -1.1319
   12MOL    H95 4297   1.089   0.984   4.278  1.2948  2.2967 -0.7469
   12MOL    H96 4298   1.110   1.021   4.452  0.6093 -0.3710  0.2881
   12MOL    C97 4299   1.307   0.355   4.010 -0.0248  0.0842 -0.0164
   12MOL    C98 4300   1.445   0.314   4.073  0.1893 -0.6406 -0.1735
   12MOL    O99 4301   1.502   0.209   4.003 -1.0523  0.0548  0.3216
   12MOL   C100 4302   1.451   0.075   4.006 -0.5536  0.1094 -0.0391
   12MOL   C101 4303   1.559   7.774   3.975 -0.3774 -0.6365  0.5776
   12MOL   C102 4304   1.513   7.633   3.958  0.7993  0.1428 -0.4020
   12MOL   C103 4305   1.632   7.549   3.925 -0.0783 -0.2482 -0.2571
   12MOL   H104 4306   1.334   0.434   3.940  0.5088 -0.0238  0.0726
   12MOL   H105 4307   1.264   0.271   3.955 -0.2573  1.1290 -1.4419
   12MOL   H106 4308   1.428   0.273   4.172  1.5420  1.1248  0.8302
   12MOL   H107 4309   1.364   0.067   3.941  1.2989 -1.5638 -2.3615
   12MOL   H108 4310   1.418   0.056   4.108 -0.7374  1.5296  0.1879
   12MOL   H109 4311   1.628   7.781   4.059  0.7309 -2.2973 -0.1626
   12MOL   H110 4312   1.619   7.800   3.888 -0.0311  0.0242  1.0073
   12MOL   H111 4313   1.442   7.617   3.878 -0.7957 -1.9742  1.3538
   12MOL   H112 4314   1.471   7.607   4.056  1.8474  0.2840  0.0941
   12MOL   H113 4315   1.706   7.548   4.005  0.0352 -0.7678 -0.3690
   12MOL   H114 4316   1.603   7.445   3.911  3.0275 -1.1520 -0.4238
   12MOL   H115 4317   1.682   7.582   3.834 -0.4988  0.5785 -0.1993
   12MOL   C116 4318   1.544   0.432   4.079  0.4213 -0.5771 -0.0373
   12MOL   C117 4319   1.644   0.431   4.197  0.0658  0.4997 -0.5678
   12MOL   O118 4320   1.750   0.522   4.160 -0.1647 -0.1144 -0.2626
   12MOL   C119 4321   1.879   0.461   4.152 -0.0851 -0.2545 -0.4767
   12MOL   C120 4322   1.990   0.570   4.122  0.0103  0.0225  0.1036
   12MOL   C121 4323   1.960   0.704   4.173 -0.0310  0.4269 -0.1381
   12MOL   C122 4324   2.058   0.814   4.123 -0.2544  0.1828  0.1464
   12MOL   H123 4325   1.593   0.433   3.982  1.2473  0.2003  0.3798
   12MOL   H124 4326   1.487   0.525   4.070 -1.4698 -2.0279 -3.4948
   12MOL   H125 4327   1.678   0.329   4.212 -1.4666  0.1844  0.9127
   12MOL   H126 4328   1.886   0.385   4.075 -3.5176 -3.1348  1.9153
   12MOL   H127 4329   1.903   0.409   4.245 -0.4560 -0.8460 -0.7148
   12MOL   H128 4330   1.985   0.571   4.013 -1.4550 -0.6485  0.1404
   12MOL   H129 4331   2.080   0.525   4.163 -0.5220 -2.0821 -0.9019
   12MOL   H130 4332   1.859   0.735   4.143 -0.2683 -0.8310 -0.6507
   12MOL   H131 4333   1.956   0.710   4.281  1.4021  2.4796 -0.1790
   12MOL   H132 4334   2.005   0.904   4.154 -0.0845  0.6421 -0.8852
   12MOL   H133 4335   2.053   0.814   4.014 -1.1112  1.1813  0.1744
   12MOL   H134 4336   2.163   0.801   4.150 -0.0211 -0.3748 -1.0161
   12MOL   C135 4337   1.581   0.475   4.330  0.5709  0.4944 -0.4779
   12MOL   C136 4338   1.671   0.435   4.457 -0.7144 -0.1175 -0.3347
   12MOL   O137 4339   1.636   0.503   4.578  0.2127 -0.3231 -0.9755
   12MOL   C138 4340   1.648   0.647   4.566  0.6106 -0.4690  0.1229
   12MOL   C139 4341   1.676   0.713   4.703  0.7409  0.4914  0.4198
   12MOL   C140 4342   1.641   0.860   4.701  0.5835  0.1610  0.4843
   12MOL   C141 4343   1.635   0.920   4.846  0.1472  0.1823  0.6971
   12MOL   H142 4344   1.487   0.422   4.343  0.7498  0.0212 -1.0776
   12MOL   H143 4345   1.565   0.582   4.332  1.3273  0.6545 -1.9062
   12MOL   H144 4346   1.771   0.471   4.431 -0.6845 -1.3270 -1.9198
   12MOL   H145 4347   1.550   0.676   4.530  1.3109 -1.1203 -2.3820
   12MOL   H146 4348   1.727   0.676   4.498 -0.1158 -1.1811 -1.0364
   12MOL   H147 4349   1.782   0.703   4.724  0.2358 -1.5838  2.1908
   12MOL   H148 4350   1.622   0.658   4.780 -0.6168 -1.1591 -1.6355
   12MOL   H149 4351   1.718   0.912   4.643  0.0093  1.6165  1.0127
   12MOL   H150 4352   1.547   0.879   4.649 -0.0887  1.5678  2.1676
   12MOL   H151 4353   1.617   1.027   4.837 -2.1138 -0.3510 -2.0043
   12MOL   H152 4354   1.555   0.882   4.909  1.0095 -0.3963  1.4516
   12MOL   H153 4355   1.731   0.894   4.891  0.2346  0.0579  0.4465
   12MOL   C154 4356   1.683   0.283   4.494 -0.0963 -0.2325  0.3701
   12MOL   C155 4357   1.811   0.258   4.585  0.6050 -0.5753 -0.1974
   12MOL   O156 4358   1.926   0.265   4.499  0.0990 -0.6234 -0.9183
   12MOL   C157 4359   2.042   0.324   4.553 -0.4329  0.4892  0.0821
   12MOL   C158 4360   2.143   0.344   4.437  0.5751  0.1050  0.7043
   12MOL   C159 4361   2.137   0.230   4.332  0.8514 -0.0833 -0.3570
   12MOL   C160 4362   2.243   0.247   4.224 -0.3207  0.4113 -0.0506
   12MOL   H161 4363   1.700   0.223   4.405  1.3317  1.8203 -0.7915
   12MOL   H162 4364   1.594   0.245   4.545 -0.2957 -2.0264 -1.2618
   12MOL   H163 4365   1.814   0.338   4.659 -0.6108  0.6306 -1.4223
   12MOL   H164 4366   2.013   0.419   4.598  0.2735  0.3875  0.7699
   12MOL   H165 4367   2.083   0.259   4.631 -1.9587  0.6281  1.0098
   12MOL   H166 4368   2.247   0.350   4.467  0.8001 -1.8255  0.4065
   12MOL   H167 4369   2.133   0.441   4.389  2.8435  0.5748  1.1356
   12MOL   H168 4370   2.146   0.130   4.376 -0.9743  0.4424  1.3181
   12MOL   H169 4371   2.037   0.232   4.288  1.2675 -2.8991 -1.5723
   12MOL   H170 4372   2.218   0.338   4.170  1.9951  1.9382  1.3682
   12MOL   H171 4373   2.342   0.251   4.270  0.5440 -1.7543 -1.6578
   12MOL   H172 4374   2.245   0.160   4.159 -1.2348 -1.2857  2.1092
   12MOL   C173 4375   1.819   0.119   4.656  0.6487 -0.3918  0.1794
   12MOL   C174 4376   1.714   0.096   4.757  0.6904  0.0077  0.1306
   12MOL   O175 4377   1.674   7.762   4.770 -0.1353  0.1593 -0.7171
   12MOL   C176 4378   1.769   7.677   4.822  0.4864  0.3515  0.1710
   12MOL   C177 4379   1.798   7.564   4.723  0.3452  0.5042 -0.0721
   12MOL   C178 4380   1.670   7.486   4.683  0.6530  0.3429 -0.0009
   12MOL   C179 4381   1.712   7.356   4.607 -0.3797  0.3431 -0.1897
   12MOL   H180 4382   1.917   0.114   4.702 -0.1102 -1.2392  1.7709
   12MOL   H181 4383   1.806   0.043   4.579 -2.3749 -0.7613  0.9817
   12MOL   H182 4384   1.622   0.142   4.721  0.0629 -1.4106 -0.1005
   12MOL   H183 4385   1.740   7.646   4.923  0.6666 -2.5834 -0.6379
   12MOL   H184 4386   1.866   7.727   4.820  0.3961  0.4924 -0.5438
   12MOL   H185 4387   1.862   7.491   4.773 -1.2386 -1.2159 -0.4525
   12MOL   H186 4388   1.852   7.597   4.634  0.2323 -2.0650 -1.1599
   12MOL   H187 4389   1.595   7.473   4.760  0.7577 -0.9302 -0.0999
   12MOL   H188 4390   1.615   7.554   4.618  0.6576 -0.2731 -0.6626
   12MOL   H189 4391   1.623   7.306   4.571  0.9637 -2.6425  0.5270
   12MOL   H190 4392   1.777   7.389   4.525  0.8363 -1.8732 -0.1484
   12MOL   H191 4393   1.763   7.293   4.680 -1.3954 -0.2993 -0.0331
   12MOL   C192 4394   1.752   0.151   4.899 -0.4473  0.5931  0.2730
   12MOL   C193 4395   1.634   0.161   4.993 -0.3241 -0.1860  0.2070
   12MOL   O194 4396   1.670   0.184   5.129 -0.2527  0.0673 -0.0017
   12MOL   C195 4397   1.736   0.083   5.200 -0.7210  0.4266 -0.3890
   12MOL   C196 4398   1.703   0.096   5.343 -0.0406 -0.1990  0.5522
   12MOL   C197 4399   1.561   0.042   5.375 -0.4732  0.6567 -0.5437
   12MOL   C198 4400   1.521   0.064   5.523 -0.0018  0.2995  0.3020
   12MOL   H199 4401   1.802   0.248   4.893  1.5787 -0.3836  0.8508
   12MOL   H200 4402   1.831   0.092   4.947 -0.0052  0.2808 -0.8206
   12MOL   H201 4403   1.585   0.064   4.988  1.5361 -1.0709 -1.6833
   12MOL   H202 4404   1.844   0.090   5.190 -0.7403  1.1702 -0.0260
   12MOL   H203 4405   1.699   7.786   5.169  2.7134 -0.8089 -0.8421
   12MOL   H204 4406   1.779   0.036   5.392 -0.7360 -0.8947  0.7887
   12MOL   H205 4407   1.723   0.195   5.383  1.1704  0.1383 -0.8319
   12MOL   H206 4408   1.553   7.737   5.355 -1.1115  0.7624 -0.8574
   12MOL   H207 4409   1.488   0.085   5.307 -2.2757  1.7276  1.9828
   12MOL   H208 4410   1.414   0.066   5.540 -0.4377 -1.1604 -1.9903
   12MOL   H209 4411   1.576   0.002   5.594  1.9456 -0.5864 -1.8948
   12MOL   H210 4412   1.544   0.166   5.554 -0.7824  0.1781  1.2826
   12MOL   C211 4413   1.529   0.271   4.963  0.3532  0.0503  0.0585
   12MOL   C212 4414   1.404   0.273   5.051 -0.3755  0.6296  0.3192
   12MOL   O213 4415   1.342   0.405   5.039 -0.6219 -0.6090  0.5409
   12MOL   C214 4416   1.387   0.504   5.129  0.0841  0.1488 -0.0360
   12MOL   C215 4417   1.276   0.608   5.115 -0.7803 -0.1244 -0.1699
   12MOL   C216 4418   1.303   0.741   5.193  0.3865  0.3014 -0.3653
   12MOL   C217 4419   1.174   0.821   5.196 -0.0136  0.0824  0.2926
   12MOL   H218 4420   1.498   0.268   4.859 -0.5541  0.5452  0.3167
   12MOL   H219 4421   1.581   0.365   4.976 -0.7043  1.0143 -2.4766
   12MOL   H220 4422   1.442   0.245   5.149 -2.8519 -2.9071  0.3401
   12MOL   H221 4423   1.378   0.472   5.233 -0.7172  1.5329  0.3223
   12MOL   H222 4424   1.488   0.543   5.112  0.5851 -1.8675 -1.8648
   12MOL   H223 4425   1.269   0.629   5.008 -2.0256 -1.4804 -0.3683
   12MOL   H224 4426   1.181   0.561   5.139 -2.1895  3.4493  1.5972
   12MOL   H225 4427   1.384   0.785   5.135 -1.7474  2.3499 -1.8389
   12MOL   H226 4428   1.335   0.724   5.296  1.2166 -1.2118 -0.8445
   12MOL   H227 4429   1.129   0.834   5.097 -2.4645 -0.8349  1.2329
   12MOL   H228 4430   1.197   0.921   5.232 -1.8323  0.9245 -0.8063
   12MOL   H229 4431   1.107   0.770   5.266 -0.4617  0.8151  0.4064
   12MOL   C230 4432   1.297   0.170   4.996  0.5119 -0.1130 -0.3893
   12MOL   C231 4433   1.174   0.186   5.079  0.4735  0.3714 -0.1778
   12MOL   O232 4434   1.093   0.076   5.035 -0.6814 -0.0590 -0.2067
   12MOL   C233 4435   0.987   0.104   4.940 -0.4492  0.2482 -0.5148
   12MOL   C234 4436   0.913   7.770   4.925 -0.2605  0.2182 -0.0906
   12MOL   C235 4437   0.995   7.673   4.843 -0.0460  0.1965 -0.7831
   12MOL   C236 4438   0.906   7.557   4.803  0.7088 -0.3217  0.1712
   12MOL   H237 4439   1.343   0.072   5.010 -0.8811 -0.5113  1.5231
   12MOL   H238 4440   1.288   0.189   4.889  2.3155 -0.6021 -0.6459
   12MOL   H239 4441   1.125   0.281   5.057 -1.9184 -0.8943 -0.4925
   12MOL   H240 4442   0.927   0.183   4.986  1.0462  1.0675  0.0746
   12MOL   H241 4443   1.027   0.140   4.845  1.3042  1.6699  0.7189
   12MOL   H242 4444   0.891   7.737   5.027  3.2990  1.7003  1.2489
   12MOL   H243 4445   0.817   7.788   4.878 -0.3572 -1.7071 -0.6789
   12MOL   H244 4446   1.082   7.639   4.899  0.7304 -0.8079 -2.5557
   12MOL   H245 4447   1.036   7.719   4.753 -1.5900  1.8391 -0.6578
   12MOL   H246 4448   0.951   7.498   4.723  0.7361 -1.6804  1.1802
   12MOL   H247 4449   0.804   7.582   4.772  0.6677  0.7564  1.1342
   12MOL   H248 4450   0.903   7.498   4.894  1.5135  1.3758  1.3055
   12MOL   C249 4451   1.186   0.167   5.236  0.0331  0.5728 -0.0799
   12MOL   C250 4452   1.055   0.187   5.311  0.9197 -0.2222 -0.0336
   12MOL   O251 4453   1.079   0.251   5.437  1.0846  0.0843 -0.1466
   12MOL   C252 4454   1.091   0.393   5.432 -0.5044 -0.1786  0.2436
   12MOL   C253 4455   0.985   0.450   5.518  0.2341 -0.0950  0.2216
   12MOL   C254 4456   0.996   0.605   5.537  0.1033  0.4088  0.3986
   12MOL   C255 4457   0.905   0.658   5.653  0.4217  0.1761 -0.6440
   12MOL   H256 4458   1.252   0.247   5.268 -1.9067  1.6976  1.2622
   12MOL   H257 4459   1.242   0.075   5.254  0.6809  1.0221  0.2073
   12MOL   H258 4460   0.987   0.248   5.253  2.6900  0.0413 -1.8937
   12MOL   H259 4461   1.081   0.423   5.327  0.5676 -2.9853 -0.7195
   12MOL   H260 4462   1.186   0.428   5.472  1.6221 -2.9146 -2.1922
   12MOL   H261 4463   0.887   0.418   5.483 -0.7528  0.9846  1.9142
   12MOL   H262 4464   0.991   0.409   5.619  0.4895 -2.2099 -0.6254
   12MOL   H263 4465   1.099   0.625   5.566 -0.0074  2.4886 -0.5147
   12MOL   H264 4466   0.975   0.659   5.445  1.3472 -0.9842 -0.7290
   12MOL   H265 4467   0.911   0.612   5.751 -2.8544 -2.0362 -1.4253
   12MOL   H266 4468   0.803   0.651   5.617 -0.4144  0.8324  1.5322
   12MOL   H267 4469   0.925   0.763   5.675  1.7603 -0.5531  1.7888
   12MOL   C268 4470   0.982   0.055   5.335  0.2821  0.0091 -0.0962
   12MOL   C269 4471   0.842   0.075   5.414  0.5579  0.2275 -0.0546
   12MOL   O270 4472   0.735   0.121   5.330  0.3002 -0.4106 -0.1646
   12MOL   C271 4473   0.689   0.254   5.334  0.4709 -0.1625 -0.5881
   12MOL   C272 4474   0.600   0.262   5.207  0.1957 -0.0787 -0.4527
   12MOL   C273 4475   0.548   0.409   5.189 -0.4495  0.4846 -0.6090
   12MOL   C274 4476   0.480   0.443   5.057  0.5147  0.5643 -0.0375
   12MOL   H275 4477   0.967   7.801   5.243 -0.1935  1.0948 -0.6871
   12MOL   H276 4478   1.049   7.796   5.396 -0.7285 -0.4653  0.5485
   12MOL   H277 4479   0.852   0.141   5.501  1.0513 -2.3337  1.8932
   12MOL   H278 4480   0.635   0.277   5.426 -3.1043 -0.8291 -2.4125
   12MOL   H279 4481   0.777   0.315   5.317  0.9327 -0.6720 -0.0499
   12MOL   H280 4482   0.639   0.230   5.111 -2.4367 -0.2037 -1.5270
   12MOL   H281 4483   0.510   0.201   5.215  0.6045 -0.5480  0.7398
   12MOL   H282 4484   0.633   0.477   5.200 -1.8638  2.0983  0.6147
   12MOL   H283 4485   0.482   0.439   5.270  3.3407 -0.2038  2.9049
   12MOL   H284 4486   0.384   0.390   5.054 -0.1393  1.5516  1.9775
   12MOL   H285 4487   0.546   0.404   4.981  0.2083 -1.2350  0.5783
   12MOL   H286 4488   0.440   0.543   5.046 -1.5332 -0.1960  0.2088
   12MOL   C287 4489   0.793   7.738   5.466 -0.4400  0.2100 -1.1938
   12MOL   C288 4490   0.842   7.709   5.615  0.3997 -0.3492 -0.1790
   12MOL   O289 4491   0.982   7.669   5.610 -0.4426 -0.1962 -0.2068
   12MOL   C290 4492   1.070   7.757   5.689 -0.6437 -0.1959  0.0071
   12MOL   C291 4493   1.213   7.706   5.662  0.4460  0.5922 -0.1407
   12MOL   C292 4494   1.238   7.570   5.719  0.4148  0.8899 -1.7470
   12MOL   C293 4495   1.386   7.545   5.732  0.1007 -0.5177  0.0099
   12MOL   H294 4496   0.819   7.662   5.392 -0.6579 -0.5644 -0.4870
   12MOL   H295 4497   0.686   7.719   5.465 -0.4463  0.1905 -0.5524
   12MOL   H296 4498   0.820   7.790   5.685 -1.7378  0.4413 -1.7348
   12MOL   H297 4499   1.062   0.053   5.641 -1.9541 -0.5412 -0.4996
   12MOL   H298 4500   1.047   7.763   5.795 -0.1793  0.5974  0.0723
   12MOL   H299 4501   1.289   7.774   5.699 -0.6349  1.7267  0.0443
   12MOL   H300 4502   1.229   7.702   5.554  0.7828 -2.8272 -0.0053
   12MOL   H301 4503   1.186   7.489   5.669 -0.1874  0.5688 -0.6219
   12MOL   H302 4504   1.188   7.563   5.816  0.9298  0.9565 -1.4749
   12MOL   H303 4505   1.433   7.562   5.635 -0.1560  1.1326  0.1595
   12MOL   H304 4506   1.424   7.607   5.814 -0.4533 -0.0167 -0.1043
   12MOL   H305 4507   1.400   7.448   5.779  3.1892 -0.5002 -0.7630
   12MOL   C306 4508   0.783   7.588   5.687 -0.0927 -0.2659  0.0868
   12MOL   C307 4509   0.630   7.595   5.724  0.4457 -0.1141 -0.2649
   12MOL   O308 4510   0.599   7.643   5.864 -0.4417  0.0745  0.4338
   12MOL   C309 4511   0.573   7.782   5.870  0.0645  0.4700 -0.5966
   12MOL   C310 4512   0.539   0.042   6.012 -0.3676 -0.3852 -0.2382
   12MOL   C311 4513   0.400   7.785   6.061  0.2216  0.1190  0.5921
   12MOL   C312 4514   0.356   0.060   6.185  0.5253  0.8415 -0.2229
   12MOL   H313 4515   0.798   7.506   5.616 -0.3775  1.0280 -1.4855
   12MOL   H314 4516   0.840   7.560   5.776 -1.2420 -2.0877  0.2866
   12MOL   H315 4517   0.580   7.660   5.652  0.2491  0.0337  0.0041
   12MOL   H316 4518   0.488   7.797   5.803  0.4601 -0.9386 -1.4203
   12MOL   H317 4519   0.655   0.040   5.830  0.2877  0.7096  0.2102
   12MOL   H318 4520   0.543   0.150   5.998  2.2377 -0.2490  1.2904
   12MOL   H319 4521   0.619   0.024   6.083  0.0268 -0.4397 -0.6975
   12MOL   H320 4522   0.334   7.801   5.976  0.1312 -0.1025  0.6229
   12MOL   H321 4523   0.406   7.679   6.082  0.1807  0.6868  3.7469
   12MOL   H322 4524   0.262   0.012   6.211  1.5116 -0.0848  1.7188
   12MOL   H323 4525   0.345   0.166   6.163  1.4200  0.9998  0.0551
   12MOL   H324 4526   0.433   0.039   6.259  0.4606  0.6041 -0.2253
   12MOL   C325 4527   0.567   7.452   5.724 -0.0764 -0.0694 -0.1721
   12MOL   C326 4528   0.412   7.461   5.737  0.3116  0.2035 -0.4766
   12MOL   O327 4529   0.380   7.524   5.620  0.3227 -0.2641 -0.2804
   12MOL   C328 4530   0.248   7.563   5.614 -0.2887 -0.2982 -0.6081
   12MOL   C329 4531   0.206   7.581   5.465 -0.1809 -0.0830  0.5923
   12MOL   C330 4532   0.144   7.457   5.394 -0.3597  0.2439 -0.2099
   12MOL   C331 4533   0.096   7.487   5.251 -0.4412 -0.2872 -0.4358
   12MOL   H332 4534   0.619   7.386   5.793 -0.3860 -0.8173 -0.6498
   12MOL   H333 4535   0.579   7.395   5.632  1.1862 -0.2258  0.0830
   12MOL   H334 4536   0.382   7.517   5.825 -0.4166 -0.5056 -0.2663
   12MOL   H335 4537   0.243   7.659   5.666 -0.3933  0.4723 -2.0319
   12MOL   H336 4538   0.184   7.498   5.674 -1.7273  0.3904 -1.3763
   12MOL   H337 4539   0.131   7.660   5.461  0.8208  0.9301  1.4973
   12MOL   H338 4540   0.284   7.609   5.394 -0.4772  1.3469  0.8050
   12MOL   H339 4541   0.048   7.438   5.442 -1.4782 -1.3949 -2.9427
   12MOL   H340 4542   0.198   7.364   5.415  2.1145  2.0137  1.5572
   12MOL   H341 4543   0.176   7.494   5.178  0.7946 -1.0619  0.8207
   12MOL   H342 4544   0.018   7.563   5.241  0.0184  0.2467  0.0093
   12MOL   H343 4545   0.047   7.391   5.233  1.0101 -1.1536  0.1133
   12MOL   C344 4546   0.357   7.317   5.747 -0.3070 -0.1851  0.2162
   12MOL   C345 4547   0.261   7.300   5.860  0.0433  0.3645 -0.0051
   12MOL   O346 4548   0.321   7.265   5.984  0.1163 -0.9958 -0.0794
   12MOL   C347 4549   0.401   7.375   6.040 -1.0035  0.2422 -0.2525
   12MOL   C348 4550   0.457   7.327   6.173  0.1612  0.2580  0.0644
   12MOL   C349 4551   0.540   7.437   6.248  0.0791  0.5289 -0.7313
   12MOL   C350 4552   0.631   7.387   6.359  0.1128  0.3185 -0.4041
   12MOL   H351 4553   0.305   7.290   5.655 -1.2873  1.5398  0.2328
   12MOL   H352 4554   0.440   7.248   5.759 -0.7255 -1.0989 -2.0816
   12MOL   H353 4555   0.206   7.393   5.878  1.8118  1.4254  0.0376
   12MOL   H354 4556   0.328   7.452   6.065 -0.2557  0.1459  2.3579
   12MOL   H355 4557   0.477   7.425   5.980 -0.7646 -1.8080 -1.7405
   12MOL   H356 4558   0.517   7.236   6.175  0.3417  0.3882  0.7254
   12MOL   H357 4559   0.373   7.298   6.237  2.7935 -3.0498  2.1704
   12MOL   H358 4560   0.603   7.488   6.175  2.1111  0.2757  0.7865
   12MOL   H359 4561   0.476   7.514   6.290  0.1011  0.3546 -0.3786
   12MOL   H360 4562   0.574   7.331   6.434 -1.1227  2.3932  0.2409
   12MOL   H361 4563   0.697   7.455   6.413 -0.9397  0.7809  0.3282
   12MOL   H362 4564   0.707   7.321   6.317 -0.7570 -0.9704 -0.0102
   12MOL   C363 4565   0.159   7.185   5.833  0.0545  0.1038  0.6962
   12MOL   C364 4566   0.057   7.165   5.947  0.0724  0.0931  0.5293
   12MOL   O365 4567   7.748   7.098   5.897  0.1680  0.1679 -0.0426
   12MOL   C366 4568   7.630   7.091   5.983  0.0543 -0.2584 -0.5341
   12MOL   C367 4569   7.655   7.009   6.106 -0.0995 -0.7171 -0.6064
   12MOL   C368 4570   7.534   6.995   6.190  0.3937  0.5175 -0.1018
   12MOL   C369 4571   7.519   6.864   6.270  0.3015 -0.0765  0.7299
   12MOL   H370 4572   0.220   7.096   5.819 -0.6662 -0.3459  0.4033
   12MOL   H371 4573   0.111   7.190   5.735 -0.5752  2.3049  1.0704
   12MOL   H372 4574   0.027   7.263   5.983  2.0627  0.4591  1.2416
   12MOL   H373 4575   7.560   7.043   5.915  0.0547  2.6660 -2.6736
   12MOL   H374 4576   7.603   7.190   6.019 -0.0064 -1.3372  2.5516
   12MOL   H375 4577   7.743   7.040   6.162  3.0222 -5.4408 -2.6128
   12MOL   H376 4578   7.681   6.910   6.068  1.5241 -0.7523  0.5689
   12MOL   H377 4579   7.443   7.012   6.133  0.8770 -0.3995 -1.1572
   12MOL   H378 4580   7.544   7.074   6.264 -0.2636 -0.0372  0.5861
   12MOL   H379 4581   7.591   6.859   6.351 -0.6393  1.2594  1.6617
   12MOL   H380 4582   7.417   6.857   6.307  0.3041 -1.0988  0.5673
   12MOL   H381 4583   7.532   6.773   6.210  0.2381 -0.0156  0.6247
   12MOL   H382 4584   0.096   7.123   6.040 -0.2722  1.0122  1.0889
   13MOL     C1 4585   2.194   3.313   1.438 -0.2291  0.1499  0.3999
   13MOL     C2 4586   2.251   3.172   1.445  0.1679 -0.7418 -0.3151
   13MOL     O3 4587   2.160   3.110   1.532  0.5419  0.2590 -0.2280
   13MOL     C4 4588   2.214   3.012   1.616 -0.8627 -0.4655 -0.6797
   13MOL     C5 4589   2.090   2.943   1.671  0.0236  0.1031  0.1650
   13MOL     C6 4590   2.116   2.832   1.773  0.1755 -0.9670 -0.1641
   13MOL     C7 4591   1.997   2.798   1.859  0.1361  0.0987  0.5263
   13MOL     H8 4592   2.199   3.357   1.538 -0.9206  1.7085 -0.2261
   13MOL     H9 4593   2.251   3.379   1.373  1.4862 -3.9615 -2.4397
   13MOL    H10 4594   2.353   3.167   1.484  0.3041 -1.2643 -0.7350
   13MOL    H11 4595   2.282   2.943   1.568  2.0373  2.7497 -1.4187
   13MOL    H12 4596   2.268   3.059   1.698  0.6853 -0.1458 -1.8725
   13MOL    H13 4597   2.024   2.903   1.595 -0.1107 -0.0161  0.3455
   13MOL    H14 4598   2.032   3.021   1.720 -0.4478  1.3864 -2.3477
   13MOL    H15 4599   2.191   2.876   1.838 -1.2047  2.6775 -0.9145
   13MOL    H16 4600   2.162   2.746   1.724  1.9361 -1.1589  1.8064
   13MOL    H17 4601   1.981   2.882   1.927  1.7443  1.2535 -0.4793
   13MOL    H18 4602   2.017   2.717   1.930 -2.5194 -2.7894 -1.9113
   13MOL    H19 4603   1.908   2.785   1.799  0.4067 -0.6824  0.2863
   13MOL    H20 4604   2.090   3.304   1.405  0.6375 -2.1647 -1.8883
   13MOL    C21 4605   2.267   3.104   1.304 -0.6639 -0.5858  0.3308
   13MOL    C22 4606   2.374   3.158   1.207 -1.0335 -0.5168 -0.3176
   13MOL    O23 4607   2.497   3.168   1.272  0.8509  0.5248 -0.6875
   13MOL    C24 4608   2.595   3.258   1.231 -0.2391  0.0450 -0.3211
   13MOL    C25 4609   2.600   3.389   1.317  0.0634 -0.4644  0.0774
   13MOL    C26 4610   2.716   3.488   1.267 -0.9860  0.1695 -0.9031
   13MOL    C27 4611   2.724   3.615   1.352 -0.3002  0.1163  0.1992
   13MOL    H28 4612   2.162   3.112   1.273 -0.6815  3.7891  1.2160
   13MOL    H29 4613   2.281   2.996   1.302  1.9387 -0.2950  1.4414
   13MOL    H30 4614   2.347   3.261   1.185  0.5249 -0.1827 -0.7250
   13MOL    H31 4615   2.581   3.288   1.127 -0.6834  1.7404  0.2025
   13MOL    H32 4616   2.691   3.207   1.226 -0.8491 -1.0855 -0.5455
   13MOL    H33 4617   2.507   3.443   1.300 -0.1056 -0.5382  0.7596
   13MOL    H34 4618   2.613   3.359   1.421 -1.6526  0.0700  0.4607
   13MOL    H35 4619   2.811   3.437   1.280 -0.2357  1.6901 -0.4006
   13MOL    H36 4620   2.702   3.513   1.162  0.4038 -0.7984 -1.3251
   13MOL    H37 4621   2.624   3.647   1.384 -0.8503  0.1945 -1.5243
   13MOL    H38 4622   2.787   3.614   1.440 -0.0024  1.2451  0.0168
   13MOL    H39 4623   2.764   3.694   1.288 -0.0569  0.4794  0.7963
   13MOL    C40 4624   2.385   3.078   1.077  0.2936  0.3628  0.3542
   13MOL    C41 4625   2.277   3.106   0.969  0.0855  0.1336  0.0053
   13MOL    O42 4626   2.169   3.029   1.007 -0.2502 -0.2712 -0.1918
   13MOL    C43 4627   2.047   3.060   0.938 -0.0271 -0.2208  0.4604
   13MOL    C44 4628   1.914   2.998   0.986 -0.4980  0.1087  0.7842
   13MOL    C45 4629   1.872   3.011   1.131  0.4281  0.3413  0.0224
   13MOL    C46 4630   1.926   2.894   1.205 -0.1372 -0.2391 -0.3995
   13MOL    H47 4631   2.391   2.970   1.092 -0.8351  0.0394 -1.3711
   13MOL    H48 4632   2.479   3.106   1.029  0.3975  0.6076  0.7057
   13MOL    H49 4633   2.256   3.213   0.973 -3.4903 -0.4601 -1.2328
   13MOL    H50 4634   2.050   3.068   0.829 -0.1854 -0.9520  0.4039
   13MOL    H51 4635   2.038   3.166   0.965  0.4610 -0.0848  0.1105
   13MOL    H52 4636   1.925   2.894   0.954 -0.2106  0.0344  1.1246
   13MOL    H53 4637   1.840   3.025   0.911 -1.8259 -1.1471  1.6207
   13MOL    H54 4638   1.764   3.009   1.143  0.4633  0.2457  0.3130
   13MOL    H55 4639   1.884   3.108   1.178  0.7047 -0.1000  0.8657
   13MOL    H56 4640   1.896   2.886   1.309  1.5659 -1.2606  0.0422
   13MOL    H57 4641   1.912   2.798   1.156 -0.4035  0.8453 -2.4861
   13MOL    H58 4642   2.031   2.920   1.222  0.1502  0.0134 -2.4709
   13MOL    C59 4643   2.323   3.059   0.832  0.6413  0.3957  0.0476
   13MOL    C60 4644   2.378   3.161   0.735  0.1666  0.2237 -0.7107
   13MOL    O61 4645   2.432   3.097   0.626 -0.1757 -0.8656 -0.6573
   13MOL    C62 4646   2.570   3.091   0.617  0.8165  0.3820 -0.3133
   13MOL    C63 4647   2.622   3.067   0.476  0.2496 -0.3950  0.4443
   13MOL    C64 4648   2.775   3.032   0.481 -0.2586  0.1640  0.6738
   13MOL    C65 4649   2.864   3.157   0.491 -0.1784  0.0879  0.0014
   13MOL    H66 4650   2.398   2.981   0.847  0.1124  0.1502  1.4926
   13MOL    H67 4651   2.245   3.001   0.783  2.7324 -1.2200 -1.4640
   13MOL    H68 4652   2.451   3.224   0.787  0.1706  0.2408 -0.7370
   13MOL    H69 4653   2.613   3.027   0.693  1.1754 -2.3300 -2.7024
   13MOL    H70 4654   2.598   3.189   0.655 -0.3381  0.1354  1.2183
   13MOL    H71 4655   2.568   2.993   0.418  1.9516 -1.2495 -0.0955
   13MOL    H72 4656   2.618   3.160   0.419  2.8851 -0.1420  0.5775
   13MOL    H73 4657   2.794   2.959   0.560  1.3950 -1.4709 -1.1724
   13MOL    H74 4658   2.795   2.977   0.389 -1.4515  2.4154 -0.9893
   13MOL    H75 4659   2.838   3.222   0.407  1.7962 -0.5104 -1.1094
   13MOL    H76 4660   2.855   3.209   0.586 -0.2715  0.0629  0.0061
   13MOL    H77 4661   2.971   3.140   0.477  0.2000  1.5014  1.0188
   13MOL    C78 4662   2.264   3.257   0.693 -0.3958 -0.0255  0.4953
   13MOL    C79 4663   2.310   3.400   0.643 -0.6571  0.2328  0.1916
   13MOL    O80 4664   2.216   3.509   0.634  0.4935  0.4302 -0.1129
   13MOL    C81 4665   2.172   3.549   0.760  1.0111 -0.6506 -0.5194
   13MOL    C82 4666   2.265   3.651   0.827  0.7901  0.0366 -0.1136
   13MOL    C83 4667   2.212   3.690   0.959 -0.4938 -0.3396 -0.4080
   13MOL    C84 4668   2.299   3.784   1.037 -0.8918 -0.1932 -0.2598
   13MOL    H85 4669   2.198   3.263   0.779  0.0462  0.1396  0.8269
   13MOL    H86 4670   2.207   3.205   0.616 -0.6706 -0.1224  0.7655
   13MOL    H87 4671   2.387   3.433   0.713  0.0762  2.7288 -1.7038
   13MOL    H88 4672   2.145   3.459   0.816 -0.2530  0.0340 -0.0101
   13MOL    H89 4673   2.072   3.587   0.740  0.3512 -2.9514 -1.7632
   13MOL    H90 4674   2.372   3.628   0.835  0.9903  0.1339 -2.1236
   13MOL    H91 4675   2.269   3.735   0.758 -1.2668 -0.0593 -0.3700
   13MOL    H92 4676   2.189   3.599   1.013 -2.1689  1.4566  1.9876
   13MOL    H93 4677   2.111   3.729   0.947  0.6294  2.3624 -1.4910
   13MOL    H94 4678   2.290   3.882   0.989 -1.0976 -0.8607 -1.6134
   13MOL    H95 4679   2.245   3.786   1.131 -2.2722  1.1285 -1.0411
   13MOL    H96 4680   2.403   3.755   1.050 -0.6201  0.2997 -1.2341
   13MOL    C97 4681   2.387   3.403   0.506 -0.3056  0.5900 -0.0783
   13MOL    C98 4682   2.520   3.495   0.501 -0.6747  0.7413  0.4157
   13MOL    O99 4683   2.617   3.451   0.602  0.1685 -0.3838  0.0952
   13MOL   C100 4684   2.673   3.555   0.687 -0.1787  0.4265 -0.2737
   13MOL   C101 4685   2.785   3.494   0.771 -0.0992 -0.0250 -0.9011
   13MOL   C102 4686   2.735   3.394   0.874 -0.6157  0.0942 -0.3997
   13MOL   C103 4687   2.847   3.328   0.969  0.2528  0.1265  0.7073
   13MOL   H104 4688   2.317   3.444   0.433  0.3903  0.7946 -0.6368
   13MOL   H105 4689   2.421   3.305   0.474  0.3497  0.1910  1.7832
   13MOL   H106 4690   2.491   3.597   0.523  0.4149  1.1191  0.1186
   13MOL   H107 4691   2.596   3.588   0.757 -0.1910 -0.6483  0.2213
   13MOL   H108 4692   2.705   3.643   0.631 -0.4039  0.4805 -0.3184
   13MOL   H109 4693   2.825   3.574   0.833  0.4449 -1.5702  0.7965
   13MOL   H110 4694   2.860   3.444   0.710 -0.7590 -0.1358 -1.6233
   13MOL   H111 4695   2.680   3.311   0.829  0.1092  0.4891 -2.0407
   13MOL   H112 4696   2.663   3.439   0.943 -1.1302  3.1659 -2.8668
   13MOL   H113 4697   2.865   3.400   1.049  0.3529  1.3541 -0.4089
   13MOL   H114 4698   2.807   3.233   1.007  2.1942 -1.1481 -0.3719
   13MOL   H115 4699   2.933   3.296   0.911 -0.8229  1.4798 -1.6788
   13MOL   C116 4700   2.603   3.489   0.370  0.2438 -1.0594 -0.0639
   13MOL   C117 4701   2.520   3.555   0.257  0.1520 -0.6549  0.1869
   13MOL   O118 4702   2.620   3.614   0.176  0.1323 -0.5398  0.2769
   13MOL   C119 4703   2.644   3.748   0.216  0.3283  0.1798 -0.0905
   13MOL   C120 4704   2.747   3.821   0.127 -0.3142 -0.2421 -0.3554
   13MOL   C121 4705   2.724   3.793   7.785  0.3828  0.1556  0.0316
   13MOL   C122 4706   2.830   3.878   7.704  0.9028 -0.1094 -0.3268
   13MOL   H123 4707   2.700   3.538   0.379  0.0371 -0.6507 -0.0662
   13MOL   H124 4708   2.640   3.387   0.357 -2.0288 -1.7464 -1.3844
   13MOL   H125 4709   2.441   3.625   0.283  0.1673 -0.3313 -0.6116
   13MOL   H126 4710   2.682   3.747   0.318 -1.1427 -2.6712  0.4814
   13MOL   H127 4711   2.553   3.807   0.208  0.2538  0.2044  0.8913
   13MOL   H128 4712   2.848   3.802   0.164  0.8163  1.1166 -2.6697
   13MOL   H129 4713   2.732   3.927   0.145 -0.7291 -0.4541  0.6410
   13MOL   H130 4714   2.742   3.689   7.758  1.1269  0.1354  0.5983
   13MOL   H131 4715   2.621   3.818   7.759  0.1281 -0.8916  0.0033
   13MOL   H132 4716   2.801   3.983   7.698  0.6214 -0.0318  1.9197
   13MOL   H133 4717   2.844   3.840   7.603  0.2545  1.2440 -0.9375
   13MOL   H134 4718   2.929   3.872   7.749  0.4667 -0.3655  0.6053
   13MOL   C135 4719   2.448   3.460   0.153  0.1300  0.4926 -0.5887
   13MOL   C136 4720   2.383   3.549   0.041 -0.0997 -0.5156  0.8420
   13MOL   O137 4721   2.341   3.472   7.733  0.1989  0.4365 -0.1095
   13MOL   C138 4722   2.435   3.410   7.651 -0.1096  0.2676  0.1301
   13MOL   C139 4723   2.368   3.364   7.524  0.6644 -0.5202 -0.3073
   13MOL   C140 4724   2.298   3.469   7.443 -0.2286  1.0907  1.0349
   13MOL   C141 4725   2.387   3.542   7.344 -0.1732  0.7915  0.0532
   13MOL   H142 4726   2.374   3.392   0.194 -1.3139  0.9539 -2.3479
   13MOL   H143 4727   2.529   3.396   0.115 -0.4193 -1.0248  0.7341
   13MOL   H144 4728   2.453   3.628   0.013 -1.7687  1.5813  2.3050
   13MOL   H145 4729   2.476   3.325   7.706 -0.7989  2.5808  4.4340
   13MOL   H146 4730   2.512   3.486   7.642  0.3615  0.1318  2.6812
   13MOL   H147 4731   2.301   3.286   7.559 -1.3631  1.0478 -0.5923
   13MOL   H148 4732   2.438   3.306   7.464  1.6440  0.7335 -0.4030
   13MOL   H149 4733   2.228   3.417   7.377  1.2831  0.9301 -0.4597
   13MOL   H150 4734   2.235   3.543   7.494  0.9186  2.6262  0.2367
   13MOL   H151 4735   2.465   3.582   7.409 -0.9508 -1.0687  2.2264
   13MOL   H152 4736   2.426   3.477   7.266  0.1835  1.0618  0.0090
   13MOL   H153 4737   2.325   3.619   7.298 -2.1063 -0.3855  0.6181
   13MOL   C154 4738   2.254   3.608   0.095  0.5188 -1.1425 -0.5980
   13MOL   C155 4739   2.174   3.704   0.008 -0.3367  0.1799  0.3257
   13MOL   O156 4740   2.258   3.794   7.747  0.2742  0.5367  0.0985
   13MOL   C157 4741   2.217   3.851   7.628  0.0609  1.0167  0.0157
   13MOL   C158 4742   2.332   3.942   7.581  0.7636  0.8444 -1.0186
   13MOL   C159 4743   2.460   3.887   7.513  0.6942 -0.0002 -0.3733
   13MOL   C160 4744   2.551   4.010   7.494  0.6684  0.0204  0.7439
   13MOL   H161 4745   2.262   3.660   0.190 -0.4792 -2.5347  0.2617
   13MOL   H162 4746   2.194   3.525   0.129  0.5025 -0.6101  0.6804
   13MOL   H163 4747   2.119   3.638   7.743  3.3423 -1.5922 -1.1074
   13MOL   H164 4748   2.163   3.780   7.565  0.5078 -0.3328  1.1316
   13MOL   H165 4749   2.146   3.931   7.652  0.1105  0.3306  2.5880
   13MOL   H166 4750   2.360   4.024   7.647 -0.1319 -0.7492  1.4100
   13MOL   H167 4751   2.288   4.001   7.500 -0.8841  0.8572 -0.1377
   13MOL   H168 4752   2.502   3.812   7.580  5.6727  0.9404 -2.2320
   13MOL   H169 4753   2.428   3.850   7.416  0.2538 -0.0600 -0.2041
   13MOL   H170 4754   2.586   4.046   7.591  0.5207  0.7352  0.5337
   13MOL   H171 4755   2.639   3.983   7.436 -1.1825  0.3104 -2.2763
   13MOL   H172 4756   2.508   4.098   7.448  1.5620 -0.2492 -0.6395
   13MOL   C173 4757   2.060   3.775   0.084  0.0623 -0.3833  0.1241
   13MOL   C174 4758   2.102   3.867   0.203  0.0296 -0.2889 -0.1130
   13MOL   O175 4759   2.012   3.979   0.206  0.4668 -0.1624 -0.0858
   13MOL   C176 4760   2.066   4.095   0.150 -0.2921 -0.1934 -0.2450
   13MOL   C177 4761   1.958   4.201   0.161  0.0806  0.4940  0.4501
   13MOL   C178 4762   2.023   4.337   0.132 -0.0002  0.4361  0.1269
   13MOL   C179 4763   1.933   4.461   0.139 -0.0310  0.3194 -0.6217
   13MOL   H180 4764   1.990   3.701   0.122  0.0517 -1.5253 -2.0029
   13MOL   H181 4765   2.017   3.840   0.008  1.1845  0.3037  0.0642
   13MOL   H182 4766   2.201   3.912   0.189 -0.0263  0.2751  1.2062
   13MOL   H183 4767   2.083   4.068   0.046 -1.1112  0.6146 -0.5967
   13MOL   H184 4768   2.156   4.127   0.202 -0.0194  0.1967 -0.9486
   13MOL   H185 4769   1.917   4.201   0.261 -2.9176 -1.6605 -0.7212
   13MOL   H186 4770   1.868   4.174   0.106  0.5332  1.0116 -0.5767
   13MOL   H187 4771   2.111   4.352   0.194 -0.2327  1.4607  0.2134
   13MOL   H188 4772   2.071   4.325   0.035 -1.0423 -1.2526 -0.2040
   13MOL   H189 4773   1.836   4.451   0.090 -1.1308  1.7212  1.1887
   13MOL   H190 4774   1.920   4.504   0.239  2.4903  0.9012 -0.5290
   13MOL   H191 4775   1.986   4.536   0.081 -0.2939  0.4802 -0.6538
   13MOL   C192 4776   2.097   3.810   0.347  0.5440 -0.3714 -0.2839
   13MOL   C193 4777   2.172   3.894   0.452 -0.0971 -0.2074 -0.7018
   13MOL   O194 4778   2.117   3.874   0.575  0.0063  0.6845  0.2701
   13MOL   C195 4779   2.002   3.948   0.616 -0.4820 -0.0717  0.3653
   13MOL   C196 4780   1.959   3.888   0.745  0.4466 -0.0536 -0.2431
   13MOL   C197 4781   1.837   3.955   0.813 -0.4923 -0.5339  1.1419
   13MOL   C198 4782   1.814   3.877   0.939  0.2729  0.3680 -0.5263
   13MOL   H199 4783   2.133   3.707   0.347  2.8114  0.3489 -2.9074
   13MOL   H200 4784   1.990   3.800   0.364  0.4502  0.5311 -0.3306
   13MOL   H201 4785   2.171   3.998   0.420 -1.6065 -0.1626 -0.5720
   13MOL   H202 4786   1.918   3.954   0.546 -0.4062  2.4158  0.4467
   13MOL   H203 4787   2.023   4.051   0.643  0.8544  0.3545 -2.2125
   13MOL   H204 4788   1.940   3.783   0.725  1.0634 -0.2183  0.0183
   13MOL   H205 4789   2.043   3.903   0.813 -0.3777  1.0449  0.5728
   13MOL   H206 4790   1.756   3.948   0.741  0.4663  1.9701 -0.2418
   13MOL   H207 4791   1.865   4.060   0.822 -0.5136 -0.4988  0.7942
   13MOL   H208 4792   1.899   3.861   1.005  2.0171  0.6569 -2.6802
   13MOL   H209 4793   1.735   3.930   0.993 -0.4809 -0.5515 -0.6925
   13MOL   H210 4794   1.779   3.775   0.920 -0.4784  0.7968 -1.4839
   13MOL   C211 4795   2.324   3.857   0.456  0.2277  0.3847 -0.1272
   13MOL   C212 4796   2.411   3.941   0.544 -1.1755 -0.7762 -0.2110
   13MOL   O213 4797   2.532   3.865   0.563  0.1044 -0.2520  0.0201
   13MOL   C214 4798   2.630   3.909   0.662  0.3509 -0.1491  0.7504
   13MOL   C215 4799   2.584   3.895   0.814 -0.2576 -0.3431  0.1436
   13MOL   C216 4800   2.704   3.910   0.914  0.1330  0.3821  0.0178
   13MOL   C217 4801   2.660   3.917   1.059  0.1919  1.1661  0.2130
   13MOL   H218 4802   2.360   3.863   0.353 -0.7782  0.8151 -0.4671
   13MOL   H219 4803   2.328   3.756   0.498  2.9316  0.8259  0.7833
   13MOL   H220 4804   2.351   3.952   0.634 -2.0854 -1.2618 -0.7478
   13MOL   H221 4805   2.727   3.867   0.637 -0.4157 -1.1676 -0.6379
   13MOL   H222 4806   2.662   4.012   0.647  1.3275 -0.5505  0.0327
   13MOL   H223 4807   2.515   3.978   0.831 -1.3202 -0.8709 -1.4551
   13MOL   H224 4808   2.540   3.797   0.834 -1.1226 -0.4832 -2.2659
   13MOL   H225 4809   2.770   3.995   0.894  2.2338 -0.5511  2.6131
   13MOL   H226 4810   2.774   3.830   0.891  0.5052  0.3601  1.1858
   13MOL   H227 4811   2.626   3.821   1.099  0.3429  0.8508 -0.3961
   13MOL   H228 4812   2.581   3.992   1.057  0.3923  1.3526 -1.8574
   13MOL   H229 4813   2.739   3.958   1.122  0.1060 -0.7107  1.5936
   13MOL   C230 4814   2.434   4.082   0.480  0.0837  0.5331 -0.0361
   13MOL   C231 4815   2.345   4.183   0.551  0.5681  0.1884  0.2637
   13MOL   O232 4816   2.414   4.220   0.672 -0.1791  0.3241 -0.0151
   13MOL   C233 4817   2.336   4.200   0.788  0.4462 -0.2511  0.7018
   13MOL   C234 4818   2.383   4.303   0.884  0.1845  0.8226 -0.3248
   13MOL   C235 4819   2.339   4.268   1.024 -0.6114 -0.1719  0.7460
   13MOL   C236 4820   2.344   4.390   1.106 -0.1311 -0.2263 -0.2708
   13MOL   H237 4821   2.413   4.083   0.373  2.0736 -0.1614 -0.4543
   13MOL   H238 4822   2.540   4.105   0.492 -0.4935  3.1952  0.3350
   13MOL   H239 4823   2.243   4.146   0.560  0.0334  1.3231 -1.0784
   13MOL   H240 4824   2.229   4.214   0.771  0.6269 -1.0734 -1.2473
   13MOL   H241 4825   2.346   4.098   0.824  3.5281  0.3111  1.5421
   13MOL   H242 4826   2.491   4.321   0.891  0.3858 -1.0887  2.3168
   13MOL   H243 4827   2.343   4.400   0.856 -0.2387  0.8618  0.4170
   13MOL   H244 4828   2.403   4.192   1.070 -0.7101  0.2841  1.6525
   13MOL   H245 4829   2.248   4.208   1.030  0.9826 -2.9322 -1.0788
   13MOL   H246 4830   2.302   4.373   1.205 -0.1672 -1.8395 -0.5473
   13MOL   H247 4831   2.288   4.474   1.064 -0.0957  0.1280  0.3954
   13MOL   H248 4832   2.445   4.428   1.120 -0.6896  1.2582 -0.1560
   13MOL   C249 4833   2.336   4.301   0.457 -0.6085 -0.2718 -0.4371
   13MOL   C250 4834   2.247   4.421   0.497 -0.6732 -0.5614  0.0243
   13MOL   O251 4835   2.110   4.384   0.472  0.0130 -0.0992 -0.6877
   13MOL   C252 4836   2.034   4.399   0.592  0.1270  0.8255  0.4177
   13MOL   C253 4837   1.897   4.322   0.576  0.8018  0.0196 -0.2502
   13MOL   C254 4838   1.830   4.313   0.707 -0.5102  0.2063 -0.2156
   13MOL   C255 4839   1.696   4.252   0.696  0.0021 -0.4995 -0.4387
   13MOL   H256 4840   2.309   4.266   0.357 -1.4512  0.6262 -0.5322
   13MOL   H257 4841   2.440   4.333   0.447 -0.0246 -2.7967 -3.0059
   13MOL   H258 4842   2.264   4.454   0.600  2.7012  1.0865 -0.9909
   13MOL   H259 4843   2.009   4.505   0.604 -0.5003  0.9448 -1.6810
   13MOL   H260 4844   2.089   4.359   0.677 -1.2947  0.0584  0.9791
   13MOL   H261 4845   1.833   4.366   0.500 -0.8017  0.0550  1.0899
   13MOL   H262 4846   1.922   4.227   0.529  1.1927 -0.1098  0.2146
   13MOL   H263 4847   1.885   4.261   0.785  1.0434 -0.5719 -1.8133
   13MOL   H264 4848   1.808   4.410   0.752 -3.0506  0.8627 -2.7165
   13MOL   H265 4849   1.642   4.267   0.789  0.8433  0.9175 -0.1774
   13MOL   H266 4850   1.695   4.144   0.678  2.9349 -1.0364  2.1776
   13MOL   H267 4851   1.638   4.304   0.619  0.7618 -1.2270 -1.5233
   13MOL   C268 4852   2.259   4.547   0.405  0.4266 -0.2790 -0.4199
   13MOL   C269 4853   2.391   4.631   0.435 -0.3200  0.3245 -0.0973
   13MOL   O270 4854   2.391   4.743   0.351  0.1755  0.1718 -0.0914
   13MOL   C271 4855   2.430   4.724   0.211 -0.2309 -0.1456 -0.5967
   13MOL   C272 4856   2.580   4.761   0.194  0.4413  0.2989 -0.5709
   13MOL   C273 4857   2.629   4.767   0.040 -0.3985 -0.9495  0.1569
   13MOL   C274 4858   2.767   4.838   0.035  0.4524 -0.3774 -0.2351
   13MOL   H275 4859   2.241   4.523   0.301  0.5054  1.8428 -0.9400
   13MOL   H276 4860   2.180   4.611   0.443  0.3120 -0.5943 -0.1247
   13MOL   H277 4861   2.483   4.576   0.415  0.3252  0.4689  2.3562
   13MOL   H278 4862   2.423   4.617   0.195 -0.3155 -0.7147  2.7787
   13MOL   H279 4863   2.358   4.788   0.160  0.6194  1.7691  0.5237
   13MOL   H280 4864   2.609   4.854   0.244  1.1109  0.2256 -0.8136
   13MOL   H281 4865   2.652   4.691   0.238  0.3811  0.6302  0.0606
   13MOL   H282 4866   2.559   4.820   7.777  0.9137  0.6662  0.0480
   13MOL   H283 4867   2.644   4.668   7.799  0.2614  0.2254 -2.3966
   13MOL   H284 4868   2.807   4.843   7.735 -1.3047 -0.3531 -0.9359
   13MOL   H285 4869   2.848   4.794   0.092  0.6122  0.2504  0.0265
   13MOL   H286 4870   2.737   4.934   0.076  2.0616 -0.1781  0.5054
   13MOL   C287 4871   2.406   4.681   0.580  0.6331 -0.1718 -0.2228
   13MOL   C288 4872   2.545   4.731   0.629 -0.0454  0.4767 -0.3099
   13MOL   O289 4873   2.548   4.739   0.779 -0.0636 -0.0637 -0.2188
   13MOL   C290 4874   2.686   4.735   0.829  0.6369  0.8087 -0.2101
   13MOL   C291 4875   2.672   4.724   0.983 -0.0090  0.7005  0.0404
   13MOL   C292 4876   2.600   4.839   1.048 -0.8686  0.6543 -0.5077
   13MOL   C293 4877   2.558   4.825   1.197  0.7695 -0.2255 -0.5561
   13MOL   H294 4878   2.377   4.608   0.655 -1.3443 -1.5819 -2.2755
   13MOL   H295 4879   2.337   4.764   0.597 -0.8742 -1.1386 -1.4702
   13MOL   H296 4880   2.618   4.660   0.589  0.2871  0.6865 -0.0768
   13MOL   H297 4881   2.745   4.650   0.794 -1.6050 -0.9748  0.2501
   13MOL   H298 4882   2.754   4.817   0.804  0.5676 -0.0157 -3.3434
   13MOL   H299 4883   2.769   4.704   1.028  0.0023 -1.0248 -0.7084
   13MOL   H300 4884   2.611   4.635   0.999 -0.5094  1.0856  0.2600
   13MOL   H301 4885   2.518   4.870   0.982  0.3989  2.3330 -1.3225
   13MOL   H302 4886   2.665   4.926   1.053 -0.0710  0.0540 -0.2942
   13MOL   H303 4887   2.487   4.902   1.227  1.0766  0.5243 -1.6959
   13MOL   H304 4888   2.502   4.732   1.197 -0.3020  0.4039  1.1479
   13MOL   H305 4889   2.637   4.814   1.271  0.3391  2.7909  0.4510
   13MOL   C306 4890   2.584   4.877   0.573 -0.0833 -0.1853 -0.1109
   13MOL   C307 4891   2.481   4.991   0.584  0.0689 -0.3293  0.2144
   13MOL   O308 4892   2.555   5.105   0.534 -0.1262 -0.1595  0.0173
   13MOL   C309 4893   2.534   5.137   0.392 -0.1818  0.1477 -0.4511
   13MOL   C310 4894   2.598   5.268   0.352 -0.0297  0.2806 -0.4209
   13MOL   C311 4895   2.737   5.257   0.303 -0.7878  0.1460 -0.1293
   13MOL   C312 4896   2.813   5.378   0.253  0.5593  0.6488 -1.4935
   13MOL   H313 4897   2.678   4.913   0.614  0.6526 -0.1242 -1.8023
   13MOL   H314 4898   2.601   4.868   0.466 -2.0326 -2.5361 -0.2893
   13MOL   H315 4899   2.387   4.979   0.531 -0.1943 -1.0213  0.8292
   13MOL   H316 4900   2.428   5.163   0.396 -0.1586  0.1954 -0.1398
   13MOL   H317 4901   2.559   5.049   0.332 -0.7322 -0.7735  0.6470
   13MOL   H318 4902   2.608   5.335   0.438  0.0049 -0.8275  0.4446
   13MOL   H319 4903   2.546   5.325   0.275  0.6390  2.4114  0.6594
   13MOL   H320 4904   2.804   5.212   0.377  0.0602 -0.1374 -1.0575
   13MOL   H321 4905   2.746   5.190   0.218 -0.1362  1.0333 -0.7737
   13MOL   H322 4906   2.750   5.413   0.170  0.1144 -0.4897 -1.6463
   13MOL   H323 4907   2.915   5.357   0.223  0.7997 -2.6786  1.3836
   13MOL   H324 4908   2.810   5.456   0.329  1.7838  0.1865 -0.9766
   13MOL   C325 4909   2.451   5.028   0.732  0.0172 -0.5338  0.8041
   13MOL   C326 4910   2.388   5.165   0.755 -0.0483  0.7084 -0.0079
   13MOL   O327 4911   2.295   5.155   0.867 -0.7818 -0.1230  0.2556
   13MOL   C328 4912   2.160   5.125   0.833  0.0343  0.0577  0.2185
   13MOL   C329 4913   2.083   5.150   0.965  0.7599  0.5400  0.1405
   13MOL   C330 4914   1.943   5.072   0.959 -0.3232  0.2855 -0.3764
   13MOL   C331 4915   1.852   5.091   1.080  0.5855 -0.0180  0.6495
   13MOL   H332 4916   2.543   5.030   0.791 -0.3082  2.2528  1.2891
   13MOL   H333 4917   2.399   4.950   0.787  0.8478 -1.6819 -0.0357
   13MOL   H334 4918   2.328   5.189   0.667  0.1274 -0.1260 -0.3644
   13MOL   H335 4919   2.142   5.027   0.790 -0.6957  0.9256 -1.5120
   13MOL   H336 4920   2.121   5.195   0.759  0.8335  0.9539  0.6257
   13MOL   H337 4921   2.146   5.119   1.047  0.5900 -2.0927 -0.6663
   13MOL   H338 4922   2.079   5.258   0.982  2.2005  0.2913  2.1495
   13MOL   H339 4923   1.969   4.966   0.955  0.3392  0.4568 -0.6485
   13MOL   H340 4924   1.875   5.097   0.877  0.4319  2.0277 -0.4931
   13MOL   H341 4925   1.811   5.192   1.083 -0.3027 -0.2403 -2.2486
   13MOL   H342 4926   1.911   5.069   1.169  2.4944  0.0758 -0.5811
   13MOL   H343 4927   1.766   5.025   1.077 -0.9718  1.8703  2.0340
   13MOL   C344 4928   2.490   5.281   0.781 -0.2211  0.4388 -0.5063
   13MOL   C345 4929   2.442   5.427   0.760 -0.1384  0.0596 -0.7048
   13MOL   O346 4930   2.549   5.525   0.786  0.2796  0.4456 -0.6489
   13MOL   C347 4931   2.652   5.514   0.689  0.1633 -0.7315 -0.2072
   13MOL   C348 4932   2.739   5.646   0.699  0.0289  0.3606  0.2274
   13MOL   C349 4933   2.667   5.768   0.641 -0.0145  0.5931 -0.2250
   13MOL   C350 4934   2.730   5.902   0.685  0.2377 -0.0143 -0.2108
   13MOL   H351 4935   2.505   5.273   0.889  0.2672  0.3746 -0.5774
   13MOL   H352 4936   2.576   5.253   0.721 -0.4443 -0.3844 -0.4454
   13MOL   H353 4937   2.398   5.438   0.661  2.9153  2.4669 -1.8792
   13MOL   H354 4938   2.616   5.518   0.586 -0.4553  0.1235  0.0314
   13MOL   H355 4939   2.717   5.429   0.711  1.3611  0.1061 -0.4171
   13MOL   H356 4940   2.827   5.636   0.635 -0.5974 -1.0719 -0.4280
   13MOL   H357 4941   2.773   5.653   0.802 -2.0244  0.4880  0.9284
   13MOL   H358 4942   2.673   5.765   0.532 -2.2559 -0.5982 -0.3444
   13MOL   H359 4943   2.560   5.763   0.663  0.2080 -0.5875  0.6197
   13MOL   H360 4944   2.710   5.933   0.787  0.9862  0.3455 -0.1685
   13MOL   H361 4945   2.707   5.991   0.627  0.7309  1.5692  1.9855
   13MOL   H362 4946   2.837   5.898   0.666  0.4353  2.2493  0.3044
   13MOL   C363 4947   2.336   5.479   0.852  0.1492  0.7937 -0.2528
   13MOL   C364 4948   2.262   5.605   0.784  0.8437 -0.6665 -0.4071
   13MOL   O365 4949   2.150   5.629   0.870  0.5085  0.7135  0.1290
   13MOL   C366 4950   2.048   5.708   0.803 -0.2680 -0.9506 -0.1755
   13MOL   C367 4951   1.921   5.732   0.891 -0.1394 -0.5426 -0.4130
   13MOL   C368 4952   1.943   5.792   1.031 -0.3467  0.1282  0.4283
   13MOL   C369 4953   1.977   5.943   1.033 -0.9685 -0.3734  0.8713
   13MOL   H370 4954   2.385   5.491   0.948 -1.6302  1.1898  0.6269
   13MOL   H371 4955   2.261   5.400   0.858  0.8292  0.0027 -1.8703
   13MOL   H372 4956   2.235   5.591   0.680  0.2201 -0.9483 -0.2095
   13MOL   H373 4957   2.000   5.660   0.718  2.3130  0.3182 -2.4280
   13MOL   H374 4958   2.085   5.799   0.756 -3.1059 -1.0131 -2.6445
   13MOL   H375 4959   1.867   5.638   0.903  0.9558 -1.0287  0.8316
   13MOL   H376 4960   1.853   5.788   0.827 -0.4565 -0.3437  0.0912
   13MOL   H377 4961   2.028   5.736   1.069 -0.3187 -0.4116 -0.4120
   13MOL   H378 4962   1.860   5.772   1.098 -2.5040 -0.3207 -2.2628
   13MOL   H379 4963   2.007   5.975   1.133  3.9737  1.7295 -1.1228
   13MOL   H380 4964   2.066   5.978   0.981 -1.0676 -0.6355  0.5293
   13MOL   H381 4965   1.897   5.998   0.983  1.1479  2.3296  0.3505
   13MOL   H382 4966   2.332   5.689   0.790 -0.7488  0.5996  1.0672
   14MOL     C1 4967   6.161   7.057   0.500 -0.5336 -0.3960 -0.3262
   14MOL     C2 4968   6.130   6.905   0.474  0.2839  0.3120  0.1317
   14MOL     O3 4969   5.994   6.890   0.447 -0.3642 -0.1272  0.2105
   14MOL     C4 4970   5.912   6.912   0.555 -0.2741 -0.2450 -0.2545
   14MOL     C5 4971   5.811   6.799   0.545 -0.1363 -0.2242  0.9979
   14MOL     C6 4972   5.881   6.665   0.548 -0.6148 -0.2627  0.2161
   14MOL     C7 4973   5.774   6.553   0.593 -0.4432  0.6940 -0.6443
   14MOL     H8 4974   6.133   7.121   0.416 -0.1602 -0.0158 -0.1605
   14MOL     H9 4975   6.110   7.097   0.588  0.0637 -1.7819  0.6642
   14MOL    H10 4976   6.172   6.845   0.554  0.2291 -1.9556 -1.4879
   14MOL    H11 4977   5.970   6.918   0.647  0.0306  0.3198 -0.4757
   14MOL    H12 4978   5.850   7.002   0.548  0.7437  0.7700  2.8072
   14MOL    H13 4979   5.757   6.803   0.450  1.4580 -1.5959 -0.0130
   14MOL    H14 4980   5.747   6.819   0.631 -0.6174 -1.2402  0.8794
   14MOL    H15 4981   5.967   6.665   0.616 -2.7848  1.1843  3.1080
   14MOL    H16 4982   5.916   6.640   0.449  1.1190  0.0206  0.7405
   14MOL    H17 4983   5.830   6.462   0.571  0.2293  0.9608 -0.0475
   14MOL    H18 4984   5.689   6.563   0.526 -1.3079  1.4711  0.5468
   14MOL    H19 4985   5.736   6.562   0.694  2.3982 -1.2980  0.6586
   14MOL    H20 4986   6.267   7.069   0.519 -0.1222  0.4628 -2.8525
   14MOL    C21 4987   6.205   6.859   0.342 -0.2247 -0.7538 -0.3105
   14MOL    C22 4988   6.183   6.711   0.296  0.2164 -0.6572 -0.1891
   14MOL    O23 4989   6.241   6.680   0.170 -0.3168  1.2811  0.2875
   14MOL    C24 4990   6.159   6.719   0.056 -0.8712  0.8518  0.0871
   14MOL    C25 4991   6.221   6.660   7.737  0.8714  0.2759 -0.2012
   14MOL    C26 4992   6.183   6.510   7.710 -0.1866 -0.2362  0.2666
   14MOL    C27 4993   6.239   6.462   7.582  0.2671 -0.7022 -0.2996
   14MOL    H28 4994   6.311   6.880   0.351 -0.3142 -0.4234 -0.0100
   14MOL    H29 4995   6.164   6.919   0.261 -0.7717  1.0458  1.2461
   14MOL    H30 4996   6.075   6.693   0.289  0.2128 -0.3991 -0.8865
   14MOL    H31 4997   6.168   6.827   0.041 -2.1596  1.0442  0.5549
   14MOL    H32 4998   6.053   6.699   0.073 -1.0423  0.6910 -1.1256
   14MOL    H33 4999   6.187   6.714   7.649 -1.2123  1.6748  1.3912
   14MOL    H34 5000   6.329   6.659   7.744  0.8468 -1.9948  0.4364
   14MOL    H35 5001   6.239   6.463   7.791 -0.1787  0.9809  0.9777
   14MOL    H36 5002   6.078   6.484   7.719  0.0823 -1.7748 -0.8293
   14MOL    H37 5003   6.345   6.438   7.582  0.6209  0.8622 -0.3084
   14MOL    H38 5004   6.190   6.367   7.560 -1.2586  0.3568 -1.5846
   14MOL    H39 5005   6.204   6.530   7.504 -1.3275 -1.4929 -0.2934
   14MOL    C40 5006   6.236   6.608   0.395  0.3617  0.3872  0.5435
   14MOL    C41 5007   6.215   6.458   0.352 -0.1965 -0.9672 -0.3816
   14MOL    O42 5008   6.082   6.426   0.374 -0.3733  0.4061 -0.2546
   14MOL    C43 5009   6.016   6.403   0.254 -0.2785  0.2439 -0.0062
   14MOL    C44 5010   5.873   6.358   0.286  0.4232  1.0190  0.4382
   14MOL    C45 5011   5.866   6.227   0.370 -0.5716  0.1862 -0.1819
   14MOL    C46 5012   5.727   6.185   0.403 -0.1785  0.2440  0.4045
   14MOL    H47 5013   6.207   6.624   0.499 -0.5128 -1.9132  0.6692
   14MOL    H48 5014   6.344   6.628   0.395  0.2113  1.2649 -0.6415
   14MOL    H49 5015   6.252   6.447   0.250  0.5091 -1.5724 -0.0657
   14MOL    H50 5016   6.072   6.340   0.185  2.3666  1.4843  0.9355
   14MOL    H51 5017   6.000   6.486   0.184 -2.2660 -0.6247 -0.6207
   14MOL    H52 5018   5.814   6.328   0.199  0.1718 -1.2835  1.3612
   14MOL    H53 5019   5.821   6.445   0.328 -0.3303  1.0270 -0.5080
   14MOL    H54 5020   5.920   6.243   0.463  1.3904  1.2755 -1.4876
   14MOL    H55 5021   5.918   6.145   0.320 -2.2489 -0.7903 -0.3698
   14MOL    H56 5022   5.685   6.124   0.323  0.3985  2.1522 -1.4382
   14MOL    H57 5023   5.724   6.127   0.495 -1.0636 -2.5435 -1.3293
   14MOL    H58 5024   5.653   6.266   0.406  0.2907  0.7104 -0.3932
   14MOL    C59 5025   6.303   6.356   0.438 -0.1290 -0.0086 -0.8436
   14MOL    C60 5026   6.449   6.345   0.406 -1.1873 -0.0631 -0.0495
   14MOL    O61 5027   6.510   6.281   0.523  0.2813 -0.3546 -0.0229
   14MOL    C62 5028   6.534   6.375   0.623  0.1313  0.7352 -0.1120
   14MOL    C63 5029   6.618   6.314   0.741 -0.6121  0.2902  0.1237
   14MOL    C64 5030   6.766   6.309   0.709  0.1111  0.5849  0.3293
   14MOL    C65 5031   6.854   6.268   0.820 -0.3186 -0.1728  0.2995
   14MOL    H66 5032   6.293   6.385   0.543  1.0017 -3.9185  0.4165
   14MOL    H67 5033   6.259   6.258   0.419  0.3280 -0.1654 -1.0953
   14MOL    H68 5034   6.492   6.443   0.386 -1.3761 -0.0883 -0.5882
   14MOL    H69 5035   6.443   6.415   0.668  0.1409  0.9704 -0.3007
   14MOL    H70 5036   6.592   6.454   0.577  1.6288 -0.6004 -0.5542
   14MOL    H71 5037   6.602   6.386   0.822 -0.6267  1.8619 -1.2489
   14MOL    H72 5038   6.569   6.221   0.768 -0.8427  1.0457  2.4935
   14MOL    H73 5039   6.777   6.241   0.624  1.4307  0.4188  0.6244
   14MOL    H74 5040   6.814   6.401   0.676  2.1772 -1.2728 -2.0250
   14MOL    H75 5041   6.960   6.262   0.795 -0.4793 -0.4925 -0.3105
   14MOL    H76 5042   6.853   6.347   0.895  1.3648  1.1694 -1.0617
   14MOL    H77 5043   6.823   6.176   0.870 -3.1706 -0.0267 -1.0993
   14MOL    C78 5044   6.476   6.248   0.288  0.2132  0.0012  0.2090
   14MOL    C79 5045   6.602   6.287   0.208  0.2056 -0.2395 -0.1045
   14MOL    O80 5046   6.616   6.199   0.098 -0.2486 -0.6388 -0.4998
   14MOL    C81 5047   6.551   6.236   7.783  0.1532 -0.6088  0.2863
   14MOL    C82 5048   6.547   6.117   7.689  0.8442  0.6996 -0.3905
   14MOL    C83 5049   6.501   6.151   7.549  0.2665  0.3764  0.8199
   14MOL    C84 5050   6.578   6.096   7.423 -0.4601 -0.5345 -0.0582
   14MOL    H85 5051   6.392   6.262   0.220 -0.5014  0.7915  1.2390
   14MOL    H86 5052   6.482   6.143   0.315 -0.4930  0.3363  1.6853
   14MOL    H87 5053   6.593   6.392   0.179 -1.5434  0.1490  1.7625
   14MOL    H88 5054   6.592   6.324   7.733  1.1700 -1.8380 -1.0809
   14MOL    H89 5055   6.445   6.252   0.002  0.1841 -0.6264  0.4625
   14MOL    H90 5056   6.646   6.071   7.682  0.5026  0.0111 -0.7102
   14MOL    H91 5057   6.488   6.036   7.732 -1.1349  1.9497 -0.7032
   14MOL    H92 5058   6.496   6.259   7.539 -0.2208  0.3327  0.5295
   14MOL    H93 5059   6.400   6.110   7.536  0.7370  0.0015 -2.0611
   14MOL    H94 5060   6.684   6.122   7.422 -0.3441 -0.9779  0.6717
   14MOL    H95 5061   6.570   5.987   7.424  0.2831 -0.5803  1.9534
   14MOL    H96 5062   6.529   6.127   7.330  2.5834  2.8981 -0.6469
   14MOL    C97 5063   6.735   6.282   0.299  0.3454 -1.2670  1.3513
   14MOL    C98 5064   6.862   6.366   0.256 -0.0114 -0.0601  0.1071
   14MOL    O99 5065   6.965   6.340   0.349 -0.5103  0.9377 -0.2823
   14MOL   C100 5066   6.998   6.448   0.438 -0.8943 -0.3243 -0.5188
   14MOL   C101 5067   7.109   6.408   0.529  0.7313 -0.9567  0.6019
   14MOL   C102 5068   7.134   6.508   0.644 -0.0017  0.5552  0.2395
   14MOL   C103 5069   7.257   6.460   0.733 -0.2080  0.4192  0.1707
   14MOL   H104 5070   6.768   6.178   0.302  0.5842 -1.2838 -0.7494
   14MOL   H105 5071   6.718   6.303   0.404 -1.2501 -1.0406  1.0532
   14MOL   H106 5072   6.832   6.471   0.261 -0.2807 -0.2453  3.7050
   14MOL   H107 5073   6.902   6.470   0.485  0.3149  5.3251 -0.2943
   14MOL   H108 5074   7.025   6.535   0.378 -3.0239  2.3337  2.1748
   14MOL   H109 5075   7.202   6.403   0.473 -1.3185  0.3505 -3.0753
   14MOL   H110 5076   7.093   6.309   0.571 -2.2373 -1.0897 -0.7518
   14MOL   H111 5077   7.050   6.511   0.713 -0.2486 -1.7157  0.0651
   14MOL   H112 5078   7.147   6.612   0.614  0.2285  0.2813 -0.6304
   14MOL   H113 5079   7.339   6.426   0.670 -0.1003  0.5019  0.2674
   14MOL   H114 5080   7.273   6.540   0.805 -1.8812  1.1747 -0.2596
   14MOL   H115 5081   7.222   6.374   0.791 -0.0496  0.2655  0.0377
   14MOL   C116 5082   6.928   6.333   0.121 -0.3972  0.1491 -0.4127
   14MOL   C117 5083   7.051   6.412   0.083 -0.2827 -0.3655 -0.5707
   14MOL   O118 5084   7.092   6.349   7.769 -0.6646  0.4534 -0.6406
   14MOL   C119 5085   7.224   6.295   7.770  0.0941 -0.1265 -0.3274
   14MOL   C120 5086   7.259   6.223   7.641  0.1001 -0.4366 -0.4929
   14MOL   C121 5087   7.184   6.088   7.627  0.6768 -0.0040 -0.3423
   14MOL   C122 5088   7.206   6.034   7.490 -0.1998 -0.3382  0.0634
   14MOL   H123 5089   6.952   6.227   0.111  0.6592  0.5707 -2.6514
   14MOL   H124 5090   6.853   6.349   0.043  0.7440  1.9804 -1.1714
   14MOL   H125 5091   7.132   6.401   0.155  0.0754  0.5805 -0.8252
   14MOL   H126 5092   7.211   6.228   0.054 -1.9830  3.2956  2.1673
   14MOL   H127 5093   7.299   6.371   7.796 -0.4439  0.5598 -0.7835
   14MOL   H128 5094   7.368   6.215   7.646  0.0556 -0.9180 -0.2542
   14MOL   H129 5095   7.241   6.294   7.561 -0.4687  0.0123  0.0275
   14MOL   H130 5096   7.211   6.014   7.703 -0.2227  0.4032  0.3858
   14MOL   H131 5097   7.075   6.096   7.634  0.7529  0.3658  0.4623
   14MOL   H132 5098   7.154   6.092   7.414  1.4820  1.1027 -0.0367
   14MOL   H133 5099   7.158   5.937   7.488  1.5839 -1.2649  1.3088
   14MOL   H134 5100   7.311   6.024   7.462 -0.0283  1.2347  0.0872
   14MOL   C135 5101   7.032   6.564   0.059  0.3683 -0.3388  0.0960
   14MOL   C136 5102   7.157   6.652   0.059 -0.7967 -0.4157 -0.6267
   14MOL   O137 5103   7.132   6.773   7.792  0.0541  0.0467 -0.7359
   14MOL   C138 5104   7.165   6.760   7.653  0.6661 -0.1531  0.4819
   14MOL   C139 5105   7.112   6.879   7.577 -0.3166  0.3569 -0.0855
   14MOL   C140 5106   7.200   7.003   7.615 -0.4766  0.5288  0.0140
   14MOL   C141 5107   7.167   7.121   7.519  0.3660  0.4452 -1.1285
   14MOL   H142 5108   6.956   6.598   0.129  1.3424  0.1065  0.9459
   14MOL   H143 5109   6.978   6.575   7.766  0.5953 -0.9949 -0.1089
   14MOL   H144 5110   7.249   6.601   0.028  0.1521  0.2031  1.0853
   14MOL   H145 5111   7.121   6.671   7.608 -1.1209 -0.8758  3.5520
   14MOL   H146 5112   7.272   6.755   7.632  0.6962  3.2448 -0.5094
   14MOL   H147 5113   7.008   6.891   7.606 -0.3955  0.8880 -0.5969
   14MOL   H148 5114   7.123   6.865   7.470 -1.4551 -0.2635 -0.1282
   14MOL   H149 5115   7.178   7.042   7.715 -0.4991  0.4711  0.0310
   14MOL   H150 5116   7.306   6.981   7.605 -0.2789  1.5512 -0.1855
   14MOL   H151 5117   7.171   7.100   7.412  1.9163  2.8916 -1.5770
   14MOL   H152 5118   7.070   7.165   7.545 -1.5629 -3.2289 -1.7293
   14MOL   H153 5119   7.249   7.192   7.522  0.5275  0.2337 -0.3273
   14MOL   C154 5120   7.191   6.693   0.200  0.1590  0.3564 -0.2526
   14MOL   C155 5121   7.302   6.788   0.224  0.2121 -0.5257 -0.7773
   14MOL   O156 5122   7.420   6.727   0.166  0.6562 -0.1368  1.0557
   14MOL   C157 5123   7.490   6.787   0.057 -0.1908 -0.2429  0.6196
   14MOL   C158 5124   7.612   6.704   0.012  0.7265 -0.3567 -0.3361
   14MOL   C159 5125   7.568   6.567   7.767  0.6872 -0.0738  0.7570
   14MOL   C160 5126   7.694   6.476   7.749  1.0011 -0.2995 -0.1779
   14MOL   H161 5127   7.207   6.599   0.253 -0.1492  0.0702 -0.6542
   14MOL   H162 5128   7.099   6.735   0.241 -1.1974 -0.4970 -2.3440
   14MOL   H163 5129   7.275   6.883   0.178  0.6777 -0.1811 -0.3470
   14MOL   H164 5130   7.428   6.807   7.771  2.1638  1.5591 -0.7172
   14MOL   H165 5131   7.529   6.887   0.076 -0.3839 -0.3401  1.5507
   14MOL   H166 5132   7.682   6.683   0.093  1.0421 -1.7366 -0.9536
   14MOL   H167 5133   7.671   6.760   7.741 -1.3440  2.0895 -0.2122
   14MOL   H168 5134   7.511   6.525   0.048  0.9599 -1.3498  0.3126
   14MOL   H169 5135   7.520   6.571   7.669  1.1906 -0.6740  0.4821
   14MOL   H170 5136   7.745   6.467   0.043 -3.3966  1.6309  2.4934
   14MOL   H171 5137   7.662   6.374   7.726  0.1575 -0.1326  0.2309
   14MOL   H172 5138   7.756   6.508   7.665  0.9359 -0.4643 -0.2889
   14MOL   C173 5139   7.336   6.798   0.373  0.3006 -0.4161  0.3781
   14MOL   C174 5140   7.247   6.884   0.458  0.0985 -0.5032  0.1633
   14MOL   O175 5141   7.112   6.825   0.464 -0.3882  0.5328 -0.7010
   14MOL   C176 5142   7.014   6.920   0.433  0.4852 -0.0533  0.3872
   14MOL   C177 5143   6.882   6.856   0.404 -0.0841  0.1450 -0.1264
   14MOL   C178 5144   6.833   6.781   0.527 -0.2966 -0.0410 -0.1852
   14MOL   C179 5145   6.701   6.715   0.490  0.0335  0.2456  0.3334
   14MOL   H180 5146   7.439   6.830   0.389 -0.4906  1.8868  1.0751
   14MOL   H181 5147   7.335   6.699   0.418  2.5112  0.2765  2.0457
   14MOL   H182 5148   7.245   6.982   0.410 -2.1820 -1.1652 -1.1679
   14MOL   H183 5149   7.044   6.977   0.344  2.8894 -1.0480  0.5085
   14MOL   H184 5150   7.005   6.987   0.518 -0.8759 -1.3819  1.3203
   14MOL   H185 5151   6.902   6.781   0.327  0.2772 -2.3350  2.3178
   14MOL   H186 5152   6.817   6.934   0.364 -1.4666 -0.8508  0.1218
   14MOL   H187 5153   6.894   6.696   0.559 -0.6346 -0.6789 -1.2309
   14MOL   H188 5154   6.818   6.850   0.610 -0.5454  1.9622 -1.8516
   14MOL   H189 5155   6.699   6.635   0.415  1.2663  0.0945  0.4432
   14MOL   H190 5156   6.658   6.670   0.579 -2.1662  0.2687 -0.6960
   14MOL   H191 5157   6.638   6.802   0.472  0.4458  0.6954  1.0423
   14MOL   C192 5158   7.312   6.899   0.599  0.8277  0.0904 -0.2463
   14MOL   C193 5159   7.252   7.012   0.688 -0.0701 -0.5019 -0.2031
   14MOL   O194 5160   7.311   7.002   0.815  0.1316 -0.1284 -0.5603
   14MOL   C195 5161   7.227   7.050   0.919 -0.1156  0.0845  0.2702
   14MOL   C196 5162   7.288   7.025   1.052 -0.0693  0.0407  0.1237
   14MOL   C197 5163   7.211   7.077   1.176  0.0402  0.3847 -0.4586
   14MOL   C198 5164   7.166   7.228   1.184 -0.2552  0.9723  0.4356
   14MOL   H199 5165   7.417   6.929   0.600  0.7239  0.4948 -1.0803
   14MOL   H200 5166   7.314   6.808   0.659 -0.4865 -0.0822 -0.4635
   14MOL   H201 5167   7.145   6.999   0.698  0.1738 -1.4573  1.5763
   14MOL   H202 5168   7.134   6.992   0.919  0.4200 -0.8192  1.9782
   14MOL   H203 5169   7.211   7.157   0.918 -0.1323  0.0693 -0.9640
   14MOL   H204 5170   7.301   6.916   1.045 -0.6177  0.0024 -0.2473
   14MOL   H205 5171   7.386   7.073   1.050 -0.3002  0.5325  0.6720
   14MOL   H206 5172   7.272   7.066   1.265 -2.1221  1.5656  1.2183
   14MOL   H207 5173   7.123   7.013   1.185  0.6297 -0.2095  1.0740
   14MOL   H208 5174   7.097   7.242   1.100  0.9380 -0.3532 -0.7741
   14MOL   H209 5175   7.110   7.234   1.278 -2.7883  0.2767 -0.9867
   14MOL   H210 5176   7.253   7.294   1.188  0.3556  0.1114  1.9837
   14MOL   C211 5177   7.277   7.153   0.632  0.2622 -0.5792  0.1582
   14MOL   C212 5178   7.413   7.198   0.574  0.6627  0.0513 -0.2846
   14MOL   O213 5179   7.381   7.317   0.507 -0.2158  0.0423  0.6268
   14MOL   C214 5180   7.481   7.360   0.412 -0.7953 -0.2011 -0.3689
   14MOL   C215 5181   7.413   7.385   0.278  0.1876  0.1848  0.2093
   14MOL   C216 5182   7.511   7.432   0.169  0.2146  0.0447  0.1235
   14MOL   C217 5183   7.454   7.536   0.077  0.3671 -0.0347  0.8908
   14MOL   H218 5184   7.241   7.228   0.702  1.2175 -1.1436  1.2750
   14MOL   H219 5185   7.208   7.153   0.548 -0.0145  1.3102  0.3585
   14MOL   H220 5186   7.444   7.123   0.502  1.0467 -1.9364  1.8814
   14MOL   H221 5187   7.520   7.456   0.448  0.2946 -0.2888 -1.3069
   14MOL   H222 5188   7.557   7.283   0.400 -0.3402 -0.0500  1.4288
   14MOL   H223 5189   7.350   7.305   0.242 -1.4064  1.4368  0.1476
   14MOL   H224 5190   7.340   7.464   0.297  1.6786  1.2783  1.6832
   14MOL   H225 5191   7.539   7.342   0.113  2.8682 -0.2428  1.8238
   14MOL   H226 5192   7.609   7.463   0.206  0.1814  0.4981 -0.1595
   14MOL   H227 5193   7.426   7.625   0.133  2.1486  0.8984  0.3567
   14MOL   H228 5194   7.359   7.499   0.039  0.8301 -0.4451  0.1249
   14MOL   H229 5195   7.514   7.575   7.796  1.1743 -1.3841  0.8298
   14MOL   C230 5196   7.520   7.234   0.678 -0.4236  0.1707 -0.1987
   14MOL   C231 5197   7.598   7.119   0.733 -0.8706  0.4549 -0.3179
   14MOL   O232 5198   7.712   7.099   0.645  0.2127  0.1966  0.6801
   14MOL   C233 5199   7.705   6.986   0.564 -0.9279 -0.9665 -0.3985
   14MOL   C234 5200   7.797   6.988   0.442 -0.4195 -0.2679 -0.1258
   14MOL   C235 5201   7.759   7.099   0.338  0.3945 -0.4006  0.0611
   14MOL   C236 5202   0.056   7.096   0.216 -0.1385  0.2985  0.1299
   14MOL   H237 5203   7.466   7.271   0.765 -0.5494 -1.4222  0.4018
   14MOL   H238 5204   7.584   7.313   0.638  0.3318  0.0036  0.6806
   14MOL   H239 5205   7.539   7.030   0.750 -0.2208  0.1817  0.5625
   14MOL   H240 5206   7.722   6.897   0.624  0.7561  0.5221  1.4039
   14MOL   H241 5207   7.604   6.966   0.528 -1.2327 -0.2813  0.0612
   14MOL   H242 5208   0.102   6.999   0.461 -0.5874  1.7309 -0.3224
   14MOL   H243 5209   7.782   6.889   0.397 -0.8098  0.1106 -0.8354
   14MOL   H244 5210   7.768   7.197   0.385  1.6405  0.1891 -1.3720
   14MOL   H245 5211   7.652   7.097   0.315  0.4241 -1.9842  0.0024
   14MOL   H246 5212   0.027   7.166   0.138 -2.1052  1.7398  2.0842
   14MOL   H247 5213   0.063   6.998   0.168  1.2557  0.7891 -0.6814
   14MOL   H248 5214   0.151   7.129   0.256 -0.8340  1.5066  0.8249
   14MOL   C249 5215   7.655   7.147   0.876 -0.0115 -0.4321 -0.0719
   14MOL   C250 5216   7.746   7.040   0.942  0.1485 -0.2539 -0.3616
   14MOL   O251 5217   7.672   6.933   0.994 -0.1959 -0.0864  0.1557
   14MOL   C252 5218   7.660   6.815   0.916 -0.5243 -0.1297 -1.0773
   14MOL   C253 5219   7.565   6.714   0.983 -0.2264 -0.4725  0.8856
   14MOL   C254 5220   7.519   6.603   0.883  0.1258  0.2938  0.1612
   14MOL   C255 5221   7.623   6.522   0.811  0.7017  0.1736 -0.1689
   14MOL   H256 5222   7.575   7.173   0.946 -0.5533 -0.2308 -0.7657
   14MOL   H257 5223   7.712   7.240   0.869  2.0066 -1.6659 -0.4318
   14MOL   H258 5224   0.025   7.007   0.878  1.9014 -1.4905  2.3716
   14MOL   H259 5225   7.759   6.777   0.891  0.3218  0.4350  1.2584
   14MOL   H260 5226   7.614   6.846   0.822 -1.3179  1.6907 -0.1154
   14MOL   H261 5227   7.613   6.667   1.068  2.3188 -0.8567 -0.7251
   14MOL   H262 5228   7.479   6.764   1.028  0.3422  0.0738  1.3758
   14MOL   H263 5229   7.451   6.539   0.939  0.9101 -0.5419  0.1726
   14MOL   H264 5230   7.458   6.643   0.802 -3.1011 -0.6348  2.0062
   14MOL   H265 5231   7.682   6.598   0.760 -3.1632  2.9861 -0.6448
   14MOL   H266 5232   7.579   6.454   0.738 -2.1433  0.1550  1.4706
   14MOL   H267 5233   7.688   6.462   0.876 -0.3791 -0.4695  0.3292
   14MOL   C268 5234   0.010   7.110   1.062  0.4088  0.1211  0.2141
   14MOL   C269 5235   0.133   7.037   1.115 -0.1510  0.2508 -0.3883
   14MOL   O270 5236   0.185   7.124   1.214  0.0098 -0.0246 -0.3606
   14MOL   C271 5237   0.311   7.181   1.179  0.0912  0.1729  0.4236
   14MOL   C272 5238   0.363   7.246   1.304 -0.4450  0.1671 -0.3203
   14MOL   C273 5239   0.500   7.304   1.300  0.3176  0.4828  0.1040
   14MOL   C274 5240   0.610   7.212   1.267 -0.6074 -0.0142  0.1164
   14MOL   H275 5241   0.042   7.205   1.020  1.8005 -1.4897 -2.5363
   14MOL   H276 5242   7.735   7.134   1.135  1.6371  0.2034  1.4978
   14MOL   H277 5243   0.210   7.017   1.040 -0.1119  1.0862 -0.5752
   14MOL   H278 5244   0.387   7.108   1.149  0.6759  0.1405  1.9075
   14MOL   H279 5245   0.287   7.251   1.099 -2.9360 -1.0624  0.1778
   14MOL   H280 5246   0.294   7.324   1.336  0.2359  0.7051 -0.1503
   14MOL   H281 5247   0.350   7.173   1.384 -2.0787 -0.1416 -0.8486
   14MOL   H282 5248   0.504   7.352   1.398 -0.8973  0.1681  0.3163
   14MOL   H283 5249   0.501   7.381   1.223 -0.3666  1.8432  1.4388
   14MOL   H284 5250   0.610   7.115   1.316  0.6458  0.5944  1.3692
   14MOL   H285 5251   0.703   7.261   1.296 -0.8358  0.7210 -0.3764
   14MOL   H286 5252   0.614   7.189   1.161  3.0794  1.8163 -0.2220
   14MOL   C287 5253   0.106   6.895   1.171 -0.5599  0.2578  0.1475
   14MOL   C288 5254   0.220   6.812   1.239  0.7410 -0.2135  0.0099
   14MOL   O289 5255   0.207   6.674   1.199  0.2303  0.3960  0.5471
   14MOL   C290 5256   0.294   6.643   1.087  0.4127  0.4273  0.0414
   14MOL   C291 5257   0.247   6.503   1.039 -0.1731  0.0559 -0.0844
   14MOL   C292 5258   0.353   6.431   0.954 -0.1734  0.3336  1.0396
   14MOL   C293 5259   0.393   6.497   0.816 -0.2188 -0.0005 -0.4143
   14MOL   H294 5260   0.069   6.843   1.083 -0.2959  0.7910 -0.2800
   14MOL   H295 5261   0.017   6.904   1.232 -0.4983 -1.2281  0.4931
   14MOL   H296 5262   0.318   6.845   1.204  0.3815 -0.7171 -1.5139
   14MOL   H297 5263   0.302   6.716   1.007  1.0954 -1.3709 -1.5885
   14MOL   H298 5264   0.397   6.626   1.121  0.5654 -0.0075 -0.6261
   14MOL   H299 5265   0.157   6.514   0.979 -0.3823 -1.2768 -0.0268
   14MOL   H300 5266   0.230   6.440   1.126 -0.6192  0.3795  0.0663
   14MOL   H301 5267   0.324   6.327   0.938  1.1492 -0.0806  1.2507
   14MOL   H302 5268   0.450   6.441   1.004  2.0483  0.0641 -3.0241
   14MOL   H303 5269   0.431   6.599   0.825 -3.6596  1.4490 -1.3707
   14MOL   H304 5270   0.474   6.448   0.762  0.0740  0.1000 -0.0620
   14MOL   H305 5271   0.313   6.489   0.742  0.1749 -1.1465 -0.7330
   14MOL   C306 5272   0.216   6.817   1.393  0.1429  0.3556 -0.2577
   14MOL   C307 5273   0.350   6.753   1.445  0.4850  0.1008  0.7179
   14MOL   O308 5274   0.332   6.748   1.583 -0.0123 -0.4807  0.0406
   14MOL   C309 5275   0.307   6.621   1.643  0.9833 -0.4147  0.5906
   14MOL   C310 5276   0.339   6.604   1.790  0.5114 -0.4896 -0.6268
   14MOL   C311 5277   0.226   6.666   1.879 -0.1221 -0.3744  0.7951
   14MOL   C312 5278   0.253   6.649   2.025 -1.2600  0.2657  0.1793
   14MOL   H313 5279   0.213   6.918   1.435  0.0194  0.3067 -0.1507
   14MOL   H314 5280   0.140   6.756   1.440  2.1111 -1.1254  1.0986
   14MOL   H315 5281   0.355   6.652   1.404  0.4188  0.4364 -0.1140
   14MOL   H316 5282   0.366   6.545   1.591  0.9806  0.2130 -0.3423
   14MOL   H317 5283   0.200   6.609   1.625  1.0984  1.4247 -1.5232
   14MOL   H318 5284   0.438   6.643   1.814  0.5345 -0.7849 -0.2448
   14MOL   H319 5285   0.348   6.498   1.813  1.6832 -0.7177 -2.0572
   14MOL   H320 5286   0.217   6.771   1.852 -2.6767 -0.1677  2.3172
   14MOL   H321 5287   0.130   6.623   1.848  0.1399  0.7426 -1.7542
   14MOL   H322 5288   0.330   6.713   2.066 -0.1739 -1.4150  0.8333
   14MOL   H323 5289   0.289   6.548   2.043  1.9156  1.1282 -1.1861
   14MOL   H324 5290   0.160   6.661   2.081 -2.4666 -0.6879 -1.5649
   14MOL   C325 5291   0.487   6.826   1.418  0.0706 -0.3456 -0.7399
   14MOL   C326 5292   0.604   6.722   1.450 -0.3987  0.6782  0.7816
   14MOL   O327 5293   0.610   6.605   1.364 -0.0479 -0.0931  0.0049
   14MOL   C328 5294   0.655   6.485   1.428 -0.3682 -0.7133  0.0913
   14MOL   C329 5295   0.722   6.396   1.319 -0.0617  1.0135  0.4818
   14MOL   C330 5296   0.639   6.369   1.199 -0.3252  0.4391 -0.6283
   14MOL   C331 5297   0.713   6.292   1.087 -0.5712  0.0741 -0.1645
   14MOL   H332 5298   0.493   6.908   1.490 -0.6538  1.3114 -2.5210
   14MOL   H333 5299   0.499   6.864   1.316 -0.2715 -2.5806 -1.6345
   14MOL   H334 5300   0.584   6.692   1.553 -0.6842  1.1003  0.8506
   14MOL   H335 5301   0.566   6.441   1.474 -0.2641 -0.3782  0.6008
   14MOL   H336 5302   0.717   6.503   1.515 -0.4411  1.2238 -0.2466
   14MOL   H337 5303   0.804   6.458   1.282  0.0054  1.0448  0.6851
   14MOL   H338 5304   0.755   6.303   1.365  2.4467  1.6743  0.1046
   14MOL   H339 5305   0.587   6.460   1.172 -4.8862 -1.6075  0.6557
   14MOL   H340 5306   0.557   6.302   1.229  2.7947 -3.5435 -0.5495
   14MOL   H341 5307   0.640   6.277   1.008 -0.0420  0.4747 -0.7353
   14MOL   H342 5308   0.757   6.200   1.126 -1.6029 -0.5215 -0.3878
   14MOL   H343 5309   0.795   6.352   1.048 -0.0833  0.2543  1.1335
   14MOL   C344 5310   0.738   6.792   1.437  0.4676 -0.2737  0.2375
   14MOL   C345 5311   0.781   6.866   1.562 -1.0271  0.1038 -0.6200
   14MOL   O346 5312   0.719   6.991   1.553  0.7909 -0.3690  0.1921
   14MOL   C347 5313   0.712   7.067   1.680 -0.3153 -0.3952 -0.1884
   14MOL   C348 5314   0.618   7.189   1.655 -0.5802 -0.4105  0.6384
   14MOL   C349 5315   0.598   7.271   1.784  0.8998 -0.4621  0.2821
   14MOL   C350 5316   0.719   7.344   1.828  0.3912  0.2981 -0.2272
   14MOL   H351 5317   0.811   6.712   1.423  1.7347  0.6696  1.3425
   14MOL   H352 5318   0.740   6.842   1.340  1.7915  1.6440  1.2146
   14MOL   H353 5319   0.749   6.808   1.648  0.2863 -1.5189 -1.2093
   14MOL   H354 5320   0.809   7.089   1.724  0.5899 -0.9242 -1.8598
   14MOL   H355 5321   0.668   7.008   1.760  0.8799 -1.6048 -0.4002
   14MOL   H356 5322   0.525   7.155   1.611 -1.5025  2.2273  0.4842
   14MOL   H357 5323   0.662   7.241   1.569 -0.8520 -0.6111  0.3765
   14MOL   H358 5324   0.519   7.344   1.769  2.3852  1.1481  0.1032
   14MOL   H359 5325   0.563   7.200   1.859  1.0946 -1.3337 -0.4436
   14MOL   H360 5326   0.688   7.413   1.906 -1.6593  2.4201 -2.8442
   14MOL   H361 5327   0.764   7.399   1.745 -0.4927  0.5157 -0.5675
   14MOL   H362 5328   0.788   7.273   1.874  1.3876  1.2429 -0.2593
   14MOL   C363 5329   0.932   6.874   1.564  0.0051 -0.0557 -0.6295
   14MOL   C364 5330   0.995   6.738   1.609 -0.1711 -0.8337  0.0630
   14MOL   O365 5331   1.136   6.741   1.641  0.2751 -0.0698 -0.3565
   14MOL   C366 5332   1.223   6.705   1.539 -0.7106 -0.7044  0.4606
   14MOL   C367 5333   1.373   6.704   1.570 -0.5628 -0.6971 -0.4234
   14MOL   C368 5334   1.421   6.586   1.662  0.0587 -0.2450  0.1102
   14MOL   C369 5335   1.564   6.584   1.689  0.1432 -0.5636  0.4975
   14MOL   H370 5336   0.960   6.959   1.627 -0.1129  0.9516 -1.9080
   14MOL   H371 5337   0.981   6.911   1.474 -1.4515  1.7274 -0.7143
   14MOL   H372 5338   0.958   6.657   1.545  0.1665  0.5110 -1.8819
   14MOL   H373 5339   1.220   6.780   1.460  2.0537 -0.8830  0.1045
   14MOL   H374 5340   1.193   6.610   1.496 -2.1203 -0.3621  0.6566
   14MOL   H375 5341   1.394   6.802   1.614  0.5396 -1.4824  0.8388
   14MOL   H376 5342   1.431   6.700   1.478 -0.7073  2.6092 -0.7230
   14MOL   H377 5343   1.394   6.486   1.628  1.2710  0.2539 -2.4292
   14MOL   H378 5344   1.371   6.604   1.757  0.6939 -2.0800  0.8237
   14MOL   H379 5345   1.608   6.681   1.710 -1.6921  0.4237 -0.1103
   14MOL   H380 5346   1.587   6.520   1.774  1.3492  0.7870  1.2103
   14MOL   H381 5347   1.621   6.558   1.600 -0.5377 -0.1815 -0.0504
   14MOL   H382 5348   0.950   6.721   1.706  0.3891  1.4310  0.7378
   15MOL     C1 5349   6.565   2.048   2.764  0.2127  0.3028 -0.4281
   15MOL     C2 5350   6.678   2.053   2.655 -0.0187  0.4753  0.6128
   15MOL     O3 5351   6.790   1.985   2.706 -0.0318  0.3585 -0.1670
   15MOL     C4 5352   6.913   2.040   2.658 -0.1203  0.0373 -0.3761
   15MOL     C5 5353   7.012   1.966   2.745 -0.2465  0.3851  0.1931
   15MOL     C6 5354   7.161   1.982   2.694  0.2071  0.5059 -0.3321
   15MOL     C7 5355   7.279   1.956   2.790 -0.0314 -0.0607 -0.1608
   15MOL     H8 5356   6.508   1.955   2.769  0.6770 -0.0852 -2.0102
   15MOL     H9 5357   6.607   2.066   2.863 -0.8910 -1.0324  0.2864
   15MOL    H10 5358   6.692   2.159   2.633 -0.7834  0.3280 -0.6130
   15MOL    H11 5359   6.928   2.008   2.555 -1.1529  0.8581 -0.7959
   15MOL    H12 5360   6.919   2.149   2.667  1.2540 -0.0353 -0.3496
   15MOL    H13 5361   6.984   1.861   2.757 -1.5385  0.6622 -0.3172
   15MOL    H14 5362   7.003   2.019   2.840  0.1349  1.1660 -0.2065
   15MOL    H15 5363   7.178   2.080   2.649 -0.3021  0.1654 -1.2702
   15MOL    H16 5364   7.177   1.913   2.612  0.3044  1.9861 -1.5888
   15MOL    H17 5365   7.276   2.032   2.868  1.1551  1.5937 -1.6797
   15MOL    H18 5366   7.381   1.966   2.753 -0.4282  0.1183 -1.2336
   15MOL    H19 5367   7.264   1.857   2.834 -0.8969  0.8132  1.5714
   15MOL    H20 5368   6.492   2.128   2.750 -1.9415 -0.9745  3.0129
   15MOL    C21 5369   6.634   1.996   2.517  0.2951 -1.0060 -0.4136
   15MOL    C22 5370   6.574   2.096   2.412 -0.0311  0.0335 -0.2742
   15MOL    O23 5371   6.526   2.037   2.289 -0.3131  0.1041  0.3016
   15MOL    C24 5372   6.605   2.051   2.174  0.3985  0.3793 -0.0166
   15MOL    C25 5373   6.529   1.989   2.050 -0.4603 -0.7686 -0.2967
   15MOL    C26 5374   6.409   2.067   1.993  0.5108 -0.2177 -0.1021
   15MOL    C27 5375   6.319   1.986   1.903  0.1376 -0.1518 -0.0087
   15MOL    H28 5376   6.555   1.923   2.535  1.0498 -2.1937 -1.7966
   15MOL    H29 5377   6.721   1.939   2.483 -0.5444 -2.4757 -0.1449
   15MOL    H30 5378   6.649   2.171   2.387  0.1727  0.2470  0.9530
   15MOL    H31 5379   6.692   1.988   2.193 -0.5943 -1.2643 -0.8286
   15MOL    H32 5380   6.629   2.157   2.161 -0.3368  0.5189 -0.2597
   15MOL    H33 5381   6.604   1.985   1.972  0.8511 -0.1262  0.9018
   15MOL    H34 5382   6.504   1.887   2.080 -2.8597 -0.3345 -0.6947
   15MOL    H35 5383   6.358   2.123   2.071 -1.0411 -0.3941 -0.9638
   15MOL    H36 5384   6.442   2.150   1.930 -0.6405  0.3829  0.0611
   15MOL    H37 5385   6.248   1.924   1.957 -0.2856 -0.3274 -0.7589
   15MOL    H38 5386   6.262   2.052   1.837 -1.1388 -0.2750  0.9373
   15MOL    H39 5387   6.387   1.927   1.841 -0.9227  0.2228 -1.5748
   15MOL    C40 5388   6.450   2.180   2.459 -0.1309 -0.2080  0.2608
   15MOL    C41 5389   6.396   2.286   2.358 -0.1212 -0.2836 -0.1062
   15MOL    O42 5390   6.502   2.365   2.308 -0.0591  0.1001  0.2481
   15MOL    C43 5391   6.496   2.396   2.173  0.0973  0.3073 -0.3932
   15MOL    C44 5392   6.611   2.479   2.125  0.7590  0.5053 -0.0194
   15MOL    C45 5393   6.638   2.491   1.973  0.4274  0.5070  0.4990
   15MOL    C46 5394   6.773   2.555   1.939 -0.3677 -0.3390  0.0793
   15MOL    H47 5395   6.487   2.227   2.550 -0.0427  1.7229 -0.7408
   15MOL    H48 5396   6.367   2.114   2.481 -0.7151  0.0246 -1.1878
   15MOL    H49 5397   6.351   2.234   2.273 -0.2719  3.1757 -2.2457
   15MOL    H50 5398   6.397   2.437   2.151 -0.4404 -1.0766 -0.6315
   15MOL    H51 5399   6.499   2.302   2.117  1.1255 -0.5603  1.1005
   15MOL    H52 5400   6.695   2.432   2.175 -0.9158 -0.1753  2.2550
   15MOL    H53 5401   6.591   2.576   2.171  1.2501  0.6098 -0.0232
   15MOL    H54 5402   6.558   2.542   1.920  1.2426  1.8208  0.4998
   15MOL    H55 5403   6.634   2.387   1.941  0.3219  0.4819  0.5922
   15MOL    H56 5404   6.770   2.599   1.839 -0.8409 -0.7177 -0.0771
   15MOL    H57 5405   6.798   2.637   2.006  0.9059 -1.2333  0.6967
   15MOL    H58 5406   6.855   2.483   1.934 -0.1244 -0.2324  2.2643
   15MOL    C59 5407   6.282   2.383   2.404 -0.8098  0.2994 -0.1080
   15MOL    C60 5408   6.312   2.483   2.521 -0.3677  0.3915  0.0621
   15MOL    O61 5409   6.247   2.604   2.494 -0.1421  0.9876  0.2630
   15MOL    C62 5410   6.336   2.700   2.440  0.5784  0.0548  0.3382
   15MOL    C63 5411   6.238   2.795   2.386  0.8393  0.2240  0.6393
   15MOL    C64 5412   6.310   2.906   2.301 -0.2053 -0.1355  1.0082
   15MOL    C65 5413   6.224   3.005   2.223  1.0651 -0.0924  0.5301
   15MOL    H66 5414   6.259   2.436   2.312 -2.5192 -0.2403 -0.0081
   15MOL    H67 5415   6.187   2.334   2.427 -0.7476 -0.1277 -0.7595
   15MOL    H68 5416   6.417   2.506   2.541  0.0176 -0.9388 -0.3795
   15MOL    H69 5417   6.391   2.649   2.361 -0.4616  2.4903 -2.0329
   15MOL    H70 5418   6.401   2.760   2.503  0.4733  2.2665 -1.5724
   15MOL    H71 5419   6.154   2.749   2.333 -0.1884 -1.5273  3.7077
   15MOL    H72 5420   6.186   2.841   2.469  0.2441 -0.9665  0.9404
   15MOL    H73 5421   6.379   2.963   2.363  0.5235  3.0798 -2.5662
   15MOL    H74 5422   6.379   2.861   2.230 -2.2283  1.8598 -2.3640
   15MOL    H75 5423   6.133   3.032   2.275 -0.2768 -1.5037 -1.0098
   15MOL    H76 5424   6.286   3.094   2.211  0.5509  0.2519  0.4521
   15MOL    H77 5425   6.185   2.965   2.129  0.8255  0.7086  0.2860
   15MOL    C78 5426   6.261   2.434   2.657 -0.9012  0.2791  0.5534
   15MOL    C79 5427   6.316   2.514   2.777  0.1186  0.8791  0.0521
   15MOL    O80 5428   6.451   2.537   2.789 -0.3936 -0.1394 -0.0504
   15MOL    C81 5429   6.530   2.418   2.786 -0.4462 -0.0381 -0.2948
   15MOL    C82 5430   6.674   2.458   2.753 -0.3801 -0.5447  0.4419
   15MOL    C83 5431   6.692   2.510   2.609 -0.0564 -0.7024  0.0278
   15MOL    C84 5432   6.832   2.534   2.563  0.2202 -0.1841 -0.1035
   15MOL    H85 5433   6.302   2.334   2.670  0.3250  0.8856  1.5449
   15MOL    H86 5434   6.152   2.437   2.659 -0.9285  3.1750 -2.2173
   15MOL    H87 5435   6.284   2.617   2.764  2.8575  1.6330 -0.9568
   15MOL    H88 5436   6.503   2.332   2.726 -0.0641 -0.6553  0.4089
   15MOL    H89 5437   6.517   2.385   2.889 -3.0191  0.6459 -0.3628
   15MOL    H90 5438   6.707   2.541   2.816 -0.1231 -0.1172 -0.2572
   15MOL    H91 5439   6.741   2.375   2.776 -0.9807 -0.7148  1.5950
   15MOL    H92 5440   6.632   2.598   2.585  1.4195  0.0370 -1.0208
   15MOL    H93 5441   6.661   2.430   2.541 -0.6219  0.3010 -0.9042
   15MOL    H94 5442   6.898   2.453   2.595  1.1690  1.3966  2.0292
   15MOL    H95 5443   6.846   2.563   2.459  0.8486 -0.3368 -0.0653
   15MOL    H96 5444   6.866   2.622   2.617  0.4525 -0.6326  0.4919
   15MOL    C97 5445   6.259   2.471   2.911  0.5405 -0.4881 -0.0263
   15MOL    C98 5446   6.248   2.588   3.014 -0.1040  0.0957 -0.1269
   15MOL    O99 5447   6.163   2.688   2.964 -0.3858 -0.5776 -0.2755
   15MOL   C100 5448   6.180   2.828   2.991  0.0972 -0.5057  0.7584
   15MOL   C101 5449   6.232   2.882   2.858 -0.1894  1.1810 -0.0211
   15MOL   C102 5450   6.269   3.033   2.859 -0.8297  0.8966  0.2346
   15MOL   C103 5451   6.360   3.080   2.743 -0.0890 -0.5723  0.6571
   15MOL   H104 5452   6.340   2.411   2.954  0.3533 -0.2299  0.6972
   15MOL   H105 5453   6.165   2.417   2.905  0.6363 -0.4413 -2.2634
   15MOL   H106 5454   6.351   2.624   3.025  0.4565 -0.6416 -2.5874
   15MOL   H107 5455   6.255   2.860   3.063 -0.0355  1.3423  0.1118
   15MOL   H108 5456   6.085   2.875   3.015 -0.1882 -0.1497 -1.0042
   15MOL   H109 5457   6.160   2.856   2.781  0.7704 -1.7430  0.0014
   15MOL   H110 5458   6.319   2.821   2.833 -0.9551 -0.3423  0.9714
   15MOL   H111 5459   6.330   3.045   2.948  1.3716 -4.7675 -0.2634
   15MOL   H112 5460   6.171   3.080   2.866 -1.5469 -0.7475  1.8633
   15MOL   H113 5461   6.303   3.072   2.651  1.9427 -0.5451 -0.6173
   15MOL   H114 5462   6.404   3.179   2.750 -2.0146  0.3845 -0.2753
   15MOL   H115 5463   6.447   3.014   2.740 -1.0913 -1.9632  1.2734
   15MOL   C116 5464   6.205   2.535   3.152 -0.4837  0.2603  0.0362
   15MOL   C117 5465   6.070   2.463   3.162  0.3853 -0.5139 -0.5756
   15MOL   O118 5466   6.096   2.328   3.141  0.5847  0.1532  0.0641
   15MOL   C119 5467   5.987   2.255   3.076 -0.8868  0.3812 -0.0061
   15MOL   C120 5468   6.043   2.118   3.024 -0.2829  0.1297 -0.2515
   15MOL   C121 5469   6.167   2.127   2.934 -0.3314  0.1019 -0.3455
   15MOL   C122 5470   6.203   2.002   2.867  0.2351  0.1940  0.4200
   15MOL   H123 5471   6.291   2.477   3.186 -0.6353 -0.6550 -1.1049
   15MOL   H124 5472   6.198   2.620   3.219  0.3529  0.0347  0.4151
   15MOL   H125 5473   6.011   2.504   3.080  0.1947 -0.9121 -0.6361
   15MOL   H126 5474   5.957   2.321   2.994  0.6581  2.9900  1.4346
   15MOL   H127 5475   5.902   2.239   3.143 -1.0013 -0.6362 -0.3822
   15MOL   H128 5476   5.964   2.070   2.967 -1.3823  0.1273  1.2545
   15MOL   H129 5477   6.060   2.061   3.116 -2.3820 -1.4719 -0.8115
   15MOL   H130 5478   6.167   2.201   2.853  1.3067  0.2120 -0.2627
   15MOL   H131 5479   6.261   2.152   2.982  0.3386  0.6768 -1.9096
   15MOL   H132 5480   6.243   1.928   2.937 -0.3865 -3.5565 -3.0052
   15MOL   H133 5481   6.282   2.030   2.797 -0.5733 -2.2099 -1.5289
   15MOL   H134 5482   6.119   1.955   2.816  0.7602  0.2538 -0.5009
   15MOL   C135 5483   5.993   2.475   3.295  0.8195 -0.2241  0.4914
   15MOL   C136 5484   5.918   2.605   3.319 -0.6545  0.1798 -0.1324
   15MOL   O137 5485   5.778   2.583   3.324 -0.2441 -0.1139  0.1651
   15MOL   C138 5486   5.707   2.560   3.195  0.7463 -0.2730  0.4177
   15MOL   C139 5487   5.666   2.695   3.132  0.2765 -0.0699  0.9791
   15MOL   C140 5488   5.579   2.678   3.000  0.5863  0.7196  0.3353
   15MOL   C141 5489   5.525   2.811   2.938  0.0061  0.2766 -0.2016
   15MOL   H142 5490   6.064   2.469   3.377 -0.9612 -1.0892  2.0029
   15MOL   H143 5491   5.923   2.392   3.305 -1.6082  1.7482  0.5494
   15MOL   H144 5492   5.940   2.682   3.245  0.7721 -1.4923 -1.5075
   15MOL   H145 5493   5.614   2.505   3.213  0.1321 -0.1342 -2.2238
   15MOL   H146 5494   5.758   2.502   3.118  1.2192  1.0118 -0.2425
   15MOL   H147 5495   5.751   2.760   3.111 -1.7308  1.5036 -2.7593
   15MOL   H148 5496   5.613   2.742   3.215  0.3083  0.0575  0.9268
   15MOL   H149 5497   5.644   2.623   2.932  0.3288  1.1718 -0.2838
   15MOL   H150 5498   5.494   2.616   3.031  1.3830 -0.2755  0.5749
   15MOL   H151 5499   5.612   2.865   2.900  2.7297 -2.1033  2.4187
   15MOL   H152 5500   5.455   2.791   2.857 -1.5943  2.4377  0.5902
   15MOL   H153 5501   5.473   2.868   3.014 -0.5534  1.0239 -1.1333
   15MOL   C154 5502   5.952   2.658   3.459  0.4427  0.1876 -0.1117
   15MOL   C155 5503   6.088   2.717   3.486 -0.4967 -0.4142  0.3355
   15MOL   O156 5504   6.103   2.761   3.615  0.5380  0.3601  0.1826
   15MOL   C157 5505   6.132   2.642   3.698  0.3474 -0.4711 -0.0789
   15MOL   C158 5506   6.157   2.702   3.834  0.3147  0.1935  0.1083
   15MOL   C159 5507   6.294   2.781   3.834 -0.1465 -0.1385  0.0332
   15MOL   C160 5508   6.317   2.871   3.951 -0.2794 -0.8202 -0.0403
   15MOL   H161 5509   5.921   2.584   3.533  0.6264  0.4277  0.2077
   15MOL   H162 5510   5.882   2.736   3.486  1.4789  0.2588  2.5253
   15MOL   H163 5511   6.154   2.633   3.465 -1.2140 -1.0750  0.7143
   15MOL   H164 5512   6.046   2.576   3.699  0.2083 -0.3061 -0.9536
   15MOL   H165 5513   6.215   2.582   3.660 -0.4646 -1.2497 -0.6465
   15MOL   H166 5514   6.170   2.619   3.904 -0.4128 -0.7625 -0.8757
   15MOL   H167 5515   6.070   2.759   3.867 -0.4565 -0.5039 -0.7132
   15MOL   H168 5516   6.376   2.711   3.838  1.0161  1.2294  0.5409
   15MOL   H169 5517   6.319   2.843   3.747  2.3408 -2.1578 -0.7519
   15MOL   H170 5518   6.224   2.929   3.959  0.1559 -0.0578 -0.3866
   15MOL   H171 5519   6.337   2.806   4.035 -0.4162 -1.1219 -0.2385
   15MOL   H172 5520   6.407   2.931   3.938 -1.9508  1.3010 -2.5111
   15MOL   C173 5521   6.120   2.839   3.396  0.3242  0.1547  0.3586
   15MOL   C174 5522   6.269   2.883   3.427 -0.8057  0.0464  0.2739
   15MOL   O175 5523   6.352   2.808   3.337 -0.1051  0.0491 -0.0530
   15MOL   C176 5524   6.482   2.793   3.386  0.0163 -0.2890  0.2140
   15MOL   C177 5525   6.556   2.701   3.283 -0.4075 -1.0505  0.2287
   15MOL   C178 5526   6.562   2.772   3.143 -0.4047 -0.3090 -0.5199
   15MOL   C179 5527   6.626   2.688   3.031 -0.3738 -0.3370 -0.1699
   15MOL   H180 5528   6.048   2.916   3.422 -0.6214 -0.1480 -1.3080
   15MOL   H181 5529   6.109   2.820   3.290  2.6471 -0.7466  0.2436
   15MOL   H182 5530   6.306   2.865   3.528  1.0590 -1.5321 -0.6529
   15MOL   H183 5531   6.493   2.749   3.485  0.5599 -0.1348  0.2249
   15MOL   H184 5532   6.541   2.885   3.387 -0.6966  0.1611  2.0870
   15MOL   H185 5533   6.506   2.606   3.263 -2.5478  0.2594 -0.7773
   15MOL   H186 5534   6.659   2.686   3.316  0.5471  2.2307 -1.0950
   15MOL   H187 5535   6.467   2.802   3.097  1.2060  3.8058 -1.4175
   15MOL   H188 5536   6.621   2.864   3.138  1.2790 -1.3620 -0.3042
   15MOL   H189 5537   6.621   2.747   2.939 -1.4443 -0.3833 -0.1449
   15MOL   H190 5538   6.727   2.656   3.059 -1.4361 -4.3305 -0.5691
   15MOL   H191 5539   6.564   2.601   3.009 -0.3957 -0.3615 -0.0071
   15MOL   C192 5540   6.296   3.036   3.398  0.4261 -0.5322 -0.2417
   15MOL   C193 5541   6.220   3.099   3.273  0.2598  0.1392  0.1269
   15MOL   O194 5542   6.082   3.127   3.296 -0.3118 -0.6358  0.5889
   15MOL   C195 5543   5.999   3.155   3.188  0.0060 -0.4016 -0.4832
   15MOL   C196 5544   5.856   3.208   3.247  0.1094  0.7617  0.2321
   15MOL   C197 5545   5.752   3.203   3.132 -0.3090 -0.4434  0.4441
   15MOL   C198 5546   5.720   3.056   3.094 -0.1364  0.1982  0.2203
   15MOL   H199 5547   6.402   3.047   3.376  0.4279  1.5550  0.7158
   15MOL   H200 5548   6.259   3.085   3.488 -2.1254 -1.2394 -0.8509
   15MOL   H201 5549   6.206   3.014   3.207 -0.0122 -2.6360  3.6565
   15MOL   H202 5550   5.981   3.060   3.138  0.1445 -0.9137  0.4326
   15MOL   H203 5551   6.042   3.227   3.118 -0.1371 -0.8613 -1.0420
   15MOL   H204 5552   5.843   3.140   3.331  0.3855 -1.7726 -1.6953
   15MOL   H205 5553   5.860   3.307   3.292 -2.6864  0.0111  2.2316
   15MOL   H206 5554   5.781   3.264   3.047  1.0831 -1.0269  0.4867
   15MOL   H207 5555   5.660   3.255   3.159 -0.6630 -1.1632  0.6276
   15MOL   H208 5556   5.800   3.005   3.041  0.0580  0.6203  0.1059
   15MOL   H209 5557   5.692   2.992   3.178  2.6912 -0.6273  0.5840
   15MOL   H210 5558   5.646   3.061   3.015  1.8836 -1.7062 -1.8699
   15MOL   C211 5559   6.295   3.213   3.201  0.2935 -0.0763 -0.2013
   15MOL   C212 5560   6.311   3.332   3.290  0.8996 -0.0898  0.1076
   15MOL   O213 5561   6.452   3.364   3.308 -0.3483 -0.3106 -0.0171
   15MOL   C214 5562   6.491   3.408   3.436 -0.5088  0.9672  0.0095
   15MOL   C215 5563   6.636   3.446   3.426  0.6834 -0.2525  0.3922
   15MOL   C216 5564   6.680   3.544   3.317  0.1141  0.0377 -0.3950
   15MOL   C217 5565   6.824   3.574   3.315  0.4753  0.3688 -0.3316
   15MOL   H218 5566   6.265   3.232   3.098 -2.6711 -1.2260  0.4009
   15MOL   H219 5567   6.395   3.174   3.184  0.2596 -0.0161 -0.5473
   15MOL   H220 5568   6.261   3.314   3.386  1.0513 -2.0429 -0.1552
   15MOL   H221 5569   6.430   3.489   3.477  0.1307  0.7053  1.5110
   15MOL   H222 5570   6.473   3.327   3.507  1.8493  0.1611 -0.2881
   15MOL   H223 5571   6.668   3.499   3.516  0.3968  0.0090  0.3431
   15MOL   H224 5572   6.694   3.354   3.422 -0.0027 -0.6608 -0.3134
   15MOL   H225 5573   6.627   3.637   3.337 -2.0083 -1.1789 -0.2280
   15MOL   H226 5574   6.647   3.491   3.228 -0.8149 -0.9715  0.5454
   15MOL   H227 5575   6.856   3.603   3.415  1.2321 -3.9117  0.7698
   15MOL   H228 5576   6.845   3.653   3.244  0.0489  1.5309  0.7997
   15MOL   H229 5577   6.887   3.487   3.296  0.7591  0.7337 -1.0430
   15MOL   C230 5578   6.248   3.449   3.215 -0.7786  0.5161 -0.3811
   15MOL   C231 5579   6.200   3.572   3.296 -0.6224  0.4488 -0.0538
   15MOL   O232 5580   6.153   3.659   3.195  0.0083  0.1423 -0.3273
   15MOL   C233 5581   6.156   3.798   3.225 -0.1672  0.0891 -0.5162
   15MOL   C234 5582   6.112   3.875   3.102  0.6121 -0.1917 -0.5856
   15MOL   C235 5583   5.962   3.864   3.075 -0.4645  0.0765  0.5906
   15MOL   C236 5584   5.916   3.933   2.951  0.2638  1.1746 -0.1874
   15MOL   H237 5585   6.159   3.412   3.164  0.2591  0.8753 -2.4705
   15MOL   H238 5586   6.305   3.494   3.134  0.7905  1.6165  1.3054
   15MOL   H239 5587   6.283   3.623   3.346  1.5480 -0.4282 -2.6227
   15MOL   H240 5588   6.095   3.815   3.314 -0.0066 -0.4499 -0.3003
   15MOL   H241 5589   6.261   3.815   3.248 -0.5836  0.6704  1.0096
   15MOL   H242 5590   6.134   3.980   3.117 -2.3616  0.2579  1.1148
   15MOL   H243 5591   6.166   3.842   3.013  0.2685 -2.5108  0.0325
   15MOL   H244 5592   5.905   3.911   3.155 -0.4953  1.0122  0.0366
   15MOL   H245 5593   5.944   3.758   3.060  1.4527 -0.6031  2.7695
   15MOL   H246 5594   5.935   3.894   2.851 -0.4270 -0.8447  0.4252
   15MOL   H247 5595   5.934   4.040   2.951  0.6253  1.1149 -0.5792
   15MOL   H248 5596   5.810   3.913   2.935  0.6909 -2.9160  1.4667
   15MOL   C249 5597   6.083   3.534   3.404 -0.6793 -0.0866 -0.1592
   15MOL   C250 5598   6.104   3.574   3.552 -0.0353 -0.1974  0.2608
   15MOL   O251 5599   6.197   3.488   3.618 -0.3877 -0.7220 -0.3019
   15MOL   C252 5600   6.270   3.539   3.729  0.4305  0.0445  0.4093
   15MOL   C253 5601   6.342   3.422   3.803 -0.4595  0.5102 -0.2738
   15MOL   C254 5602   6.308   3.407   3.953 -0.2163  0.8123  0.6089
   15MOL   C255 5603   6.379   3.284   4.013  0.3492  0.2222  0.4848
   15MOL   H256 5604   6.084   3.425   3.410  0.9689  0.0497  2.8394
   15MOL   H257 5605   5.987   3.565   3.365 -1.0272 -0.8895  0.0404
   15MOL   H258 5606   6.140   3.676   3.552  1.6762 -0.7862 -0.8175
   15MOL   H259 5607   6.190   3.578   3.792  1.0423  1.2238  0.4738
   15MOL   H260 5608   6.333   3.625   3.707  1.6693 -1.6056 -2.7504
   15MOL   H261 5609   6.301   3.336   3.750  1.9701  0.9421 -2.9642
   15MOL   H262 5610   6.450   3.422   3.787 -0.1272 -0.2248  1.8138
   15MOL   H263 5611   6.343   3.499   3.999 -1.7712  1.8699 -0.2692
   15MOL   H264 5612   6.200   3.393   3.964 -0.1439 -3.1495 -2.2693
   15MOL   H265 5613   6.485   3.279   3.989  0.1249  1.5919 -0.8213
   15MOL   H266 5614   6.322   3.196   3.983  0.2978  0.8374 -1.2562
   15MOL   H267 5615   6.367   3.298   4.121 -2.8919 -0.1032  0.2301
   15MOL   C268 5616   5.970   3.551   3.623  0.7058 -0.4368  0.3883
   15MOL   C269 5617   5.865   3.659   3.602  0.4376 -0.7639 -0.1153
   15MOL   O270 5618   5.733   3.611   3.653  0.1135  0.2965  0.0959
   15MOL   C271 5619   5.671   3.541   3.541  0.4715 -0.0342  0.1277
   15MOL   C272 5620   5.612   3.408   3.589 -0.5450 -0.7014  0.8222
   15MOL   C273 5621   5.531   3.328   3.484 -0.5671 -0.1581  0.7989
   15MOL   C274 5622   5.504   3.183   3.528 -0.1313 -0.7638  0.3914
   15MOL   H275 5623   5.924   3.458   3.588 -2.2147  0.2249  2.3186
   15MOL   H276 5624   5.985   3.527   3.728  0.6221  0.4384  0.6018
   15MOL   H277 5625   5.850   3.695   3.500 -0.6341  0.4172  0.4399
   15MOL   H278 5626   5.578   3.593   3.516 -0.6131 -1.0404  1.9422
   15MOL   H279 5627   5.735   3.527   3.454 -0.9573 -1.4710 -0.7151
   15MOL   H280 5628   5.689   3.340   3.623  0.2332 -1.5359 -2.4236
   15MOL   H281 5629   5.548   3.422   3.676  1.2295  0.1357  2.0194
   15MOL   H282 5630   5.592   3.317   3.395  0.9978 -0.8671  1.9410
   15MOL   H283 5631   5.441   3.379   3.449 -0.6676 -1.7484 -1.3864
   15MOL   H284 5632   5.593   3.122   3.546 -0.4574 -1.1685  0.6287
   15MOL   H285 5633   5.443   3.134   3.451  0.6135  1.5804 -1.7763
   15MOL   H286 5634   5.445   3.176   3.619 -3.0068  0.1748 -1.3421
   15MOL   C287 5635   5.889   3.787   3.683 -0.3344  0.3157  0.2829
   15MOL   C288 5636   5.821   3.917   3.634 -0.3240 -0.5526  0.1133
   15MOL   O289 5637   5.904   4.027   3.672 -0.1082  0.4200  0.3510
   15MOL   C290 5638   5.992   4.072   3.573  0.0993  0.3038 -0.3777
   15MOL   C291 5639   6.098   4.168   3.634  0.0470 -0.2221  0.1094
   15MOL   C292 5640   6.172   4.255   3.534  0.0903  0.7265 -0.2368
   15MOL   C293 5641   6.249   4.378   3.597  0.3396  0.0212 -0.1347
   15MOL   H294 5642   5.993   3.812   3.663 -0.6464  1.7020  0.3529
   15MOL   H295 5643   5.875   3.772   3.790  1.0843 -1.5263  0.2338
   15MOL   H296 5644   5.809   3.912   3.526 -1.0031  1.8104  0.0564
   15MOL   H297 5645   6.035   4.000   3.504  0.7959  0.3848 -0.0434
   15MOL   H298 5646   5.928   4.130   3.506 -1.7800 -1.9617 -0.5757
   15MOL   H299 5647   6.167   4.105   3.690 -0.9637 -1.4036  0.0445
   15MOL   H300 5648   6.062   4.234   3.712 -0.7466 -0.0865 -0.3722
   15MOL   H301 5649   6.101   4.308   3.470  0.8276  3.7058  1.3040
   15MOL   H302 5650   6.239   4.194   3.474  0.3361 -1.4579  2.1804
   15MOL   H303 5651   6.176   4.455   3.620  1.9569  1.1241  1.4610
   15MOL   H304 5652   6.316   4.357   3.680  1.3192 -1.4010 -1.2611
   15MOL   H305 5653   6.303   4.417   3.511  1.0508 -1.9765 -0.6331
   15MOL   C306 5654   5.673   3.941   3.678  0.7968 -0.7491  0.3101
   15MOL   C307 5655   5.589   4.047   3.599 -0.0028 -0.1426  0.2065
   15MOL   O308 5656   5.475   4.081   3.676 -0.2199 -0.0903  0.3019
   15MOL   C309 5657   5.474   4.197   3.748  0.7519  0.2737 -0.4106
   15MOL   C310 5658   5.349   4.202   3.835  0.7199 -0.2727 -0.7924
   15MOL   C311 5659   5.362   4.094   3.947 -0.0902 -0.3016 -0.0092
   15MOL   C312 5660   5.260   4.091   4.063 -0.8498  0.3080 -0.9392
   15MOL   H313 5661   5.607   3.854   3.680  0.7194 -0.7350 -1.0420
   15MOL   H314 5662   5.672   3.969   3.784 -0.0268 -2.1285  0.6767
   15MOL   H315 5663   5.656   4.132   3.588  0.6595 -0.5240  1.2336
   15MOL   H316 5664   5.480   4.287   3.687 -1.5661  0.8656  0.1971
   15MOL   H317 5665   5.555   4.209   3.820  0.2262 -0.2175  0.2742
   15MOL   H318 5666   5.261   4.186   3.772  1.8765 -2.7954 -1.8498
   15MOL   H319 5667   5.342   4.300   3.881 -1.1370 -0.9578  0.4180
   15MOL   H320 5668   5.362   3.999   3.894 -2.0963 -0.7517  0.7521
   15MOL   H321 5669   5.460   4.117   3.988  0.4952  0.3369 -1.6991
   15MOL   H322 5670   5.175   4.030   4.032 -0.2076 -2.5354  2.5748
   15MOL   H323 5671   5.232   4.188   4.104 -0.6202  0.1398 -0.3863
   15MOL   H324 5672   5.300   4.038   4.149 -0.7947  1.1859 -0.4213
   15MOL   C325 5673   5.526   4.007   3.466  0.2835  0.2406 -0.5019
   15MOL   C326 5674   5.491   4.129   3.376  0.3580 -0.6155  0.2819
   15MOL   O327 5675   5.566   4.103   3.257 -0.2468 -0.1027  0.2317
   15MOL   C328 5676   5.708   4.131   3.258 -0.2318 -0.0966  0.4385
   15MOL   C329 5677   5.735   4.286   3.259 -0.2459 -0.1388 -0.0125
   15MOL   C330 5678   5.878   4.326   3.194  0.2725  0.1256  0.1026
   15MOL   C331 5679   5.896   4.481   3.188 -0.9876  0.6808 -0.4961
   15MOL   H332 5680   5.446   3.933   3.478 -1.3488  1.8931 -0.8916
   15MOL   H333 5681   5.604   3.950   3.417  0.3698  1.3284 -1.6430
   15MOL   H334 5682   5.532   4.217   3.424  0.9162 -1.1422  0.7819
   15MOL   H335 5683   5.740   4.090   3.163 -1.5449  0.6428 -0.3348
   15MOL   H336 5684   5.764   4.076   3.333  1.0813 -0.8109 -1.0576
   15MOL   H337 5685   5.655   4.321   3.193  2.4704  0.7351 -2.9429
   15MOL   H338 5686   5.710   4.329   3.356 -0.5108 -0.1727 -0.0640
   15MOL   H339 5687   5.880   4.270   3.100  0.5090 -3.9012  2.3852
   15MOL   H340 5688   5.955   4.282   3.257  0.2395  0.6439  0.5089
   15MOL   H341 5689   5.806   4.535   3.161 -0.0436  1.2942 -2.4668
   15MOL   H342 5690   5.988   4.510   3.136 -0.8555 -0.6387 -1.0123
   15MOL   H343 5691   5.918   4.507   3.292 -4.2251 -0.8163  0.6414
   15MOL   C344 5692   5.333   4.149   3.361 -0.4680 -0.1914 -0.2644
   15MOL   C345 5693   5.283   4.251   3.264  0.8306  0.4781  0.0375
   15MOL   O346 5694   5.319   4.378   3.321 -0.4526  0.0144  0.2657
   15MOL   C347 5695   5.384   4.461   3.232  0.0268  0.1847 -0.5569
   15MOL   C348 5696   5.469   4.563   3.315  0.0235 -0.2843 -0.2039
   15MOL   C349 5697   5.538   4.660   3.221 -0.1208 -0.1581 -0.1974
   15MOL   C350 5698   5.607   4.774   3.298 -0.1707  0.4704  0.0245
   15MOL   H351 5699   5.286   4.056   3.331 -1.6302  0.4138 -0.3476
   15MOL   H352 5700   5.302   4.166   3.464  1.9801 -2.4138  0.9083
   15MOL   H353 5701   5.339   4.232   3.172 -0.4127  2.2108 -1.1023
   15MOL   H354 5702   5.310   4.510   3.169 -1.2473  3.1668  3.0844
   15MOL   H355 5703   5.449   4.414   3.158 -0.3027  0.4037 -0.9888
   15MOL   H356 5704   5.537   4.505   3.377 -0.2435  0.9597  1.2928
   15MOL   H357 5705   5.419   4.623   3.390  2.3973 -0.7154  1.7867
   15MOL   H358 5706   5.608   4.598   3.164  0.3863  0.8696 -0.7162
   15MOL   H359 5707   5.469   4.707   3.151  0.0561 -1.8790 -1.5745
   15MOL   H360 5708   5.639   4.852   3.230 -1.0977 -0.6011 -1.6817
   15MOL   H361 5709   5.695   4.729   3.345 -2.0972 -1.0968  2.3034
   15MOL   H362 5710   5.546   4.811   3.381 -0.7005 -1.1801  0.3967
   15MOL   C363 5711   5.127   4.239   3.247 -0.4118 -0.7614 -0.0129
   15MOL   C364 5712   5.058   4.282   3.375  0.1546  0.3103 -0.5767
   15MOL   O365 5713   4.915   4.275   3.349 -0.3342  0.0732 -0.7790
   15MOL   C366 5714   4.855   4.145   3.362 -0.1740  0.1456  0.8834
   15MOL   C367 5715   4.705   4.146   3.350  0.1327 -0.7823  0.3699
   15MOL   C368 5716   4.655   4.189   3.211  0.2585  0.3188  0.3404
   15MOL   C369 5717   4.503   4.205   3.177  0.3604  0.5788  0.0069
   15MOL   H370 5718   5.096   4.144   3.204 -0.0761  0.1483 -2.3645
   15MOL   H371 5719   5.088   4.303   3.168  0.1918 -0.0340  0.2694
   15MOL   H372 5720   5.076   4.383   3.413 -3.1190  0.6175  0.2794
   15MOL   H373 5721   4.879   4.089   3.452 -0.8741 -1.2109  0.2435
   15MOL   H374 5722   4.889   4.077   3.284 -0.2279 -0.0431  1.0241
   15MOL   H375 5723   4.661   4.214   3.423 -1.5784 -0.5613 -0.8160
   15MOL   H376 5724   4.671   4.046   3.375 -0.3240 -0.4978  0.9218
   15MOL   H377 5725   4.704   4.125   3.138  0.3392  1.4985 -0.6596
   15MOL   H378 5726   4.693   4.289   3.190  0.9199 -0.2585 -1.2336
   15MOL   H379 5727   4.454   4.108   3.183 -0.1216  0.7769 -0.6359
   15MOL   H380 5728   4.459   4.284   3.237  0.4097  2.5358 -2.4428
   15MOL   H381 5729   4.486   4.233   3.073  1.2581 -0.4120 -0.4128
   15MOL   H382 5730   5.089   4.215   3.455 -0.8457  0.3974 -0.1140
   16MOL     C1 5731   0.050   0.767   3.291  0.1459  0.5595  0.0431
   16MOL     C2 5732   0.137   0.898   3.280 -0.4695  0.2383 -0.3660
   16MOL     O3 5733   0.273   0.881   3.288 -0.1101  0.2968  0.1212
   16MOL     C4 5734   0.343   0.963   3.385 -0.5193  0.3339  0.0075
   16MOL     C5 5735   0.494   0.924   3.382 -0.7813  0.0808 -0.1841
   16MOL     C6 5736   0.581   1.020   3.458  0.3415 -0.9391  0.0105
   16MOL     C7 5737   0.721   0.997   3.404 -0.0624 -0.2624 -0.1506
   16MOL     H8 5738   7.744   0.782   3.279  0.2044 -0.1322 -1.4582
   16MOL     H9 5739   0.072   0.699   3.209 -0.8904  2.0390 -1.5004
   16MOL    H10 5740   0.106   0.957   3.366 -0.4637  1.2432 -1.0350
   16MOL    H11 5741   0.334   1.069   3.363 -0.5442  0.1807 -0.7144
   16MOL    H12 5742   0.317   0.946   3.489  1.0184  0.7272  0.4773
   16MOL    H13 5743   0.525   0.929   3.278  3.8503 -2.6721  0.9592
   16MOL    H14 5744   0.514   0.825   3.423 -0.4648 -0.5857 -1.8836
   16MOL    H15 5745   0.579   0.997   3.565 -2.1196  0.2120  0.2555
   16MOL    H16 5746   0.539   1.120   3.450  1.4193 -0.5749 -1.0179
   16MOL    H17 5747   0.798   1.056   3.453 -0.2565 -0.5016  0.4532
   16MOL    H18 5748   0.728   1.011   3.296  0.1158 -1.3405 -0.2932
   16MOL    H19 5749   0.771   0.903   3.430  1.3978  0.6821  0.5143
   16MOL    H20 5750   0.061   0.716   3.387  0.4647  0.1936 -0.1849
   16MOL    C21 5751   0.119   0.983   3.150 -0.5325  0.1327  0.6540
   16MOL    C22 5752   7.787   1.063   3.129  0.2587 -0.1246  0.0210
   16MOL    O23 5753   7.676   0.977   3.152 -0.3569 -0.0138  0.2582
   16MOL    C24 5754   7.642   0.904   3.033  0.0146 -0.4986 -0.0751
   16MOL    C25 5755   7.564   0.774   3.078  0.4479 -0.4691  0.4838
   16MOL    C26 5756   7.482   0.729   2.958  0.6502  0.5566 -0.4117
   16MOL    C27 5757   7.372   0.830   2.914 -0.6731 -0.1239 -0.4472
   16MOL    H28 5758   0.156   0.926   3.064  0.4788 -0.1575  1.2738
   16MOL    H29 5759   0.196   1.060   3.151  0.2950 -0.6128 -1.6033
   16MOL    H30 5760   7.799   1.101   3.027  2.6274 -1.0400 -0.0935
   16MOL    H31 5761   7.725   0.881   2.968 -0.6439 -1.1416 -0.6978
   16MOL    H32 5762   7.578   0.971   2.975 -0.0347 -0.8187 -0.3901
   16MOL    H33 5763   7.641   0.698   3.090 -0.3757 -1.9197 -2.6811
   16MOL    H34 5764   7.501   0.799   3.163 -1.9662 -0.0185 -1.3745
   16MOL    H35 5765   7.543   0.699   2.873  1.4148 -0.6258  0.5419
   16MOL    H36 5766   7.428   0.639   2.989  1.1483  0.3972  0.0077
   16MOL    H37 5767   7.301   0.774   2.853  0.2383 -1.3906 -0.3636
   16MOL    H38 5768   7.331   0.879   3.002  0.0985 -1.1846  0.5192
   16MOL    H39 5769   7.408   0.903   2.841  3.2215 -2.0452 -0.5642
   16MOL    C40 5770   7.778   1.184   3.219 -0.5251  0.0383  0.4080
   16MOL    C41 5771   7.647   1.266   3.193 -0.6740 -0.1082 -0.9264
   16MOL    O42 5772   7.668   1.367   3.092  0.7444 -0.0353 -0.1712
   16MOL    C43 5773   7.615   1.334   2.964  0.6196 -0.5940 -0.6453
   16MOL    C44 5774   7.666   1.431   2.861 -0.7124  1.0011  0.6973
   16MOL    C45 5775   0.018   1.439   2.852  0.7341 -0.8751 -0.6395
   16MOL    C46 5776   0.080   1.562   2.918 -0.1858  0.0808 -0.3358
   16MOL    H47 5777   0.058   1.253   3.197 -0.7548  0.8024  1.8632
   16MOL    H48 5778   7.796   1.142   3.318  0.4208 -0.8295 -0.1184
   16MOL    H49 5779   7.570   1.198   3.156  1.0716 -3.5200  1.4234
   16MOL    H50 5780   7.506   1.326   2.956  0.4259  0.2820  1.0231
   16MOL    H51 5781   7.651   1.234   2.939  2.7655 -0.0078  0.0420
   16MOL    H52 5782   7.627   1.532   2.865 -0.6677  1.0309  0.4125
   16MOL    H53 5783   7.632   1.391   2.765  0.5774  0.9349  0.2535
   16MOL    H54 5784   0.048   1.430   2.748  0.0970  5.1223 -1.5352
   16MOL    H55 5785   0.065   1.359   2.909 -0.6123  0.5080  2.5278
   16MOL    H56 5786   0.044   1.653   2.871  0.5216  0.2700 -0.5173
   16MOL    H57 5787   0.074   1.579   3.026 -0.0896 -1.0182 -0.1473
   16MOL    H58 5788   0.187   1.562   2.896  0.4086  1.3135  2.3585
   16MOL    C59 5789   7.597   1.345   3.322  0.7968  0.0010 -0.5970
   16MOL    C60 5790   7.524   1.262   3.428  0.6596 -1.4146  0.1117
   16MOL    O61 5791   7.633   1.184   3.492 -0.0328 -0.5716  0.4607
   16MOL    C62 5792   7.598   1.049   3.516 -0.1148 -0.6001 -0.0048
   16MOL    C63 5793   7.712   0.979   3.596  0.2234 -0.8251  0.3453
   16MOL    C64 5794   7.667   0.833   3.596 -0.0255 -0.6261 -0.3322
   16MOL    C65 5795   7.547   0.800   3.694  0.5231 -0.1933  0.7000
   16MOL    H66 5796   7.669   1.417   3.362  0.7139 -0.1653 -0.1461
   16MOL    H67 5797   7.510   1.402   3.287 -0.5134 -1.5501  0.0785
   16MOL    H68 5798   7.456   1.192   3.380 -1.7361 -0.8886  2.6725
   16MOL    H69 5799   7.584   1.008   3.417 -1.4898  0.7761 -0.4089
   16MOL    H70 5800   7.506   1.046   3.573  0.3046 -0.4113  0.6951
   16MOL    H71 5801   0.005   1.003   3.546  0.0680  0.2530  0.5449
   16MOL    H72 5802   7.709   1.025   3.694  0.3701  1.0863 -0.5167
   16MOL    H73 5803   7.650   0.793   3.496  1.6321  0.9638 -1.2854
   16MOL    H74 5804   7.748   0.775   3.639  0.3405  0.7248  0.8374
   16MOL    H75 5805   7.532   0.692   3.692 -0.1352 -0.1039  0.6662
   16MOL    H76 5806   7.572   0.841   3.792  1.1989  0.4020  0.2858
   16MOL    H77 5807   7.454   0.845   3.659  0.8199 -0.1118  0.0035
   16MOL    C78 5808   7.457   1.343   3.538 -0.6212  0.1256  0.1599
   16MOL    C79 5809   7.325   1.401   3.479  0.1181 -0.1880 -0.3354
   16MOL    O80 5810   7.315   1.532   3.528 -0.2830 -0.2598 -0.0408
   16MOL    C81 5811   7.368   1.629   3.439  0.2869 -0.2022  0.1236
   16MOL    C82 5812   7.359   1.771   3.503 -1.0765 -0.1255 -1.0732
   16MOL    C83 5813   7.221   1.816   3.518 -0.8252  0.4639 -0.2024
   16MOL    C84 5814   7.138   1.853   3.397  0.5081 -0.0278  0.0771
   16MOL    H85 5815   7.521   1.420   3.582 -0.5675 -1.0265  2.1850
   16MOL    H86 5816   7.436   1.278   3.623  1.1150 -0.8391 -0.1246
   16MOL    H87 5817   7.323   1.399   3.370  1.7732 -0.3135 -0.3881
   16MOL    H88 5818   7.307   1.629   3.349 -0.0845 -0.5695  0.3749
   16MOL    H89 5819   7.472   1.610   3.415  0.7813 -1.9005  3.3011
   16MOL    H90 5820   7.409   1.766   3.600  0.2962  0.8109 -1.7075
   16MOL    H91 5821   7.417   1.837   3.439  0.5380 -0.1680  0.3044
   16MOL    H92 5822   7.228   1.905   3.579  2.9347 -0.5387  0.9893
   16MOL    H93 5823   7.166   1.743   3.577 -0.6431 -0.1013 -0.7294
   16MOL    H94 5824   7.118   1.764   3.338  3.6162  0.1371 -1.3487
   16MOL    H95 5825   7.051   1.903   3.439  1.1152  1.8259 -0.8134
   16MOL    H96 5826   7.200   1.918   3.335  0.4267 -0.8919 -0.9360
   16MOL    C97 5827   7.204   1.324   3.531  0.1731 -0.3504  0.2552
   16MOL    C98 5828   7.064   1.386   3.499  0.2633 -0.0458  0.4202
   16MOL    O99 5829   6.996   1.314   3.392  0.2528  0.2606 -0.5475
   16MOL   C100 5830   7.056   1.351   3.267  0.1127 -0.2833  0.3643
   16MOL   C101 5831   6.960   1.287   3.161  0.4521  0.0157 -0.4043
   16MOL   C102 5832   6.824   1.365   3.170 -0.4952 -0.3792  0.3586
   16MOL   C103 5833   6.717   1.303   3.088  0.0928  0.2615  0.7183
   16MOL   H104 5834   7.212   1.310   3.639 -3.3573 -0.4150  0.5618
   16MOL   H105 5835   7.210   1.220   3.497  1.3313 -0.9912  2.3387
   16MOL   H106 5836   7.085   1.490   3.475  0.3454 -0.2399 -0.3440
   16MOL   H107 5837   7.159   1.316   3.255  0.3943 -0.0304  1.9649
   16MOL   H108 5838   7.064   1.458   3.251 -2.4473  0.3672  3.0541
   16MOL   H109 5839   6.934   1.182   3.175 -2.0942  0.0295 -4.3577
   16MOL   H110 5840   6.997   1.299   3.059  2.0014 -0.3013  0.1008
   16MOL   H111 5841   6.853   1.467   3.143  1.7783 -1.0867 -0.0229
   16MOL   H112 5842   6.799   1.373   3.275 -1.4976  0.0468  0.0887
   16MOL   H113 5843   6.731   1.306   2.980 -0.5618  0.6986  0.6468
   16MOL   H114 5844   6.683   1.205   3.121  0.7337  0.3274  1.5755
   16MOL   H115 5845   6.627   1.363   3.096 -0.1198  0.1973 -1.0219
   16MOL   C116 5846   6.968   1.380   3.621 -0.0175  0.4252 -0.7295
   16MOL   C117 5847   6.827   1.439   3.593  0.0109  0.3252  0.0519
   16MOL   O118 5848   6.777   1.475   3.728  0.9004  0.0769 -0.0036
   16MOL   C119 5849   6.685   1.380   3.777  0.1741  0.4031 -0.8123
   16MOL   C120 5850   6.661   1.415   3.920  0.8202 -0.0323  0.3983
   16MOL   C121 5851   6.561   1.528   3.941 -0.2038  0.6866  0.2231
   16MOL   C122 5852   6.531   1.556   4.088 -0.5778 -0.3490  0.4886
   16MOL   H123 5853   6.967   1.272   3.636  1.1522  0.4944 -0.0709
   16MOL   H124 5854   7.020   1.422   3.707 -1.3899  0.2442  0.2082
   16MOL   H125 5855   6.770   1.361   3.542  1.2133  0.3812 -1.3944
   16MOL   H126 5856   6.722   1.278   3.765  1.1685  0.8188 -1.3988
   16MOL   H127 5857   6.587   1.383   3.731 -0.6239 -2.4242  0.5696
   16MOL   H128 5858   6.755   1.428   3.973  1.9908  1.6206 -2.0021
   16MOL   H129 5859   6.620   1.326   3.968  1.7974 -1.6051 -1.6031
   16MOL   H130 5860   6.589   1.618   3.885  1.3777 -1.0814 -1.9285
   16MOL   H131 5861   6.466   1.506   3.893  1.6873 -0.4409 -3.1536
   16MOL   H132 5862   6.614   1.608   4.135 -1.4777  2.2891 -0.7196
   16MOL   H133 5863   6.509   1.462   4.140 -0.8171 -1.0596 -0.8714
   16MOL   H134 5864   6.452   1.630   4.100 -2.1043 -1.5446 -1.7738
   16MOL   C135 5865   6.825   1.571   3.516  0.2498 -0.8514 -0.2586
   16MOL   C136 5866   6.681   1.631   3.501 -0.1999 -0.0920 -0.2752
   16MOL   O137 5867   6.689   1.768   3.458 -0.3680  0.2514 -0.3650
   16MOL   C138 5868   6.729   1.860   3.565  0.0650  0.0054 -0.2032
   16MOL   C139 5869   6.689   1.994   3.515  0.4282  0.0024 -0.5150
   16MOL   C140 5870   6.760   2.112   3.588  0.2767 -0.3563 -0.5308
   16MOL   C141 5871   6.906   2.133   3.568 -0.0345 -0.6349 -0.4110
   16MOL   H142 5872   6.867   1.555   3.417  0.7111  2.2818 -0.6188
   16MOL   H143 5873   6.873   1.646   3.580 -0.9939  0.8863 -1.3188
   16MOL   H144 5874   6.634   1.624   3.598 -0.1589  1.7426 -0.1134
   16MOL   H145 5875   6.838   1.852   3.570  0.1371 -0.4306 -2.2983
   16MOL   H146 5876   6.680   1.837   3.660  0.6895  2.3450  0.7329
   16MOL   H147 5877   6.582   2.012   3.505 -0.2938 -3.4917  0.3319
   16MOL   H148 5878   6.719   1.999   3.410  2.3534  1.4483  0.0817
   16MOL   H149 5879   6.705   2.195   3.544  0.6075 -0.1700 -0.5984
   16MOL   H150 5880   6.743   2.118   3.695  0.5776  0.5446 -0.5278
   16MOL   H151 5881   6.930   2.232   3.609  0.6020 -0.5769 -0.9125
   16MOL   H152 5882   6.973   2.058   3.608 -1.4430 -1.8388 -0.2793
   16MOL   H153 5883   6.937   2.132   3.464 -0.4296 -0.0048 -0.5414
   16MOL   C154 5884   6.609   1.561   3.386 -0.1121 -0.0579  0.6650
   16MOL   C155 5885   6.457   1.605   3.368 -0.8542 -0.4946  0.0916
   16MOL   O156 5886   6.375   1.530   3.466 -0.0884 -0.5260  0.2745
   16MOL   C157 5887   6.338   1.616   3.576  0.7889 -0.1644 -0.6421
   16MOL   C158 5888   6.255   1.516   3.664 -0.7105 -0.2001  0.3108
   16MOL   C159 5889   6.108   1.497   3.619  0.4672 -0.1697 -0.0513
   16MOL   C160 5890   6.009   1.608   3.661  0.4520 -0.0949 -0.2557
   16MOL   H161 5891   6.603   1.454   3.404 -3.6131  0.7142  5.2468
   16MOL   H162 5892   6.658   1.591   3.293  0.5216  0.0948  1.0479
   16MOL   H163 5893   6.460   1.714   3.377 -0.7814 -0.3790 -1.2276
   16MOL   H164 5894   6.426   1.670   3.613  1.3504 -0.4339 -1.5531
   16MOL   H165 5895   6.270   1.694   3.543  0.9280  0.3558  0.2890
   16MOL   H166 5896   6.253   1.556   3.766  0.3878  2.0454 -0.5163
   16MOL   H167 5897   6.306   1.420   3.671  3.8149  1.8864 -1.8391
   16MOL   H168 5898   6.107   1.488   3.510  0.4907 -2.7067  0.1324
   16MOL   H169 5899   6.079   1.398   3.654  2.0321 -0.7756 -0.4189
   16MOL   H170 5900   6.047   1.708   3.641  0.3914  0.1564  0.8430
   16MOL   H171 5901   5.917   1.602   3.602  0.5869  1.1983 -0.6015
   16MOL   H172 5902   5.990   1.600   3.768  1.2132  0.2161 -0.0928
   16MOL   C173 5903   6.404   1.565   3.233  0.1457  0.3597  0.1692
   16MOL   C174 5904   6.279   1.642   3.181  0.2806  0.4190 -0.5115
   16MOL   O175 5905   6.315   1.778   3.149  0.7977 -0.5940 -0.4296
   16MOL   C176 5906   6.265   1.876   3.241  0.8413 -0.2797  0.4752
   16MOL   C177 5907   6.379   1.985   3.221  0.1391  0.5939 -0.1534
   16MOL   C178 5908   6.359   2.103   3.317 -0.0117 -0.4501 -0.1938
   16MOL   C179 5909   6.444   2.219   3.277 -0.9153  0.2492  0.7838
   16MOL   H180 5910   6.369   1.463   3.245 -1.6506  0.5738 -2.7534
   16MOL   H181 5911   6.484   1.571   3.160 -0.4992  0.4262 -0.5361
   16MOL   H182 5912   6.193   1.646   3.248  1.2457  0.5867  0.7424
   16MOL   H183 5913   6.254   1.838   3.342 -0.0828 -1.2049  0.0379
   16MOL   H184 5914   6.164   1.902   3.208  1.1806  0.3193 -0.0965
   16MOL   H185 5915   6.375   2.018   3.117  2.9367 -0.1760 -0.5585
   16MOL   H186 5916   6.475   1.937   3.241 -0.4674 -0.0806  1.2044
   16MOL   H187 5917   6.256   2.137   3.313  0.3487  0.8824  1.3958
   16MOL   H188 5918   6.376   2.075   3.421 -0.9200  1.8378  0.6097
   16MOL   H189 5919   6.452   2.227   3.169  1.2140 -3.5485  0.5945
   16MOL   H190 5920   6.424   2.321   3.313  2.4736  0.3516  2.6575
   16MOL   H191 5921   6.542   2.206   3.323 -1.2850  1.1824  1.8599
   16MOL   C192 5922   6.228   1.604   3.044  1.0350 -0.0193 -0.0162
   16MOL   C193 5923   6.160   1.464   3.043  0.2050 -0.7080  0.8168
   16MOL   O194 5924   6.043   1.474   3.127 -0.1128  0.0784  0.2202
   16MOL   C195 5925   6.019   1.355   3.196  0.4913 -0.3757 -0.4836
   16MOL   C196 5926   5.873   1.349   3.258  0.2578 -0.7785 -0.6241
   16MOL   C197 5927   5.769   1.426   3.165 -1.1297 -0.2154 -0.3979
   16MOL   C198 5928   5.758   1.339   3.036 -0.5190 -0.5395  0.2903
   16MOL   H199 5929   6.313   1.603   2.976  1.6741 -0.8433  0.7806
   16MOL   H200 5930   6.157   1.682   3.018 -0.3785 -1.1565  0.3244
   16MOL   H201 5931   6.224   1.384   3.080  0.4807 -0.3250  1.1768
   16MOL   H202 5932   6.089   1.342   3.279 -0.9463  1.0561  0.9922
   16MOL   H203 5933   6.028   1.261   3.143  0.0149 -1.0234  0.5693
   16MOL   H204 5934   5.826   1.254   3.285 -1.5719  0.0663 -0.7696
   16MOL   H205 5935   5.866   1.403   3.352 -1.2464  1.6371 -2.0809
   16MOL   H206 5936   5.800   1.529   3.146  0.7443 -0.3608  1.6401
   16MOL   H207 5937   5.676   1.431   3.220 -0.3802 -1.4470  1.0284
   16MOL   H208 5938   5.843   1.341   2.969 -0.6709  1.7322  0.1298
   16MOL   H209 5939   5.745   1.232   3.055  2.9712 -1.0159  0.2562
   16MOL   H210 5940   5.673   1.364   2.973 -0.9722 -0.0026  1.1031
   16MOL   C211 5941   6.119   1.435   2.900  1.0825 -0.2554 -1.0677
   16MOL   C212 5942   6.229   1.416   2.793  0.0384  0.6838 -0.4106
   16MOL   O213 5943   6.329   1.325   2.835 -0.7047 -0.3272  0.4214
   16MOL   C214 5944   6.305   1.184   2.844  0.3285  0.0712  0.6984
   16MOL   C215 5945   6.418   1.122   2.927 -0.5135  0.1717 -0.0945
   16MOL   C216 5946   6.375   0.984   2.983  0.0085  0.3451  0.0060
   16MOL   C217 5947   6.500   0.921   3.048 -0.3047  0.6825 -0.2832
   16MOL   H218 5948   6.050   1.509   2.860 -0.8709 -1.9887 -1.0325
   16MOL   H219 5949   6.066   1.340   2.908 -0.0860  0.5364  0.7113
   16MOL   H220 5950   6.277   1.513   2.784  1.2036  0.1125 -0.4399
   16MOL   H221 5951   6.209   1.171   2.894 -0.3436 -0.6714 -0.7507
   16MOL   H222 5952   6.290   1.137   2.747  0.3751  0.2806  0.5901
   16MOL   H223 5953   6.512   1.099   2.877 -1.2078  1.1238 -1.8781
   16MOL   H224 5954   6.441   1.174   3.020 -1.8873  0.9510 -0.1683
   16MOL   H225 5955   6.346   0.923   2.898 -1.8235  0.1266  0.7742
   16MOL   H226 5956   6.289   0.986   3.049 -0.3790  0.0343 -0.4881
   16MOL   H227 5957   6.590   0.948   2.992 -0.8216 -1.0365 -1.9962
   16MOL   H228 5958   6.489   0.813   3.043  1.4439  0.5510 -2.3194
   16MOL   H229 5959   6.512   0.953   3.152  2.0565 -0.4116 -0.1914
   16MOL   C230 5960   6.179   1.384   2.653 -0.3045 -0.2466 -0.4433
   16MOL   C231 5961   6.090   1.497   2.593  0.2757 -0.8642 -0.1329
   16MOL   O232 5962   6.174   1.613   2.590 -0.3084 -0.0871  0.4889
   16MOL   C233 5963   6.110   1.740   2.580 -0.1002  0.7955 -0.3553
   16MOL   C234 5964   6.224   1.836   2.545  0.0185 -0.2365  0.2791
   16MOL   C235 5965   6.294   1.800   2.411  0.6633 -0.6948  0.2132
   16MOL   C236 5966   6.206   1.823   2.291 -0.9762  0.5492 -0.2931
   16MOL   H237 5967   6.134   1.285   2.640 -0.2164 -0.3207 -0.1882
   16MOL   H238 5968   6.272   1.367   2.597  0.1792 -0.6148  0.4691
   16MOL   H239 5969   6.004   1.528   2.653  2.4339  1.5647  1.8183
   16MOL   H240 5970   6.029   1.740   2.507 -1.8530 -1.6265  1.4770
   16MOL   H241 5971   6.060   1.763   2.674  0.9823 -0.6369  0.5920
   16MOL   H242 5972   6.188   1.939   2.538  2.6338  0.6808 -0.3744
   16MOL   H243 5973   6.294   1.839   2.630  0.1944  1.3347  0.0944
   16MOL   H244 5974   6.346   1.704   2.413 -0.5091 -1.3789 -0.7560
   16MOL   H245 5975   6.379   1.868   2.409  0.6543 -0.6462  1.1758
   16MOL   H246 5976   6.278   1.831   2.209 -1.2065 -1.1108 -0.6680
   16MOL   H247 5977   6.154   1.919   2.301  2.8264  2.6607  0.0766
   16MOL   H248 5978   6.131   1.746   2.274  0.0737 -0.7730  1.0088
   16MOL   C249 5979   6.036   1.462   2.443 -0.3066  0.4588 -0.2488
   16MOL   C250 5980   5.951   1.331   2.421  0.1191 -0.3312  0.0286
   16MOL   O251 5981   5.910   1.316   2.287  0.5598  0.2384  0.0761
   16MOL   C252 5982   6.003   1.255   2.197 -0.6391  0.5199  0.6760
   16MOL   C253 5983   5.926   1.209   2.075 -0.6985 -0.0690 -0.1763
   16MOL   C254 5984   5.819   1.102   2.089 -0.1290  0.2234 -0.8600
   16MOL   C255 5985   5.709   1.109   1.988 -0.3439 -0.7048 -0.3908
   16MOL   H256 5986   6.113   1.472   2.366  0.0529  3.3429  0.4575
   16MOL   H257 5987   5.975   1.545   2.409 -1.8114 -0.8646 -0.8302
   16MOL   H258 5988   6.013   1.247   2.451  0.7508 -0.1359 -0.7015
   16MOL   H259 5989   6.041   1.169   2.252  1.0436  0.9870  0.2949
   16MOL   H260 5990   6.079   1.328   2.168 -1.2739  1.5907  1.6401
   16MOL   H261 5991   5.886   1.289   2.013  0.7154  1.1300  0.4372
   16MOL   H262 5992   6.000   1.169   2.006 -1.0762  0.5124 -0.9199
   16MOL   H263 5993   5.876   1.010   2.105  0.2077  0.0203 -2.9803
   16MOL   H264 5994   5.770   1.131   2.182 -0.0210  0.5017 -0.8914
   16MOL   H265 5995   5.645   1.197   2.003  0.8953 -0.0474  1.1601
   16MOL   H266 5996   5.641   1.025   1.978 -0.4620 -0.5991 -0.4853
   16MOL   H267 5997   5.753   1.111   1.888 -1.2011 -0.7306 -0.7750
   16MOL   C268 5998   5.820   1.332   2.498  0.3641 -0.9704  0.6249
   16MOL   C269 5999   5.779   1.196   2.559  0.1205  0.6571 -0.4763
   16MOL   O270 6000   5.880   1.144   2.637 -0.0715 -0.3163 -0.8441
   16MOL   C271 6001   5.895   1.004   2.647  0.5708 -0.3394 -0.2300
   16MOL   C272 6002   6.020   0.979   2.731 -0.2353 -0.9611  1.1210
   16MOL   C273 6003   6.046   0.841   2.770  0.0546  0.0874  0.4884
   16MOL   C274 6004   6.024   0.811   2.922 -0.4317 -0.6099 -0.1219
   16MOL   H275 6005   5.813   1.400   2.584  0.3268 -1.6585  1.1698
   16MOL   H276 6006   5.738   1.358   2.432  0.5560  0.0344  0.7742
   16MOL   H277 6007   5.754   1.126   2.479  0.6840 -0.9105  0.6846
   16MOL   H278 6008   5.808   0.964   2.699  0.4301 -0.1206 -0.2978
   16MOL   H279 6009   5.904   0.957   2.549 -0.9522 -2.4474  0.6120
   16MOL   H280 6010   6.095   0.997   2.655 -0.5049 -0.8043  0.8901
   16MOL   H281 6011   6.027   1.045   2.818  0.4277  2.2831 -1.3123
   16MOL   H282 6012   6.144   0.800   2.744  0.1817  0.6915 -0.0022
   16MOL   H283 6013   5.975   0.780   2.714 -0.0312  1.4392 -0.8947
   16MOL   H284 6014   5.929   0.854   2.953  1.7228  3.2714  1.5836
   16MOL   H285 6015   6.104   0.864   2.974 -1.6515  0.4556  0.6764
   16MOL   H286 6016   6.021   0.705   2.944 -1.2318 -0.9265 -1.7201
   16MOL   C287 6017   5.655   1.192   2.649 -0.9818 -0.2902  0.4588
   16MOL   C288 6018   5.522   1.228   2.573  0.6167  0.4348  1.2848
   16MOL   O289 6019   5.420   1.226   2.667  0.1030  0.5137 -0.5155
   16MOL   C290 6020   5.362   1.354   2.695 -0.1676 -0.3124  0.0620
   16MOL   C291 6021   5.290   1.343   2.830 -0.2102 -0.2614 -0.4946
   16MOL   C292 6022   5.389   1.316   2.948  0.4213  0.0360 -0.0315
   16MOL   C293 6023   5.321   1.316   3.088 -0.1811 -0.0309 -0.3150
   16MOL   H294 6024   5.664   1.273   2.722 -0.1755 -0.3625  0.4517
   16MOL   H295 6025   5.645   1.095   2.696  1.6755 -0.0775  1.5555
   16MOL   H296 6026   5.536   1.325   2.527 -0.2583 -0.4578 -0.9525
   16MOL   H297 6027   5.429   1.440   2.699 -0.9739  0.2807  1.1855
   16MOL   H298 6028   5.288   1.379   2.618 -2.0460 -1.3157  1.5182
   16MOL   H299 6029   5.207   1.273   2.821  0.2787 -0.7011 -1.7280
   16MOL   H300 6030   5.241   1.440   2.836  4.0654  2.2228 -2.8095
   16MOL   H301 6031   5.457   1.401   2.939 -1.2914  1.3856 -0.4993
   16MOL   H302 6032   5.441   1.222   2.928  0.2727  0.6574 -3.6201
   16MOL   H303 6033   5.388   1.296   3.172 -0.9784  1.6767  0.7437
   16MOL   H304 6034   5.280   1.410   3.125  0.4969  0.6484 -1.2636
   16MOL   H305 6035   5.238   1.248   3.104  0.1956 -0.6226 -0.8338
   16MOL   C306 6036   5.485   1.124   2.463 -0.1637 -0.4071  0.7813
   16MOL   C307 6037   5.350   1.149   2.390 -0.2613 -0.1558  0.7280
   16MOL   O308 6038   5.309   1.019   2.354  0.3504  0.2216  0.1342
   16MOL   C309 6039   5.208   0.955   2.432  0.9910  0.1500  0.1472
   16MOL   C310 6040   5.175   0.813   2.387  0.4723 -0.2502 -0.0568
   16MOL   C311 6041   5.061   0.759   2.473 -0.2187 -0.2260 -0.1413
   16MOL   C312 6042   5.016   0.618   2.427  0.1959 -0.3085 -0.6158
   16MOL   H313 6043   5.560   1.117   2.384  1.4123  0.5635  2.1729
   16MOL   H314 6044   5.473   1.028   2.513 -1.4129 -0.2209  0.8617
   16MOL   H315 6045   5.282   1.190   2.465 -1.8894  0.8205 -1.2454
   16MOL   H316 6046   5.116   1.013   2.442 -0.1435 -1.5904 -0.0036
   16MOL   H317 6047   5.245   0.947   2.535 -0.4605  0.9577  0.7478
   16MOL   H318 6048   5.263   0.749   2.398 -0.1790 -0.9653  1.0916
   16MOL   H319 6049   5.161   0.813   2.279  0.4883  0.1355 -0.0575
   16MOL   H320 6050   5.086   0.762   2.579 -2.6738 -0.9180  0.4963
   16MOL   H321 6051   4.970   0.819   2.463 -0.6413 -1.0792 -1.5520
   16MOL   H322 6052   4.935   0.577   2.487  1.8097 -0.3373  1.6088
   16MOL   H323 6053   5.102   0.553   2.445  0.7369  0.3705 -0.7218
   16MOL   H324 6054   4.986   0.611   2.322  0.4288 -2.0529 -0.5913
   16MOL   C325 6055   5.363   1.241   2.265 -0.2204  0.5485 -0.1791
   16MOL   C326 6056   5.231   1.299   2.209  0.2886  0.1563  0.6928
   16MOL   O327 6057   5.246   1.437   2.171 -0.4808  0.2036 -0.1249
   16MOL   C328 6058   5.260   1.524   2.282 -0.5755 -0.0717  0.2590
   16MOL   C329 6059   5.201   1.655   2.224 -0.9786  0.3208 -0.0895
   16MOL   C330 6060   5.282   1.724   2.115  0.0141  0.2279 -0.1862
   16MOL   C331 6061   5.185   1.796   2.022 -1.4259 -0.0154 -0.2143
   16MOL   H332 6062   5.415   1.201   2.178 -1.6733  1.4265 -1.4845
   16MOL   H333 6063   5.431   1.316   2.305  0.1501  0.2102 -0.1734
   16MOL   H334 6064   5.152   1.300   2.284 -0.3413  2.8542  0.0271
   16MOL   H335 6065   5.364   1.540   2.313 -1.1497  2.0307  1.1984
   16MOL   H336 6066   5.200   1.497   2.369  0.2469 -0.8303  0.6005
   16MOL   H337 6067   5.098   1.636   2.195 -1.1301  1.6246 -0.4053
   16MOL   H338 6068   5.193   1.721   2.310  1.2607  0.1230  0.3138
   16MOL   H339 6069   5.353   1.662   2.060 -0.2455 -0.1798 -0.0607
   16MOL   H340 6070   5.346   1.801   2.159  0.5752 -0.1144 -0.3949
   16MOL   H341 6071   5.232   1.851   1.940 -0.8063 -0.6634 -0.3119
   16MOL   H342 6072   5.113   1.869   2.058 -1.8602 -0.6910  0.2982
   16MOL   H343 6073   5.119   1.731   1.964 -1.3325 -1.0864  0.8599
   16MOL   C344 6074   5.189   1.236   2.075 -0.4020 -0.2622  0.2225
   16MOL   C345 6075   5.045   1.260   2.041 -0.2310 -0.2311 -0.3644
   16MOL   O346 6076   4.970   1.188   2.140 -0.6196 -0.0848  0.1371
   16MOL   C347 6077   4.845   1.249   2.184 -0.2094  0.5406  0.1291
   16MOL   C348 6078   4.772   1.162   2.298  0.6268  0.0353 -0.2232
   16MOL   C349 6079   4.877   1.118   2.401  0.0567  0.0217  0.1799
   16MOL   C350 6080   4.807   1.056   2.528  0.4481  0.7214 -0.1688
   16MOL   H351 6081   5.240   1.281   1.990  2.0068 -1.5655  0.9222
   16MOL   H352 6082   5.223   1.133   2.081  2.2935  0.4199 -2.1026
   16MOL   H353 6083   5.016   1.365   2.039  0.9566  0.1292  0.4042
   16MOL   H354 6084   4.784   1.260   2.095 -2.7090 -0.2993  1.6854
   16MOL   H355 6085   4.869   1.349   2.221  1.0888 -0.1112  1.0839
   16MOL   H356 6086   4.731   1.072   2.254  1.9257 -2.3704  3.2580
   16MOL   H357 6087   4.689   1.217   2.342  0.0725 -1.5380  0.7415
   16MOL   H358 6088   4.955   1.052   2.362  1.1104 -0.2276  2.6068
   16MOL   H359 6089   4.938   1.203   2.432  3.8962 -2.4973 -0.0546
   16MOL   H360 6090   4.738   1.125   2.576  1.1732 -0.5745  2.8464
   16MOL   H361 6091   4.868   1.032   2.615 -3.1030 -0.5589  2.1074
   16MOL   H362 6092   4.749   0.968   2.499  0.7258  0.3890  0.2903
   16MOL   C363 6093   5.018   1.194   1.900  0.3331  0.0958  0.6832
   16MOL   C364 6094   5.031   1.293   1.784  0.9362  0.4106 -0.1163
   16MOL   O365 6095   4.980   1.228   1.667 -0.2992 -0.1083  0.1065
   16MOL   C366 6096   4.997   1.304   1.546 -0.4487 -0.3480  0.1696
   16MOL   C367 6097   4.938   1.240   1.417 -0.2608 -0.8402 -0.2727
   16MOL   C368 6098   4.921   1.336   1.297 -1.0939  0.0719  0.0308
   16MOL   C369 6099   5.065   1.383   1.260 -0.9931  0.4273  0.5131
   16MOL   H370 6100   4.929   1.131   1.902 -0.2040  0.8088 -0.2401
   16MOL   H371 6101   5.093   1.119   1.876 -0.3460  0.5166 -2.9760
   16MOL   H372 6102   5.132   1.333   1.787  0.9532  0.3709 -0.1625
   16MOL   H373 6103   5.101   1.335   1.540 -1.1227  1.7386 -1.1731
   16MOL   H374 6104   4.940   1.397   1.554 -0.9718 -0.6473 -0.0651
   16MOL   H375 6105   4.834   1.220   1.445  0.5984 -1.0498  3.0053
   16MOL   H376 6106   4.980   1.144   1.390 -1.0037 -0.1549 -4.2245
   16MOL   H377 6107   4.865   1.422   1.334  0.1893  1.0738 -0.2787
   16MOL   H378 6108   4.870   1.290   1.212 -0.7757 -0.1360 -0.0484
   16MOL   H379 6109   5.110   1.444   1.338  1.3977  1.0944 -1.3331
   16MOL   H380 6110   5.123   1.293   1.240 -0.5192  0.4204  1.8780
   16MOL   H381 6111   5.077   1.453   1.177  1.8336  0.8862  1.2561
   16MOL   H382 6112   4.971   1.383   1.797  2.7279  1.8620 -1.6379
   17MOL     C1 6113   5.747   1.378   0.455 -0.2275 -0.1233 -0.6267
   17MOL     C2 6114   5.863   1.294   0.504 -0.3894 -0.6814 -0.0114
   17MOL     O3 6115   5.917   1.369   0.613 -0.3378 -0.0772  0.0918
   17MOL     C4 6116   6.058   1.377   0.611  0.3080  0.1058  0.3859
   17MOL     C5 6117   6.125   1.431   0.739  0.0456 -0.9119 -0.0534
   17MOL     C6 6118   6.152   1.577   0.738 -0.3225 -0.5603  0.2901
   17MOL     C7 6119   6.203   1.647   0.868  0.2115  0.3567  0.1333
   17MOL     H8 6120   5.682   1.392   0.541 -0.8176 -0.2805 -1.0336
   17MOL     H9 6121   5.792   1.473   0.428  1.0561 -0.2394  1.0370
   17MOL    H10 6122   5.938   1.279   0.426  0.2038 -1.1595  0.6435
   17MOL    H11 6123   6.102   1.277   0.605 -0.1745 -0.3740  4.1902
   17MOL    H12 6124   6.083   1.438   0.523  0.7769 -0.9667 -0.2319
   17MOL    H13 6125   6.214   1.371   0.759  0.1766 -0.5433  0.4778
   17MOL    H14 6126   6.060   1.410   0.824  0.8635 -0.9736  0.5679
   17MOL    H15 6127   6.067   1.634   0.700  0.0337 -1.6295 -2.1885
   17MOL    H16 6128   6.235   1.592   0.669 -1.4360 -1.3046 -1.2483
   17MOL    H17 6129   6.255   1.743   0.856  1.6567 -0.3279  0.7294
   17MOL    H18 6130   6.264   1.573   0.919  0.7576 -0.0140 -1.0583
   17MOL    H19 6131   6.119   1.675   0.931  0.3384 -0.1562  0.5361
   17MOL    H20 6132   5.689   1.328   0.376 -1.4463  0.1232  0.1040
   17MOL    C21 6133   5.827   1.150   0.552  0.9053  0.1287  0.0604
   17MOL    C22 6134   5.752   1.062   0.447  0.1344 -0.0832 -0.3778
   17MOL    O23 6135   5.850   1.030   0.344 -0.1560 -0.5684 -0.7277
   17MOL    C24 6136   5.795   1.033   0.215  0.1226 -0.6883 -0.3765
   17MOL    C25 6137   5.885   0.952   0.127  0.1230 -0.1824  0.0394
   17MOL    C26 6138   5.884   0.801   0.167  0.5070  1.0999 -0.4384
   17MOL    C27 6139   5.980   0.711   0.089  0.3630  0.1637  0.2217
   17MOL    H28 6140   5.758   1.162   0.635  0.7157  0.7774 -0.1916
   17MOL    H29 6141   5.915   1.097   0.590  0.0150 -2.4623 -1.3215
   17MOL    H30 6142   5.667   1.120   0.411 -1.4895 -2.6502 -0.7367
   17MOL    H31 6143   5.796   1.133   0.171 -0.0562 -0.2965  0.5003
   17MOL    H32 6144   5.696   0.988   0.207 -0.4970  0.3830  1.0414
   17MOL    H33 6145   5.860   0.959   0.021  0.9749  0.3096 -0.1265
   17MOL    H34 6146   5.986   0.991   0.138 -0.3727  1.0434  0.3921
   17MOL    H35 6147   5.893   0.793   0.275  2.0084  0.5017 -0.5955
   17MOL    H36 6148   5.786   0.762   0.138  0.5545 -0.1046  0.9895
   17MOL    H37 6149   5.942   0.612   0.116  2.4356 -1.2670 -1.8722
   17MOL    H38 6150   5.966   0.718   7.782  0.1839 -3.5680 -0.0690
   17MOL    H39 6151   6.083   0.730   0.120  0.3066  1.0184 -0.1031
   17MOL    C40 6152   5.702   0.929   0.513  0.2362  0.2013 -0.6920
   17MOL    C41 6153   5.571   0.952   0.585 -0.3021 -0.2278  0.6480
   17MOL    O42 6154   5.568   0.867   0.693 -0.2007  0.0749 -0.3426
   17MOL    C43 6155   5.606   0.930   0.813  0.1520 -0.5382 -0.0341
   17MOL    C44 6156   5.601   0.827   0.925  0.2774 -0.0546  0.0531
   17MOL    C45 6157   5.465   0.802   0.974  0.0909  0.0329 -0.2313
   17MOL    C46 6158   5.444   0.823   1.122  0.2466 -0.5865  0.2342
   17MOL    H47 6159   5.774   0.896   0.587 -1.3532  0.5659  1.0654
   17MOL    H48 6160   5.688   0.856   0.432 -1.6379 -1.8305  1.3831
   17MOL    H49 6161   5.555   1.058   0.606  0.2118 -0.3987  1.9419
   17MOL    H50 6162   5.556   1.024   0.835  1.5021  0.2905 -0.4350
   17MOL    H51 6163   5.708   0.968   0.804  0.6048 -1.6073  0.4337
   17MOL    H52 6164   5.649   0.876   1.009 -3.7585  0.1752  2.3495
   17MOL    H53 6165   5.653   0.734   0.902  0.3738 -0.3610  1.4559
   17MOL    H54 6166   5.417   0.709   0.945 -1.4338  0.0200  2.1734
   17MOL    H55 6167   5.398   0.869   0.921 -1.0943  0.7183  2.0696
   17MOL    H56 6168   5.489   0.735   1.169  2.0277  0.1443 -0.0796
   17MOL    H57 6169   5.492   0.910   1.165 -1.0347  0.4551 -0.4246
   17MOL    H58 6170   5.336   0.820   1.139 -0.3954  2.5879 -2.7635
   17MOL    C59 6171   5.447   0.910   0.499  0.4065 -0.4838  0.2222
   17MOL    C60 6172   5.314   0.949   0.574  0.2195  0.2712  0.0981
   17MOL    O61 6173   5.302   1.093   0.574 -0.3496 -0.3358  0.2689
   17MOL    C62 6174   5.218   1.152   0.675  0.2300  0.0612 -0.7427
   17MOL    C63 6175   5.254   1.299   0.689  0.5902  0.0761  0.3721
   17MOL    C64 6176   5.228   1.385   0.569 -0.1782 -0.6119 -0.3937
   17MOL    C65 6177   5.272   1.527   0.601  0.3664 -0.3461  0.1008
   17MOL    H66 6178   5.453   0.956   0.400  0.7807 -0.8039  0.0948
   17MOL    H67 6179   5.450   0.805   0.471  1.2339 -0.4887  0.3170
   17MOL    H68 6180   5.335   0.930   0.679  0.7564  1.6521  0.2504
   17MOL    H69 6181   5.239   1.109   0.773 -1.1458 -3.1511 -1.8033
   17MOL    H70 6182   5.114   1.139   0.647  0.5987 -2.1195 -1.1751
   17MOL    H71 6183   5.208   1.342   0.777 -0.0963 -4.6524  2.4616
   17MOL    H72 6184   5.357   1.300   0.725  0.2275 -1.9077  1.5836
   17MOL    H73 6185   5.288   1.341   0.489  2.0525  1.5227  0.0732
   17MOL    H74 6186   5.121   1.380   0.545 -1.0653 -0.4027  3.1968
   17MOL    H75 6187   5.243   1.592   0.519 -0.1438 -1.4291 -0.5861
   17MOL    H76 6188   5.230   1.563   0.695 -0.7125  0.4829 -0.6814
   17MOL    H77 6189   5.379   1.539   0.618  0.2134  1.1495  0.0198
   17MOL    C78 6190   5.185   0.879   0.533 -0.4479  0.6906  0.6099
   17MOL    C79 6191   5.145   0.745   0.590  0.1364 -0.4320  0.0305
   17MOL    O80 6192   5.122   0.766   0.733 -0.2120  0.2301  0.1999
   17MOL    C81 6193   4.985   0.765   0.777 -0.2012 -0.0008 -0.3939
   17MOL    C82 6194   4.991   0.795   0.928 -0.0876 -0.5460  0.0705
   17MOL    C83 6195   5.032   0.938   0.948 -0.1478 -0.0590 -0.1728
   17MOL    C84 6196   5.023   0.985   1.094  0.4391 -0.6769 -0.1859
   17MOL    H85 6197   5.186   0.862   0.425  0.0249  2.1039  0.3719
   17MOL    H86 6198   5.103   0.951   0.534  0.8779  2.2300 -0.3480
   17MOL    H87 6199   5.051   0.712   0.545  0.7244 -2.3485  0.1690
   17MOL    H88 6200   4.948   0.664   0.760  0.1760 -0.2135  0.0307
   17MOL    H89 6201   4.915   0.831   0.726 -0.1807 -0.7260 -1.3929
   17MOL    H90 6202   4.889   0.784   0.966 -0.0405 -0.3835  0.2443
   17MOL    H91 6203   5.060   0.731   0.983 -1.0823 -1.4919  0.2397
   17MOL    H92 6204   4.994   1.001   0.868  0.3910 -0.1257 -0.4834
   17MOL    H93 6205   5.138   0.940   0.924 -0.4121  0.3414 -1.3299
   17MOL    H94 6206   4.998   0.912   1.171 -0.3537  1.3439  1.4846
   17MOL    H95 6207   5.109   1.046   1.120 -0.8133  1.0270 -0.0108
   17MOL    H96 6208   4.938   1.052   1.090 -1.4881 -3.0820 -0.8732
   17MOL    C97 6209   5.242   0.629   0.554 -0.9753  0.6852 -0.0137
   17MOL    C98 6210   5.189   0.495   0.596 -0.6303  0.3626 -0.4032
   17MOL    O99 6211   5.064   0.467   0.538  0.7368 -0.5787 -0.1202
   17MOL   C100 6212   4.979   0.375   0.602 -0.1216 -0.3769 -1.0348
   17MOL   C101 6213   4.913   0.275   0.502 -0.4291  0.2010 -0.6115
   17MOL   C102 6214   4.794   0.346   0.439 -0.8760 -0.5149  0.4037
   17MOL   C103 6215   4.709   0.263   0.337  0.6993  0.9693  0.2196
   17MOL   H104 6216   5.338   0.643   0.604 -0.3086 -3.7877  0.1871
   17MOL   H105 6217   5.258   0.629   0.446 -0.6763 -0.9417  0.0131
   17MOL   H106 6218   5.178   0.487   0.704  0.0927  0.4267 -0.3252
   17MOL   H107 6219   4.901   0.430   0.654 -1.4280 -1.0531 -2.2309
   17MOL   H108 6220   5.028   0.324   0.684 -0.8945 -0.1563 -0.4276
   17MOL   H109 6221   4.883   0.187   0.559  0.2822  0.7495  0.6192
   17MOL   H110 6222   4.986   0.238   0.429  1.3489 -0.7935  1.5920
   17MOL   H111 6223   4.839   0.431   0.388  1.3661 -3.0713 -2.0397
   17MOL   H112 6224   4.739   0.404   0.513  0.4495 -0.4313  1.3500
   17MOL   H113 6225   4.659   0.331   0.268  0.0295 -0.4837 -0.7491
   17MOL   H114 6226   4.763   0.208   0.260  0.9132  0.9488  0.3810
   17MOL   H115 6227   4.647   0.188   0.385 -1.5642  1.6755 -1.5450
   17MOL   C116 6228   5.280   0.378   0.541 -0.6896  0.0735 -0.0221
   17MOL   C117 6229   5.434   0.375   0.591  1.2193 -0.1691 -0.2259
   17MOL   O118 6230   5.433   0.372   0.732  0.2224 -0.3716  0.3042
   17MOL   C119 6231   5.554   0.400   0.798 -0.4648 -0.2905  0.2069
   17MOL   C120 6232   5.536   0.412   0.950  0.7505  0.1992 -0.8408
   17MOL   C121 6233   5.524   0.278   1.029  0.4037  0.3831 -0.5526
   17MOL   C122 6234   5.658   0.233   1.083 -0.2226  0.1911 -0.1644
   17MOL   H123 6235   5.229   0.284   0.564  0.6617 -1.1621 -1.9381
   17MOL   H124 6236   5.277   0.389   0.433 -1.2628  0.3852  0.0233
   17MOL   H125 6237   5.483   0.463   0.549 -2.0361  0.8768 -1.9683
   17MOL   H126 6238   5.597   0.493   0.761  1.0392 -0.6817  0.9260
   17MOL   H127 6239   5.621   0.316   0.779 -0.6540 -0.4723  0.3543
   17MOL   H128 6240   5.446   0.471   0.963  0.5914 -0.2836  0.3388
   17MOL   H129 6241   5.617   0.472   0.991  1.6278 -1.1898 -0.4954
   17MOL   H130 6242   5.443   0.279   1.103  0.5645 -0.4825 -0.3661
   17MOL   H131 6243   5.472   0.210   0.962 -1.5120 -0.2514  1.5123
   17MOL   H132 6244   5.645   0.140   1.138  1.3431 -0.0170 -0.1017
   17MOL   H133 6245   5.709   0.297   1.156  1.0387 -0.5993 -0.3235
   17MOL   H134 6246   5.722   0.199   1.001 -1.9442 -2.7570 -0.3418
   17MOL   C135 6247   5.516   0.253   0.529 -0.4586 -0.8523 -0.1109
   17MOL   C136 6248   5.617   0.311   0.428 -0.6676 -0.0484 -0.0190
   17MOL   O137 6249   5.713   0.390   0.501 -0.6961 -0.5475 -0.1199
   17MOL   C138 6250   5.775   0.485   0.414 -0.0407  0.4020 -0.2471
   17MOL   C139 6251   5.871   0.577   0.498 -0.3286 -0.2165 -0.1017
   17MOL   C140 6252   5.994   0.507   0.568  0.2434 -0.7103 -0.2245
   17MOL   C141 6253   6.113   0.603   0.609  0.9261 -0.3826  0.0875
   17MOL   H142 6254   5.443   0.183   0.488 -0.8035 -0.7637  0.3518
   17MOL   H143 6255   5.567   0.185   0.598  0.4389 -0.3477 -0.2791
   17MOL   H144 6256   5.561   0.365   0.351 -2.0079  0.4256  1.2556
   17MOL   H145 6257   5.705   0.548   0.359  0.3734 -0.8799 -2.2935
   17MOL   H146 6258   5.836   0.437   0.337  0.1517 -1.2013  0.8856
   17MOL   H147 6259   5.812   0.627   0.575  0.8981 -2.0151  2.0483
   17MOL   H148 6260   5.914   0.651   0.431  0.4716 -0.2020  0.4242
   17MOL   H149 6261   5.957   0.450   0.653 -0.2655 -0.9547 -0.6100
   17MOL   H150 6262   6.038   0.436   0.498  1.2680  0.2890 -0.6142
   17MOL   H151 6263   6.089   0.688   0.673  1.5311  1.2095 -1.7606
   17MOL   H152 6264   6.187   0.542   0.660  2.0242 -0.2883 -1.3692
   17MOL   H153 6265   6.162   0.646   0.522 -1.2568  0.9483 -0.5151
   17MOL   C154 6266   5.690   0.196   0.360  0.0306  0.1855  0.4801
   17MOL   C155 6267   5.598   0.119   0.261 -0.4015 -0.8967  0.1600
   17MOL   O156 6268   5.531   0.024   0.333  0.1978  0.0140  0.2929
   17MOL   C157 6269   5.437   7.746   0.270  0.0059  0.1010  0.1155
   17MOL   C158 6270   5.340   7.686   0.374 -0.0833 -0.4864  0.0749
   17MOL   C159 6271   5.258   7.785   0.458 -0.1905 -0.2732  0.2374
   17MOL   C160 6272   5.128   7.718   0.512 -0.3553 -0.0685 -0.3289
   17MOL   H161 6273   5.741   0.132   0.432  0.8795  0.4974  0.1701
   17MOL   H162 6274   5.779   0.238   0.312  0.3840  0.3067  1.2372
   17MOL   H163 6275   5.529   0.194   0.223 -0.4452 -0.9760  0.0811
   17MOL   H164 6276   5.372   0.012   0.214 -1.6362 -1.1905  0.3824
   17MOL   H165 6277   5.494   7.666   0.224  0.4744  1.0439 -0.9644
   17MOL   H166 6278   5.399   7.622   0.440  0.0031 -0.3860  0.0944
   17MOL   H167 6279   5.273   7.621   0.317 -1.3146  1.7925 -1.1268
   17MOL   H168 6280   5.323   0.010   0.540 -0.3318 -1.3427  0.7081
   17MOL   H169 6281   5.231   0.063   0.388 -0.3390 -1.3470 -0.9571
   17MOL   H170 6282   5.153   7.619   0.550  1.3812 -0.0195 -1.2963
   17MOL   H171 6283   5.086   7.761   0.603  0.8780 -0.8592  0.6381
   17MOL   H172 6284   5.051   7.712   0.436 -1.0990  2.1808  0.2182
   17MOL   C173 6285   5.671   0.064   0.137 -0.1204  0.3586  0.0724
   17MOL   C174 6286   5.591   0.068   0.005  0.7666  0.3802  0.0425
   17MOL   O175 6287   5.549   0.206   7.785 -0.5474  0.1737  0.3664
   17MOL   C176 6288   5.420   0.225   7.723 -0.2431 -0.0550 -0.3966
   17MOL   C177 6289   5.317   0.287   0.018  0.3956  0.4047  0.5364
   17MOL   C178 6290   5.177   0.308   7.756 -0.0937 -0.2600 -0.7067
   17MOL   C179 6291   5.072   0.331   0.056  0.1909  0.5149  0.3420
   17MOL   H180 6292   5.697   7.762   0.156  0.1385 -0.1245 -2.7637
   17MOL   H181 6293   5.766   0.115   0.121 -0.9161  1.6013 -0.7573
   17MOL   H182 6294   5.509   7.800   0.020  1.3237  0.1613  2.2707
   17MOL   H183 6295   5.394   0.121   7.703  1.8980 -0.2496 -2.3472
   17MOL   H184 6296   5.441   0.276   7.630 -1.2414  1.0625 -0.0161
   17MOL   H185 6297   5.349   0.389   0.036 -2.6188  1.1405  2.0158
   17MOL   H186 6298   5.318   0.246   0.119  3.3466  0.6613  0.6631
   17MOL   H187 6299   5.173   0.396   7.692 -0.8779  1.2482  1.3455
   17MOL   H188 6300   5.155   0.214   7.705  0.6724 -0.7110 -0.2118
   17MOL   H189 6301   4.975   0.366   0.020  0.2385 -0.5006 -0.8228
   17MOL   H190 6302   5.048   0.235   0.103  0.7338  1.4806  2.6323
   17MOL   H191 6303   5.106   0.400   0.133  2.2453 -2.7302  2.5247
   17MOL   C192 6304   5.660   0.029   7.677  0.0101  0.2357  0.0611
   17MOL   C193 6305   5.665   7.678   7.636  0.2909 -0.4518  0.1310
   17MOL   O194 6306   5.723   7.660   7.503 -0.1062  0.1973 -0.3438
   17MOL   C195 6307   5.623   7.671   7.400 -0.3614  0.8004  0.2443
   17MOL   C196 6308   5.540   7.543   7.380 -0.8001  0.5206  0.5653
   17MOL   C197 6309   5.464   7.554   7.244 -0.4277  0.5525 -1.1671
   17MOL   C198 6310   5.365   7.444   7.209  0.7949 -0.0340 -0.2033
   17MOL   H199 6311   5.758   0.076   7.670  0.2486 -0.4541 -1.3875
   17MOL   H200 6312   5.606   0.073   7.593  0.2178  0.7378  0.1864
   17MOL   H201 6313   5.565   7.636   7.633  1.1588 -2.4897 -1.5022
   17MOL   H202 6314   5.677   7.682   7.306 -2.6635 -2.6099 -1.5791
   17MOL   H203 6315   5.548   7.748   7.418 -0.3514  0.7299  0.5915
   17MOL   H204 6316   5.606   7.457   7.364 -0.4027  1.2399 -1.8410
   17MOL   H205 6317   5.472   7.539   7.465 -0.2674 -0.5421  0.9472
   17MOL   H206 6318   5.536   7.571   7.164  0.1128  0.7106 -0.6481
   17MOL   H207 6319   5.418   7.652   7.236 -2.4585 -0.1543  1.0506
   17MOL   H208 6320   5.331   7.459   7.107  0.7444  0.9848 -0.0376
   17MOL   H209 6321   5.414   7.347   7.206  0.6582 -0.2326  2.5694
   17MOL   H210 6322   5.280   7.429   7.276  0.7874  1.8772  0.2432
   17MOL   C211 6323   5.744   7.573   7.722 -0.9652 -0.4546 -0.0325
   17MOL   C212 6324   5.899   7.586   7.730 -0.4794  0.5340  0.2283
   17MOL   O213 6325   5.925   7.707   7.794  0.0417  0.3224  0.2466
   17MOL   C214 6326   6.016   7.779   7.715 -0.1586 -0.2852  0.3083
   17MOL   C215 6327   6.053   0.115   7.780 -1.2000  0.2937 -0.3736
   17MOL   C216 6328   6.187   0.182   7.748 -1.0722  0.4428  0.1939
   17MOL   C217 6329   6.196   0.323   7.788  0.0132 -0.2097 -0.2438
   17MOL   H218 6330   5.718   7.474   7.683 -1.0472 -0.1636 -0.7244
   17MOL   H219 6331   5.716   7.583   0.025 -1.7391  1.4085 -0.4085
   17MOL   H220 6332   5.933   7.575   7.627 -0.9528 -1.5033  0.2549
   17MOL   H221 6333   6.109   7.724   7.708  0.7677  1.3677 -0.5938
   17MOL   H222 6334   5.967   7.783   7.618  0.2977 -1.7703  0.0130
   17MOL   H223 6335   5.974   0.189   7.782 -1.3026  0.2203 -1.7669
   17MOL   H224 6336   6.063   0.092   0.085  1.8606 -1.1696 -0.8949
   17MOL   H225 6337   6.202   0.182   7.640  1.6569 -2.0819  0.5177
   17MOL   H226 6338   6.277   0.126   7.771 -0.0841  0.6397 -2.9331
   17MOL   H227 6339   6.213   0.319   0.094 -1.4244 -1.5849 -0.0457
   17MOL   H228 6340   6.103   0.380   7.784 -1.1708 -1.9141  1.6623
   17MOL   H229 6341   6.276   0.375   7.735  2.3761 -0.7849  2.6159
   17MOL   C230 6342   5.967   7.470   0.011 -0.3049  0.0881 -0.1066
   17MOL   C231 6343   6.119   7.447   7.791 -1.0679 -0.7697  0.1027
   17MOL   O232 6344   6.149   7.344   0.082 -0.0167  0.4429 -0.3498
   17MOL   C233 6345   6.287   7.359   0.124  0.6155  0.0795 -0.4475
   17MOL   C234 6346   6.342   7.237   0.207 -0.1381  0.9974  0.4463
   17MOL   C235 6347   6.482   7.247   0.256 -0.0852 -0.3466 -0.6321
   17MOL   C236 6348   6.519   7.119   0.333  0.1431 -0.5220  0.5458
   17MOL   H237 6349   5.917   7.374   7.799 -0.4990  0.1463  0.1793
   17MOL   H238 6350   5.953   7.494   0.117 -0.9847  1.3106 -0.4616
   17MOL   H239 6351   6.181   7.535   0.007  0.2689 -1.8205  0.6999
   17MOL   H240 6352   6.357   7.390   0.046  1.0661 -1.0590 -0.5125
   17MOL   H241 6353   6.292   7.446   0.190 -0.8978 -1.3028  1.5583
   17MOL   H242 6354   6.270   7.227   0.288 -1.9081 -1.6172 -1.3541
   17MOL   H243 6355   6.331   7.147   0.147  0.7265  2.8219 -2.5541
   17MOL   H244 6356   6.496   7.331   0.324 -0.2421  0.1839 -1.2586
   17MOL   H245 6357   6.551   7.269   0.174 -0.0381  0.1290 -0.4664
   17MOL   H246 6358   6.447   7.108   0.414  0.3037 -2.9816  0.4013
   17MOL   H247 6359   6.623   7.115   0.365 -0.2417 -1.4559  1.6978
   17MOL   H248 6360   6.500   7.024   0.284  0.2558  0.2224 -0.9718
   17MOL   C249 6361   6.144   7.390   7.650  0.0640  0.5113 -0.0759
   17MOL   C250 6362   6.184   7.492   7.543  0.2338  0.2340 -0.9991
   17MOL   O251 6363   6.175   7.427   7.416  0.7515 -0.0008 -0.1789
   17MOL   C252 6364   6.065   7.473   7.345 -0.2883 -0.1100 -0.2161
   17MOL   C253 6365   6.058   7.430   7.200 -0.3113  0.4172  0.9617
   17MOL   C254 6366   6.180   7.477   7.118  0.2319 -0.7587 -0.8585
   17MOL   C255 6367   6.165   7.425   6.971 -0.4544  0.3686  0.4930
   17MOL   H256 6368   6.054   7.336   7.622 -1.1264  1.3882  1.9496
   17MOL   H257 6369   6.224   7.317   7.660  0.3697  1.0754  1.6949
   17MOL   H258 6370   6.119   7.580   7.543 -0.3002 -0.1601 -0.4996
   17MOL   H259 6371   6.073   7.581   7.342  0.9559 -0.1388  1.2943
   17MOL   H260 6372   5.973   7.463   7.402 -0.0546 -1.8365 -0.0891
   17MOL   H261 6373   6.044   7.322   7.189  0.6162  0.2964  0.9595
   17MOL   H262 6374   5.961   7.462   7.163 -1.7401 -3.9285  0.6246
   17MOL   H263 6375   6.175   7.586   7.112 -1.4933 -0.8713 -1.7219
   17MOL   H264 6376   6.271   7.439   7.163  1.0610 -0.8613 -2.5875
   17MOL   H265 6377   6.229   7.488   6.909  0.4625 -2.5255 -1.6173
   17MOL   H266 6378   6.062   7.449   6.945 -0.5242 -0.0148  0.4170
   17MOL   H267 6379   6.193   7.320   6.960 -1.8037  0.0341  0.1999
   17MOL   C268 6380   6.333   7.535   7.563  0.0953  1.2611 -0.1883
   17MOL   C269 6381   6.376   7.664   7.486 -0.0152 -0.5119 -0.7541
   17MOL   O270 6382   6.502   7.710   7.524 -0.2855 -0.5893  0.4166
   17MOL   C271 6383   6.494   7.787   7.643 -0.3832 -0.4719 -0.2233
   17MOL   C272 6384   6.632   0.048   7.654 -0.0778  0.4425  0.4636
   17MOL   C273 6385   6.656   0.156   7.549 -0.3503 -0.2397  0.2130
   17MOL   C274 6386   6.800   0.201   7.544  1.0704  0.0188  0.3061
   17MOL   H275 6387   6.358   7.530   7.669 -0.8721 -3.3929 -0.0813
   17MOL   H276 6388   6.392   7.452   7.525 -2.0456 -0.3593 -0.0128
   17MOL   H277 6389   6.304   7.744   7.505 -1.3040 -1.9242  0.4176
   17MOL   H278 6390   6.417   0.062   7.636  0.0865  0.1108  0.8106
   17MOL   H279 6391   6.485   7.721   7.730  1.4143 -0.3639  0.0537
   17MOL   H280 6392   6.629   0.097   7.751  1.1708 -0.8388  1.1726
   17MOL   H281 6393   6.710   7.774   7.667 -0.8529  0.0719  3.3057
   17MOL   H282 6394   6.592   0.244   7.553  1.9221  1.4941 -0.4678
   17MOL   H283 6395   6.634   0.123   7.447 -0.4142  2.3213 -0.6473
   17MOL   H284 6396   6.818   0.278   7.470 -1.3390  0.7481  0.4395
   17MOL   H285 6397   6.871   0.125   7.510 -0.3797 -2.8370  3.2632
   17MOL   H286 6398   6.835   0.243   7.638 -3.0355  1.8030  1.1555
   17MOL   C287 6399   6.398   7.639   7.345 -0.1307 -0.0525 -0.2123
   17MOL   C288 6400   6.420   7.771   7.265  0.5234 -0.2721  1.0496
   17MOL   O289 6401   6.300   0.045   7.270 -0.4978 -0.7233 -0.2202
   17MOL   C290 6402   6.323   0.181   7.309 -0.3365  0.5137  0.2108
   17MOL   C291 6403   6.187   0.245   7.319 -0.5197  0.4065 -0.2906
   17MOL   C292 6404   6.200   0.403   7.344 -0.1715  0.2277 -0.3729
   17MOL   C293 6405   6.066   0.473   7.365 -0.7040  0.0381  0.4792
   17MOL   H294 6406   6.308   7.590   7.306  0.2212 -1.0784  0.2840
   17MOL   H295 6407   6.481   7.573   7.321  1.4797  1.7973  0.1384
   17MOL   H296 6408   6.500   0.032   7.304 -0.7349  2.1775 -0.1948
   17MOL   H297 6409   6.367   0.186   7.409 -0.8747  1.5397  0.4085
   17MOL   H298 6410   6.385   0.236   7.239 -0.7528 -1.9581 -2.1629
   17MOL   H299 6411   6.133   0.206   7.404 -0.1552  1.1047  0.2712
   17MOL   H300 6412   6.128   0.219   7.231  0.6308 -2.7777 -0.1626
   17MOL   H301 6413   6.259   0.454   7.268  0.4374 -0.6468 -0.4969
   17MOL   H302 6414   6.260   0.413   7.435 -1.4487 -0.3418  0.5522
   17MOL   H303 6415   6.009   0.415   7.438 -0.1267 -2.4076 -0.9463
   17MOL   H304 6416   6.066   0.572   7.410 -1.4010  0.5436 -0.6019
   17MOL   H305 6417   5.997   0.463   7.280  1.4990  0.6959 -1.4278
   17MOL   C306 6418   6.463   7.720   7.126  0.4996 -0.0571 -0.3574
   17MOL   C307 6419   6.503   0.023   7.025  0.0741  0.1609  0.0696
   17MOL   O308 6420   6.594   0.107   7.082 -0.3440 -0.6584  0.4493
   17MOL   C309 6421   6.734   0.076   7.054 -0.0217  0.0281 -0.1176
   17MOL   C310 6422   6.748   0.131   6.916 -0.2070  0.3733  0.0173
   17MOL   C311 6423   6.888   0.132   6.860 -0.8242 -0.2613  0.4539
   17MOL   C312 6424   6.879   0.144   6.703 -0.0039  0.2695  0.5990
   17MOL   H313 6425   6.541   7.645   7.134 -1.5580 -2.3507 -1.2511
   17MOL   H314 6426   6.389   7.650   7.086 -1.2647  1.2733  0.4817
   17MOL   H315 6427   6.541   7.769   6.940 -0.4025  1.4405 -0.9951
   17MOL   H316 6428   6.767   7.775   7.070 -0.2115 -0.2511 -1.4480
   17MOL   H317 6429   6.786   0.141   7.124  1.5319 -0.7719 -0.5167
   17MOL   H318 6430   6.716   0.235   6.918 -1.6940 -0.0876  1.4476
   17MOL   H319 6431   6.688   0.077   6.843  0.8651  1.6398 -1.8496
   17MOL   H320 6432   6.937   0.217   6.907  0.9645 -0.8803 -0.2501
   17MOL   H321 6433   6.939   0.039   6.884  1.2532  1.3542  2.6478
   17MOL   H322 6434   6.817   0.229   6.673  0.8682  0.9492  0.7131
   17MOL   H323 6435   6.828   0.053   6.671  1.2826 -0.0739 -0.5084
   17MOL   H324 6436   6.976   0.156   6.655 -0.4040  0.6527 -0.1308
   17MOL   C325 6437   6.398   0.109   6.957  0.0283  0.2119  0.1630
   17MOL   C326 6438   6.303   0.025   6.858  0.3331 -0.6315 -0.4086
   17MOL   O327 6439   6.176   0.099   6.860 -0.1009 -1.0386 -0.5810
   17MOL   C328 6440   6.088   0.046   6.958  0.7224  0.6428 -0.4823
   17MOL   C329 6441   5.955   0.114   6.935 -0.0739 -0.1729 -0.2295
   17MOL   C330 6442   5.843   0.080   7.032  0.4348  0.0289 -0.5087
   17MOL   C331 6443   5.711   0.142   7.021 -1.3911 -0.6004  0.0253
   17MOL   H332 6444   6.445   0.177   6.886 -0.6505  0.2367 -0.2621
   17MOL   H333 6445   6.335   0.151   7.036 -0.6580 -0.6530  0.0827
   17MOL   H334 6446   6.286   7.726   6.894 -0.7814 -1.1667 -2.3595
   17MOL   H335 6447   6.132   0.064   7.056 -0.3115  1.7405 -0.2078
   17MOL   H336 6448   6.063   7.741   6.957 -0.1295  0.7496  2.6439
   17MOL   H337 6449   5.964   0.223   6.929 -0.3978 -0.1123  0.3903
   17MOL   H338 6450   5.920   0.083   6.836 -1.2853  1.5757 -0.3671
   17MOL   H339 6451   5.890   0.093   7.129  1.3501 -1.4423 -0.7270
   17MOL   H340 6452   5.819   7.776   7.020 -1.6388  0.6424 -1.9321
   17MOL   H341 6453   5.632   0.110   6.953 -2.1637 -0.7748  1.0018
   17MOL   H342 6454   5.724   0.250   7.018 -0.8618 -0.6824 -0.7300
   17MOL   H343 6455   5.652   0.134   7.113 -1.8638  1.2365 -0.1058
   17MOL   C344 6456   6.349   0.019   6.709 -0.0985 -0.0543  0.2936
   17MOL   C345 6457   6.261   7.731   6.618 -0.4323 -0.3889 -0.3244
   17MOL   O346 6458   6.347   7.621   6.580  0.2237  0.3940 -0.6410
   17MOL   C347 6459   6.282   7.492   6.575 -0.3279  0.0601 -0.1290
   17MOL   C348 6460   6.374   7.393   6.494  0.1554  0.2002  0.1786
   17MOL   C349 6461   6.395   7.454   6.356  0.0281 -0.8806  0.5128
   17MOL   C350 6462   6.452   7.352   6.249  0.1186  0.2085  0.6564
   17MOL   H351 6463   6.357   0.117   6.662  1.2563 -1.1533 -1.8498
   17MOL   H352 6464   6.454   7.793   6.712  0.3613  1.6675  0.4860
   17MOL   H353 6465   6.177   7.691   6.675 -0.2889 -0.2434 -0.0080
   17MOL   H354 6466   6.182   7.497   6.531 -1.3932 -0.6493  2.1317
   17MOL   H355 6467   6.250   7.457   6.673 -1.2907  3.4791  0.8715
   17MOL   H356 6468   6.326   7.299   6.469  0.1099 -0.0473  1.1794
   17MOL   H357 6469   6.470   7.380   6.543  0.9628 -0.0261 -1.4366
   17MOL   H358 6470   6.296   7.491   6.330  1.3420  1.0857 -1.8881
   17MOL   H359 6471   6.462   7.540   6.362  0.8862 -1.4239 -1.0876
   17MOL   H360 6472   6.467   7.394   6.149  2.1757 -0.6210  0.6071
   17MOL   H361 6473   6.392   7.262   6.238  1.4989 -0.4701 -1.5230
   17MOL   H362 6474   6.554   7.325   6.275  0.2471 -3.9086 -3.4972
   17MOL   C363 6475   6.205   0.013   6.496  0.4717  0.5637 -0.4512
   17MOL   C364 6476   6.116   0.126   6.532 -0.2512 -0.2780  0.0655
   17MOL   O365 6477   6.057   0.178   6.413  0.0072  0.3785 -0.4184
   17MOL   C366 6478   5.974   0.290   6.449 -0.7176 -0.7072 -0.3180
   17MOL   C367 6479   5.919   0.361   6.319  0.8061 -0.2162 -0.2221
   17MOL   C368 6480   5.827   0.281   6.232 -0.2102  0.0311 -0.0595
   17MOL   C369 6481   5.712   0.214   6.302  0.0739  0.9442 -0.3160
   17MOL   H370 6482   6.157   7.745   6.428 -2.1881  1.5392  0.3817
   17MOL   H371 6483   6.287   0.058   6.440  1.6285 -0.4180  0.4132
   17MOL   H372 6484   6.165   0.205   6.589  1.8404  0.3251 -2.4469
   17MOL   H373 6485   6.033   0.367   6.498 -0.9446 -0.5386 -0.3082
   17MOL   H374 6486   5.886   0.255   6.503  0.6949 -0.8746  1.8908
   17MOL   H375 6487   5.999   0.405   6.259 -0.8228  2.1874 -0.6907
   17MOL   H376 6488   5.865   0.450   6.352 -0.6226 -0.7494 -1.0492
   17MOL   H377 6489   5.889   0.201   6.192  0.2283 -0.3505  1.3625
   17MOL   H378 6490   5.798   0.338   6.144  0.1144 -0.2080 -0.3228
   17MOL   H379 6491   5.639   0.289   6.331 -2.2126 -1.7891  1.2851
   17MOL   H380 6492   5.667   0.149   6.227  1.0774 -0.4516  0.2678
   17MOL   H381 6493   5.747   0.154   6.386 -1.2790  0.1002 -0.3371
   17MOL   H382 6494   6.036   0.088   6.596  0.1813 -0.6282  0.4004
   18MOL     C1 6495   4.687   0.992   3.750  0.7976 -0.3242 -0.3037
   18MOL     C2 6496   4.708   1.024   3.601  0.3682  0.3611  0.0187
   18MOL     O3 6497   4.779   1.152   3.600 -0.7760  0.0489  0.1768
   18MOL     C4 6498   4.698   1.261   3.558 -0.0696 -0.1910  0.6482
   18MOL     C5 6499   4.763   1.389   3.611 -0.3996 -0.2685 -0.0028
   18MOL     C6 6500   4.762   1.410   3.764 -0.2012 -0.1620 -0.1199
   18MOL     C7 6501   4.780   1.563   3.799  0.0696  0.3847  0.6562
   18MOL     H8 6502   4.634   0.899   3.771  1.2443 -0.1798  1.5604
   18MOL     H9 6503   4.785   0.976   3.794  1.1040  0.7144 -0.5916
   18MOL    H10 6504   4.617   1.037   3.544  0.2697  1.5022  0.4351
   18MOL    H11 6505   4.688   1.259   3.450 -0.4457 -0.6115  0.6893
   18MOL    H12 6506   4.596   1.256   3.597 -0.7080 -0.9896 -1.0781
   18MOL    H13 6507   4.712   1.467   3.556  3.8767  0.7607 -2.7238
   18MOL    H14 6508   4.868   1.392   3.580 -0.5325 -1.1394 -0.5303
   18MOL    H15 6509   4.844   1.348   3.799 -1.6738 -1.3964  1.2414
   18MOL    H16 6510   4.664   1.375   3.795 -0.1420 -0.3660 -0.1669
   18MOL    H17 6511   4.710   1.627   3.745 -0.8589 -1.0843  0.0718
   18MOL    H18 6512   4.884   1.592   3.784  1.4495 -4.1532  0.5763
   18MOL    H19 6513   4.749   1.584   3.901  1.1806  0.1306  1.0560
   18MOL    H20 6514   4.634   1.068   3.808 -1.2583 -2.9074  1.3157
   18MOL    C21 6515   4.777   0.902   3.543  0.5345  0.4688  0.8771
   18MOL    C22 6516   4.684   0.797   3.473 -0.9228 -0.4204  0.1841
   18MOL    O23 6517   4.773   0.717   3.403  0.5711  0.6924 -0.4451
   18MOL    C24 6518   4.750   0.712   3.262  0.5238  0.0532 -0.0929
   18MOL    C25 6519   4.830   0.604   3.192 -0.7118  0.1998 -0.3256
   18MOL    C26 6520   4.834   0.460   3.250  0.1660  0.6064 -1.0383
   18MOL    C27 6521   4.919   0.360   3.173 -0.5668  0.2479  0.7765
   18MOL    H28 6522   4.854   0.863   3.611  1.1340  0.5160  0.2332
   18MOL    H29 6523   4.841   0.947   3.467 -0.2694 -0.6275 -0.4682
   18MOL    H30 6524   4.624   0.850   3.400 -2.0455 -1.7204  0.1470
   18MOL    H31 6525   4.782   0.809   3.223 -2.0427  0.5485 -1.0780
   18MOL    H32 6526   4.649   0.698   3.225  0.1948  0.1721  0.7515
   18MOL    H33 6527   4.805   0.601   3.086 -0.4214  2.9197 -0.5077
   18MOL    H34 6528   4.933   0.637   3.203 -0.8665  0.1890  1.2932
   18MOL    H35 6529   4.870   0.460   3.353 -0.3429 -1.2031 -0.8408
   18MOL    H36 6530   4.731   0.431   3.269  0.8462 -0.6253  0.9591
   18MOL    H37 6531   4.948   0.270   3.228  2.0503  0.8619  0.4952
   18MOL    H38 6532   4.867   0.328   3.083 -0.9093  0.5562  0.8678
   18MOL    H39 6533   5.018   0.396   3.146 -0.3969 -2.3340 -2.3909
   18MOL    C40 6534   4.600   0.708   3.565  0.7191  0.2416  0.4749
   18MOL    C41 6535   4.504   0.617   3.480 -0.1118  1.3329  0.6654
   18MOL    O42 6536   4.396   0.700   3.436 -0.6947 -0.2761  0.0550
   18MOL    C43 6537   4.360   0.670   3.303 -0.3812 -0.0725 -0.0890
   18MOL    C44 6538   4.220   0.723   3.250  0.4918 -0.0430  0.7347
   18MOL    C45 6539   4.103   0.635   3.293 -0.1048 -0.2082 -0.0613
   18MOL    C46 6540   3.968   0.702   3.256  0.1537  0.6368  0.6016
   18MOL    H47 6541   4.535   0.764   3.632 -1.3906  0.0360 -1.3364
   18MOL    H48 6542   4.670   0.659   3.633  1.7407  1.2236  0.1425
   18MOL    H49 6543   4.545   0.550   3.404 -0.3786  2.8952 -0.8831
   18MOL    H50 6544   4.352   0.562   3.290 -0.8806  0.0889 -1.1734
   18MOL    H51 6545   4.431   0.710   3.231 -0.5662  2.9880  1.3352
   18MOL    H52 6546   4.237   0.730   3.143 -0.8662  1.7046  0.6111
   18MOL    H53 6547   4.207   0.827   3.282 -2.8195 -0.8602  2.2921
   18MOL    H54 6548   4.111   0.625   3.401 -1.4342 -2.9195 -0.1852
   18MOL    H55 6549   4.111   0.533   3.255  2.2937  0.7247 -2.1836
   18MOL    H56 6550   3.893   0.659   3.323  0.0489 -0.9970 -0.5294
   18MOL    H57 6551   3.981   0.808   3.274  2.9523  0.6909 -1.4276
   18MOL    H58 6552   3.930   0.681   3.156  0.3878 -1.3532  0.8984
   18MOL    C59 6553   4.434   0.515   3.571 -0.3366 -0.5565 -0.6855
   18MOL    C60 6554   4.517   0.415   3.657 -0.1381  0.3425  0.3107
   18MOL    O61 6555   4.426   0.333   3.738  0.0782  0.1218 -0.4151
   18MOL    C62 6556   4.444   0.358   3.877 -0.5308  0.0463  0.3795
   18MOL    C63 6557   4.349   0.260   3.957 -0.3195 -0.9167 -0.0145
   18MOL    C64 6558   4.380   0.264   4.111  0.0867 -0.0446 -0.0147
   18MOL    C65 6559   4.312   0.145   4.189 -0.2264  0.2929  0.1621
   18MOL    H66 6560   4.380   0.575   3.644 -2.5995 -0.4192 -2.4517
   18MOL    H67 6561   4.360   0.454   3.520  1.0740 -1.3034 -1.8626
   18MOL    H68 6562   4.588   0.468   3.720  2.1160  0.1877 -2.0051
   18MOL    H69 6563   4.433   0.457   3.922 -3.7486 -0.4619  0.8426
   18MOL    H70 6564   4.546   0.328   3.900 -1.4561 -0.9307  3.4174
   18MOL    H71 6565   4.248   0.294   3.936 -0.4231 -0.8729  0.5532
   18MOL    H72 6566   4.360   0.162   3.910 -2.2057 -1.4080  0.5464
   18MOL    H73 6567   4.484   0.264   4.145 -0.6440 -1.4501  2.3539
   18MOL    H74 6568   4.328   0.347   4.159 -1.5756 -0.8441 -0.3935
   18MOL    H75 6569   4.304   0.168   4.295 -0.4432 -1.9595  0.6723
   18MOL    H76 6570   4.207   0.139   4.160  0.1817 -0.8338 -1.1488
   18MOL    H77 6571   4.363   0.050   4.169  1.9079  1.7607 -1.5480
   18MOL    C78 6572   4.605   0.319   3.575 -0.1279  0.1048  0.4617
   18MOL    C79 6573   4.739   0.294   3.641  0.0206 -0.6406 -0.5018
   18MOL    O80 6574   4.802   0.427   3.645 -0.7276  0.8485  0.6480
   18MOL    C81 6575   4.914   0.440   3.738  0.3191  0.3785 -0.0881
   18MOL    C82 6576   4.981   0.578   3.751 -0.4263 -0.0997  0.0595
   18MOL    C83 6577   4.901   0.680   3.842  0.0899  0.2097 -0.5461
   18MOL    C84 6578   4.974   0.804   3.883  0.0501  0.6418  0.3697
   18MOL    H85 6579   4.628   0.354   3.474 -2.5145 -1.3443 -0.6376
   18MOL    H86 6580   4.543   0.232   3.554  0.4348 -0.1985  0.0436
   18MOL    H87 6581   4.718   0.257   3.741 -1.2373  2.0246  0.2713
   18MOL    H88 6582   5.001   0.379   3.714  0.5497  0.6842 -0.0325
   18MOL    H89 6583   4.892   0.406   3.840 -1.8572 -0.8408 -0.9233
   18MOL    H90 6584   5.082   0.563   3.789 -0.5604  0.4508  0.6294
   18MOL    H91 6585   5.003   0.612   3.649  0.6692  0.0131  0.3275
   18MOL    H92 6586   4.860   0.631   3.930 -0.1594  1.5145  0.0831
   18MOL    H93 6587   4.812   0.724   3.797  0.2870  1.3084  0.1079
   18MOL    H94 6588   5.070   0.790   3.933  0.3081 -0.2529 -0.3518
   18MOL    H95 6589   4.998   0.873   3.802 -1.1562  0.3074 -0.2827
   18MOL    H96 6590   4.907   0.864   3.944 -1.7694 -2.3666  1.4405
   18MOL    C97 6591   4.821   0.189   3.565  0.1359 -0.3254 -0.3344
   18MOL    C98 6592   4.772   0.041   3.576  0.0265 -0.2170 -0.3775
   18MOL    O99 6593   4.865   7.767   3.500 -0.2651 -0.1420  0.7270
   18MOL   C100 6594   4.802   7.732   3.377 -0.3760 -0.0955 -0.1908
   18MOL   C101 6595   4.909   7.658   3.295 -0.5077 -0.5101 -0.0929
   18MOL   C102 6596   4.981   7.535   3.357 -0.4021  0.0812 -0.2928
   18MOL   C103 6597   5.090   7.480   3.268  0.4093  0.0072 -0.3013
   18MOL   H104 6598   4.921   0.204   3.605  0.6508 -1.8398 -1.0087
   18MOL   H105 6599   4.823   0.225   3.462  1.8411  1.4836  0.3239
   18MOL   H106 6600   4.668   0.030   3.543  0.1969 -1.1684 -0.6053
   18MOL   H107 6601   4.761   0.023   3.338  2.0184  1.3030  0.5384
   18MOL   H108 6602   4.717   7.666   3.393 -0.2274 -0.0843  0.6398
   18MOL   H109 6603   4.982   7.730   3.257  1.4517 -2.3791  0.0674
   18MOL   H110 6604   4.868   7.627   3.199  1.7132  1.8314 -1.8587
   18MOL   H111 6605   4.912   7.460   3.396  0.4575 -1.6095 -1.9021
   18MOL   H112 6606   5.028   7.570   3.448  0.4678  0.1011 -0.7404
   18MOL   H113 6607   5.064   7.450   3.166  2.9589 -2.4354 -0.3192
   18MOL   H114 6608   5.166   7.557   3.252 -0.6041  1.2415  0.7682
   18MOL   H115 6609   5.139   7.399   3.323  0.6496  0.2508 -0.1590
   18MOL   C116 6610   4.775   7.788   3.722 -0.0405 -0.4581 -0.2301
   18MOL   C117 6611   4.692   7.657   3.736 -0.5731  0.3111 -0.3016
   18MOL   O118 6612   4.753   7.569   3.823  0.0550  0.1348 -0.5026
   18MOL   C119 6613   4.869   7.503   3.766 -0.0102  0.0173  0.0584
   18MOL   C120 6614   4.950   7.427   3.874  0.4545  0.3388  0.6706
   18MOL   C121 6615   5.017   7.524   3.969  0.0721  0.3236  0.0374
   18MOL   C122 6616   5.122   7.458   4.058  0.3854 -0.6283 -0.3862
   18MOL   H123 6617   4.880   7.780   3.751 -1.1552 -0.5534  4.2103
   18MOL   H124 6618   4.729   0.049   3.799 -1.2425 -2.3851  0.6661
   18MOL   H125 6619   4.683   7.599   3.644  0.1465  1.7234 -1.2907
   18MOL   H126 6620   4.930   7.566   3.702 -0.5297 -0.0779 -0.5340
   18MOL   H127 6621   4.842   7.418   3.704 -0.2460 -1.4499  2.1080
   18MOL   H128 6622   5.022   7.371   3.814  0.4348 -2.5622  3.1795
   18MOL   H129 6623   4.890   7.362   3.939  1.1254  0.6097  1.5789
   18MOL   H130 6624   5.066   7.599   3.907 -0.2815  0.6026  0.0907
   18MOL   H131 6625   4.939   7.572   4.028 -1.3915 -2.0066  0.0470
   18MOL   H132 6626   5.174   7.540   4.108  0.2503 -0.1646 -0.9970
   18MOL   H133 6627   5.192   7.408   3.992 -0.9927 -0.2240 -2.1799
   18MOL   H134 6628   5.071   7.381   4.116 -0.8171  0.9486  0.7208
   18MOL   C135 6629   4.554   7.702   3.801  0.3136 -0.0830  0.0027
   18MOL   C136 6630   4.444   7.587   3.795  0.5105 -0.3182  0.1082
   18MOL   O137 6631   4.332   7.621   3.872  0.5930  0.0172  0.0938
   18MOL   C138 6632   4.337   7.589   4.010 -0.2672 -0.0581 -0.1486
   18MOL   C139 6633   4.196   7.615   4.072 -1.0129 -0.3854  0.5427
   18MOL   C140 6634   4.084   7.530   4.005 -0.3220  0.2202  0.0111
   18MOL   C141 6635   3.935   7.561   4.046  0.6123 -0.4116 -0.1318
   18MOL   H142 6636   4.511   7.785   3.745  0.0668 -0.0908  0.1788
   18MOL   H143 6637   4.564   7.727   3.907 -4.0312 -0.4140  0.5818
   18MOL   H144 6638   4.492   7.495   3.832 -0.4968 -0.8763  0.0380
   18MOL   H145 6639   4.411   7.657   4.052  0.2002 -0.9296  0.4667
   18MOL   H146 6640   4.373   7.487   4.026 -0.9480 -0.6412 -2.1460
   18MOL   H147 6641   4.176   7.721   4.059 -0.2275 -0.2169  0.7199
   18MOL   H148 6642   4.210   7.604   4.180  0.7496  3.5842  0.7727
   18MOL   H149 6643   4.095   7.543   3.897  1.6493  1.2953  0.3124
   18MOL   H150 6644   4.113   7.428   4.026 -2.2990 -0.4429 -0.3833
   18MOL   H151 6645   3.917   7.552   4.153 -3.8334  0.2510 -0.7218
   18MOL   H152 6646   3.902   7.655   4.003  0.2351 -0.3877  0.2180
   18MOL   H153 6647   3.873   7.482   4.003  0.3222 -0.5233  0.4820
   18MOL   C154 6648   4.395   7.564   3.647  0.0919  0.2638  0.8109
   18MOL   C155 6649   4.291   7.446   3.632 -0.3095 -0.0233  0.1193
   18MOL   O156 6650   4.372   7.329   3.645  0.1549  0.2741  0.0906
   18MOL   C157 6651   4.294   7.225   3.701  0.7055  0.0397  0.6590
   18MOL   C158 6652   4.396   7.111   3.731  0.6241  0.5876 -0.1946
   18MOL   C159 6653   4.474   7.069   3.612  0.0895  0.3129  0.2797
   18MOL   C160 6654   4.611   7.135   3.594 -0.3662 -0.4989  0.1687
   18MOL   H161 6655   4.475   7.529   3.582 -1.4731 -2.0966  0.0638
   18MOL   H162 6656   4.366   7.660   3.606  1.3386  1.6324  3.0618
   18MOL   H163 6657   4.228   7.450   3.720  0.1736 -0.9724  0.5159
   18MOL   H164 6658   4.244   7.258   3.792 -2.3328  0.9986 -1.2690
   18MOL   H165 6659   4.214   7.192   3.634 -0.3176  2.3860  0.6622
   18MOL   H166 6660   4.340   7.024   3.767  0.6696 -0.0056 -1.5247
   18MOL   H167 6661   4.464   7.131   3.813 -0.7476  0.2528  1.0628
   18MOL   H168 6662   4.486   6.961   3.610  2.2798  0.5401 -1.9604
   18MOL   H169 6663   4.409   7.096   3.530  1.6120  1.2258 -0.6575
   18MOL   H170 6664   4.606   7.243   3.600 -1.0825 -0.5609  0.7011
   18MOL   H171 6665   4.681   7.102   3.670 -0.0501  1.2140  0.6299
   18MOL   H172 6666   4.666   7.109   3.503 -0.1128 -2.5536  0.8812
   18MOL   C173 6667   4.186   7.454   3.520  0.6004  1.0694  0.2162
   18MOL   C174 6668   4.072   7.560   3.530  0.0036 -0.3713 -0.0106
   18MOL   O175 6669   4.126   7.684   3.490 -0.0645  0.0361  0.0571
   18MOL   C176 6670   4.105   7.786   3.585 -0.3321  0.4251 -0.3243
   18MOL   C177 6671   4.138   0.114   3.506 -0.4564 -0.0214  0.0890
   18MOL   C178 6672   4.023   0.152   3.412 -0.4355 -0.9669 -0.1872
   18MOL   C179 6673   4.067   0.278   3.333  0.4156 -0.7423  0.3249
   18MOL   H180 6674   4.139   7.356   3.516  0.0545  1.2209  2.4965
   18MOL   H181 6675   4.242   7.472   3.427 -2.3906 -0.2838 -1.9180
   18MOL   H182 6676   4.029   7.565   3.630 -2.1305 -2.5106 -0.7459
   18MOL   H183 6677   4.168   7.769   3.672 -1.1820 -2.8495 -0.2874
   18MOL   H184 6678   4.003   7.789   3.623 -0.5422 -1.5918 -0.7131
   18MOL   H185 6679   4.241   0.101   3.471  0.5102  0.6887  2.5282
   18MOL   H186 6680   4.160   0.192   3.579  0.1563 -1.3053  1.3212
   18MOL   H187 6681   4.017   0.070   3.341  2.1052 -1.1503 -0.2305
   18MOL   H188 6682   3.925   0.163   3.458  0.9391  2.8850  1.9996
   18MOL   H189 6683   4.126   0.347   3.394 -2.3042  1.7094  0.2946
   18MOL   H190 6684   4.123   0.254   3.243  0.2783  0.7547 -0.1635
   18MOL   H191 6685   3.977   0.334   3.307  2.9813  2.9763 -1.0312
   18MOL   C192 6686   3.942   7.531   3.448 -0.0848 -0.3250  0.5928
   18MOL   C193 6687   3.893   7.381   3.443  0.3273  0.4745 -0.4116
   18MOL   O194 6688   3.865   7.334   3.571  0.3026  0.0401 -0.5552
   18MOL   C195 6689   3.868   7.195   3.586  0.6579  0.4085  0.8068
   18MOL   C196 6690   3.806   7.154   3.720 -0.2983  0.6193 -0.1608
   18MOL   C197 6691   3.876   7.218   3.842  0.1388  0.4758 -0.1960
   18MOL   C198 6692   3.822   7.177   3.978  0.8721  0.4497 -0.4113
   18MOL   H199 6693   3.963   7.566   3.347 -2.8677 -1.7890 -0.5568
   18MOL   H200 6694   3.863   7.588   3.496  1.8360 -0.0528  3.5791
   18MOL   H201 6695   3.973   7.329   3.390  1.0395  1.2955 -0.1652
   18MOL   H202 6696   3.970   7.157   3.591  0.1676 -1.4466 -2.0184
   18MOL   H203 6697   3.810   7.137   3.515 -0.4198 -0.8909  2.6940
   18MOL   H204 6698   3.701   7.183   3.721 -0.2134  0.9138  1.1240
   18MOL   H205 6699   3.803   7.046   3.734  0.7102  0.5363 -0.4924
   18MOL   H206 6700   3.859   7.326   3.838 -2.6015  0.0209 -3.2518
   18MOL   H207 6701   3.983   7.198   3.840 -0.0965 -0.8704  0.3125
   18MOL   H208 6702   3.713   7.184   3.988  1.0041  1.7355  0.2335
   18MOL   H209 6703   3.854   7.074   3.985  0.4172  0.1890 -1.8894
   18MOL   H210 6704   3.859   7.248   4.052 -0.2897 -1.0341  1.6455
   18MOL   C211 6705   3.765   7.367   3.356 -0.1116 -0.4114 -0.0003
   18MOL   C212 6706   3.631   7.428   3.406  0.6906  0.0207 -0.4763
   18MOL   O213 6707   3.646   7.575   3.405  0.0269  0.5605 -0.1195
   18MOL   C214 6708   3.563   7.638   3.507  0.0694 -0.2679  0.2458
   18MOL   C215 6709   3.637   7.663   3.644  0.4744  0.0593 -0.3897
   18MOL   C216 6710   3.726   7.784   3.655 -0.2540 -0.1644 -0.3445
   18MOL   C217 6711   3.803   7.776   3.785 -0.3771  0.4793 -0.2844
   18MOL   H218 6712   3.748   7.260   3.340 -1.6708 -0.3360  1.0037
   18MOL   H219 6713   3.787   7.399   3.254  0.1610  1.0267  0.4934
   18MOL   H220 6714   3.616   7.383   3.504 -1.3467  1.2888 -0.1778
   18MOL   H221 6715   3.521   7.732   3.470  0.8970  0.7873  1.9709
   18MOL   H222 6716   3.465   7.594   3.529 -0.5844  1.0633  0.0911
   18MOL   H223 6717   3.563   7.669   3.724  0.6228  0.1722 -0.2618
   18MOL   H224 6718   3.693   7.575   3.674  1.2858  0.5805 -0.3616
   18MOL   H225 6719   3.674   0.078   3.646  1.1683  0.7081  0.5633
   18MOL   H226 6720   3.791   7.795   3.568  0.3203  0.2747  0.1320
   18MOL   H227 6721   3.739   7.766   3.873  0.8809 -0.6854  0.5150
   18MOL   H228 6722   3.863   0.064   3.800 -0.5390  0.6202 -0.4737
   18MOL   H229 6723   3.873   7.693   3.782 -0.6942  0.2294 -0.9931
   18MOL   C230 6724   3.516   7.404   3.301  0.2045 -0.3886 -0.3922
   18MOL   C231 6725   3.390   7.331   3.355 -0.8624 -0.3804 -0.1808
   18MOL   O232 6726   3.285   7.319   3.256 -0.6396  0.6269  0.2882
   18MOL   C233 6727   3.190   7.430   3.261 -0.6912  0.3302 -0.5831
   18MOL   C234 6728   3.075   7.409   3.169  0.3112 -0.0975  0.2516
   18MOL   C235 6729   2.986   7.289   3.210 -0.4062  0.4409 -0.1331
   18MOL   C236 6730   2.856   7.282   3.129  0.0151  0.0281  0.0584
   18MOL   H237 6731   3.557   7.353   3.214  1.7919  1.2524 -0.6185
   18MOL   H238 6732   3.491   7.503   3.262  0.8285 -0.1154 -0.0955
   18MOL   H239 6733   3.360   7.387   3.443 -2.5462  0.2259 -1.1295
   18MOL   H240 6734   3.161   7.443   3.365  0.2058  0.9243 -0.4033
   18MOL   H241 6735   3.248   7.516   3.226  0.0181  0.1386  0.0957
   18MOL   H242 6736   3.016   7.502   3.171  1.0109  0.4016 -1.5295
   18MOL   H243 6737   3.112   7.387   3.069  0.6767 -1.7636  0.7475
   18MOL   H244 6738   2.963   7.298   3.316  0.3662 -0.1226  0.0859
   18MOL   H245 6739   3.041   7.198   3.188 -1.8499 -0.7298  0.9449
   18MOL   H246 6740   2.795   7.367   3.160 -1.4558 -1.3505  1.0135
   18MOL   H247 6741   2.792   7.200   3.159 -0.1397  0.3533  0.6246
   18MOL   H248 6742   2.868   7.298   3.022  0.2944 -0.1503  0.0608
   18MOL   C249 6743   3.426   7.181   3.380  0.8979 -0.3796  0.1973
   18MOL   C250 6744   3.323   7.088   3.446  1.0650  0.0835  0.3789
   18MOL   O251 6745   3.270   7.150   3.562 -0.3909 -0.3339  0.0128
   18MOL   C252 6746   3.134   7.137   3.585 -0.2947 -0.7495 -0.0861
   18MOL   C253 6747   3.082   7.256   3.672 -0.5408  0.4113  0.5110
   18MOL   C254 6748   3.143   7.253   3.810  0.4289  0.7659  0.0710
   18MOL   C255 6749   3.107   7.374   3.894 -1.0777 -0.4001 -0.1444
   18MOL   H256 6750   3.509   7.177   3.449 -0.4581  0.1137  1.8933
   18MOL   H257 6751   3.443   7.128   3.286 -0.8703 -1.4615  0.4466
   18MOL   H258 6752   3.245   7.083   3.370  1.2630  1.3903  0.0880
   18MOL   H259 6753   3.112   7.044   3.638  0.5505 -0.1393  1.3349
   18MOL   H260 6754   3.076   7.140   3.492  1.2545  2.2347 -1.0260
   18MOL   H261 6755   3.106   7.354   3.630 -2.2581 -0.1945 -2.0026
   18MOL   H262 6756   2.974   7.239   3.677 -0.4416  0.1448  1.7956
   18MOL   H263 6757   3.091   7.171   3.859  0.0219  2.1713  2.0398
   18MOL   H264 6758   3.250   7.234   3.813  0.3987  0.8903  2.3669
   18MOL   H265 6759   3.119   7.353   4.001  1.0327  1.1850 -0.0389
   18MOL   H266 6760   3.005   7.404   3.872 -1.1064  0.7608  1.4544
   18MOL   H267 6761   3.162   7.465   3.873  0.4855 -0.7768  2.1786
   18MOL   C268 6762   3.373   6.947   3.476  0.1907 -0.1969 -0.4082
   18MOL   C269 6763   3.479   6.929   3.588 -0.2048  0.0459 -0.4960
   18MOL   O270 6764   3.408   6.927   3.716 -0.0214 -0.2565  0.7095
   18MOL   C271 6765   3.479   6.966   3.831 -0.4025  0.2595  0.3203
   18MOL   C272 6766   3.375   6.953   3.937 -0.1511 -0.4085  0.2178
   18MOL   C273 6767   3.311   6.817   3.941  0.2044  0.1018  0.5264
   18MOL   C274 6768   3.409   6.702   3.956 -0.1830  0.9611  0.0960
   18MOL   H275 6769   3.290   6.880   3.499 -0.3614  0.7891  0.5854
   18MOL   H276 6770   3.413   6.911   3.382  1.8050 -0.3752  0.3155
   18MOL   H277 6771   3.542   7.017   3.600 -0.0571 -0.1904  0.5305
   18MOL   H278 6772   3.573   6.919   3.859 -0.7990  0.4372  2.0155
   18MOL   H279 6773   3.501   7.073   3.831  1.1827 -0.0488 -1.5255
   18MOL   H280 6774   3.429   6.977   4.029  1.9415 -1.2364 -0.7710
   18MOL   H281 6775   3.295   7.026   3.923  0.4609 -0.0753 -1.7327
   18MOL   H282 6776   3.253   6.799   3.850  0.2430 -1.5786  0.8147
   18MOL   H283 6777   3.243   6.806   4.025  0.9523 -1.1229  0.9711
   18MOL   H284 6778   3.433   6.664   3.856  0.0522  1.4637 -0.0367
   18MOL   H285 6779   3.372   6.615   4.010 -0.1334  0.8523 -0.0433
   18MOL   H286 6780   3.494   6.731   4.017  0.5456  1.1858 -1.0080
   18MOL   C287 6781   3.572   6.806   3.577 -0.7872  0.5292 -0.1153
   18MOL   C288 6782   3.644   6.773   3.446  0.0743  0.1413  0.3256
   18MOL   O289 6783   3.727   6.659   3.471  0.7054  0.2132 -0.0123
   18MOL   C290 6784   3.733   6.559   3.371 -0.4637 -0.6609 -1.2386
   18MOL   C291 6785   3.833   6.450   3.416  0.0082  0.0041  0.2800
   18MOL   C292 6786   3.835   6.325   3.332  0.4818  0.4469  0.1686
   18MOL   C293 6787   3.704   6.258   3.307 -0.4226  0.1617  1.0898
   18MOL   H294 6788   3.520   6.714   3.606 -0.3040  0.0951 -0.6261
   18MOL   H295 6789   3.649   6.809   3.654  0.3329  1.0504 -1.2338
   18MOL   H296 6790   3.579   6.752   3.361  0.6782  4.1147 -1.2138
   18MOL   H297 6791   3.635   6.512   3.365 -0.2579 -1.1027 -1.1502
   18MOL   H298 6792   3.769   6.593   3.274  2.0113  2.5720  0.7204
   18MOL   H299 6793   3.807   6.433   3.521 -0.9271 -1.1488 -0.1228
   18MOL   H300 6794   3.936   6.486   3.416  0.9008 -2.4054  2.0149
   18MOL   H301 6795   3.910   6.255   3.368  0.1531 -0.2599 -0.5097
   18MOL   H302 6796   3.869   6.360   3.235 -2.8486  1.3489 -0.7363
   18MOL   H303 6797   3.730   6.162   3.263  0.6329  1.0839 -0.3889
   18MOL   H304 6798   3.651   6.250   3.401 -0.1577 -2.3379  1.0504
   18MOL   H305 6799   3.643   6.317   3.239  1.1986  1.1766  0.4779
   18MOL   C306 6800   3.734   6.891   3.406 -0.6075 -0.5342  0.4943
   18MOL   C307 6801   3.773   6.907   3.257  1.0023 -0.1926  0.6498
   18MOL   O308 6802   3.879   6.995   3.249  0.7674  0.3102 -0.0742
   18MOL   C309 6803   3.999   6.944   3.198  0.1730  0.0681  0.1603
   18MOL   C310 6804   4.098   7.067   3.220 -0.2387 -0.2428  0.0682
   18MOL   C311 6805   4.075   7.182   3.121  0.1736  0.7999  0.3865
   18MOL   C312 6806   4.168   7.300   3.147 -0.6527  0.3185 -1.3418
   18MOL   H313 6807   3.683   6.985   3.428 -0.5228 -0.2072 -0.7058
   18MOL   H314 6808   3.816   6.876   3.476 -0.5159 -0.6598  0.3610
   18MOL   H315 6809   3.795   6.808   3.218  1.4652  0.5049 -0.8978
   18MOL   H316 6810   3.982   6.916   3.094 -0.7196 -0.9333  0.5757
   18MOL   H317 6811   4.043   6.859   3.251 -1.3834  0.0151  1.3962
   18MOL   H318 6812   4.201   7.034   3.207 -0.2560  0.5705 -2.2311
   18MOL   H319 6813   4.098   7.106   3.322 -2.8650  0.9910 -0.3604
   18MOL   H320 6814   4.094   7.150   3.019 -1.2685  0.5410  0.1860
   18MOL   H321 6815   3.969   7.206   3.115 -0.1242 -0.8217 -1.4029
   18MOL   H322 6816   4.259   7.296   3.088 -0.1323 -1.4728 -0.4539
   18MOL   H323 6817   4.186   7.307   3.255 -0.8287  0.0931 -1.2962
   18MOL   H324 6818   4.118   7.393   3.121 -1.2749  0.8680  1.5459
   18MOL   C325 6819   3.657   6.975   3.184  0.1210  0.4789  0.4618
   18MOL   C326 6820   3.642   6.940   3.027  0.4331 -1.0391 -0.7442
   18MOL   O327 6821   3.583   6.810   3.035  0.1901  0.4272  0.0594
   18MOL   C328 6822   3.543   6.744   2.921  0.0022 -0.7045  0.3469
   18MOL   C329 6823   3.556   6.601   2.972 -0.1360  0.1456 -0.1789
   18MOL   C330 6824   3.509   6.499   2.877  0.2691  0.0335  0.3171
   18MOL   C331 6825   3.515   6.351   2.939  0.7866  0.2451 -0.1110
   18MOL   H332 6826   3.673   7.082   3.188  3.4512  0.0184  0.8157
   18MOL   H333 6827   3.557   6.953   3.220 -0.4459  0.8198 -0.8896
   18MOL   H334 6828   3.745   6.929   2.992  1.1693  0.1370  0.9805
   18MOL   H335 6829   3.600   6.753   2.828 -1.7758  0.7258 -0.6113
   18MOL   H336 6830   3.440   6.762   2.893 -0.3645 -2.7925  0.2285
   18MOL   H337 6831   3.663   6.587   2.983 -0.0333  0.9241 -0.1652
   18MOL   H338 6832   3.506   6.585   3.067  2.0135  2.4841  1.4128
   18MOL   H339 6833   3.569   6.509   2.786  1.3981  0.7218  1.1187
   18MOL   H340 6834   3.405   6.523   2.856  0.9938  0.5156 -3.0882
   18MOL   H341 6835   3.617   6.325   2.964  1.2322  0.9425 -1.1805
   18MOL   H342 6836   3.481   6.280   2.863  1.3503 -1.1043  0.8856
   18MOL   H343 6837   3.439   6.345   3.018  0.0087 -0.2978 -0.8917
   18MOL   C344 6838   3.568   7.033   2.940  0.1011 -0.4835  0.4361
   18MOL   C345 6839   3.609   7.184   2.934 -0.2564  0.0449  1.2186
   18MOL   O346 6840   3.529   7.254   2.837  0.5312 -0.1463 -0.2017
   18MOL   C347 6841   3.420   7.321   2.903  0.2065  0.3014  0.5775
   18MOL   C348 6842   3.331   7.376   2.795  0.6143  0.2354 -0.4602
   18MOL   C349 6843   3.273   7.270   2.699  0.6666  0.4363  0.4894
   18MOL   C350 6844   3.208   7.156   2.781 -0.0538  0.0739  0.4040
   18MOL   H351 6845   3.577   7.004   2.835 -0.5222 -4.2673  1.3440
   18MOL   H352 6846   3.464   7.030   2.972  0.4066 -0.1704  1.4835
   18MOL   H353 6847   3.590   7.224   3.034 -2.8402  4.3484 -0.8384
   18MOL   H354 6848   3.459   7.406   2.960  0.9318 -0.6066  1.4566
   18MOL   H355 6849   3.367   7.253   2.970 -1.4424 -0.8104 -1.7766
   18MOL   H356 6850   3.392   7.448   2.741 -0.5367  0.2673 -1.7454
   18MOL   H357 6851   3.251   7.437   2.836  0.7542 -0.1852  0.4610
   18MOL   H358 6852   3.199   7.323   2.639  0.2863 -0.9207 -0.2399
   18MOL   H359 6853   3.349   7.212   2.646 -0.6531 -1.5815  0.7701
   18MOL   H360 6854   3.137   7.195   2.854 -0.6875 -1.5576  0.6700
   18MOL   H361 6855   3.279   7.087   2.827 -0.6731  0.0988  1.4143
   18MOL   H362 6856   3.153   7.090   2.714 -0.8313  0.2880  0.8209
   18MOL   C363 6857   3.757   7.216   2.889  0.1069 -0.2101 -0.1549
   18MOL   C364 6858   3.795   7.362   2.906 -0.9757  0.2498 -0.9201
   18MOL   O365 6859   3.936   7.380   2.874  0.3275 -0.3601 -0.2387
   18MOL   C366 6860   3.986   7.508   2.912  0.1594 -0.1045  0.0101
   18MOL   C367 6861   4.134   7.522   2.871 -0.2817 -0.0810 -0.3420
   18MOL   C368 6862   4.195   7.662   2.897  0.4796 -0.5372 -0.3881
   18MOL   C369 6863   4.344   7.680   2.846 -0.2715 -0.1979  0.1408
   18MOL   H370 6864   3.769   7.181   2.787 -1.9042  1.5837 -1.0568
   18MOL   H371 6865   3.831   7.164   2.950  0.2993 -2.1029 -1.9624
   18MOL   H372 6866   3.777   7.393   3.009  1.6891  0.2211 -0.4057
   18MOL   H373 6867   3.975   7.528   3.019  0.1538  0.7479 -0.1480
   18MOL   H374 6868   3.928   7.592   2.873  1.9148  1.7143  1.1829
   18MOL   H375 6869   4.144   7.514   2.763  2.5452  0.9865 -0.2077
   18MOL   H376 6870   4.184   7.437   2.916 -0.1123 -0.0720 -0.5087
   18MOL   H377 6871   4.196   7.686   3.004  1.3121 -0.9534 -0.3012
   18MOL   H378 6872   4.122   7.731   2.855 -0.2235  1.0788  3.2287
   18MOL   H379 6873   4.380   7.774   2.890 -1.4620  0.3498 -0.0355
   18MOL   H380 6874   4.404   7.592   2.868  0.1512  0.6772  2.7161
   18MOL   H381 6875   4.342   7.694   2.738  0.2465 -0.4886  0.0926
   18MOL   H382 6876   3.722   7.416   2.846 -0.1291 -0.6609 -2.8016
   19MOL     C1 6877   6.762   0.403   4.609  0.3487  0.8213 -0.3351
   19MOL     C2 6878   6.637   0.324   4.647  0.1433  0.2372  0.3350
   19MOL     O3 6879   6.611   0.220   4.551  0.0336  0.3726  0.1672
   19MOL     C4 6880   6.545   0.268   4.441  0.1285 -0.5599  0.2923
   19MOL     C5 6881   6.591   0.189   4.320  0.1138 -0.1831 -0.5017
   19MOL     C6 6882   6.588   0.043   4.348  0.3297  0.1641  0.0534
   19MOL     C7 6883   6.450   7.781   4.346 -0.1185 -0.5040  0.4830
   19MOL     H8 6884   6.839   0.335   4.574 -0.4810 -0.2282 -0.1555
   19MOL     H9 6885   6.751   0.475   4.528 -0.9941  0.7026 -0.2809
   19MOL    H10 6886   6.553   0.392   4.644 -0.8893 -1.0214  0.0327
   19MOL    H11 6887   6.438   0.261   4.457  0.3999  0.3389  2.7392
   19MOL    H12 6888   6.556   0.376   4.432  0.2701 -0.6018 -0.0318
   19MOL    H13 6889   6.697   0.213   4.314  0.3466 -1.0012  0.3063
   19MOL    H14 6890   6.536   0.208   4.228 -2.1144  0.0337  0.8525
   19MOL    H15 6891   6.639   0.020   4.442 -0.2458 -0.4973  0.2020
   19MOL    H16 6892   6.651   7.791   4.277  0.1100  1.3387 -1.0484
   19MOL    H17 6893   6.404   7.782   4.248  1.2355 -0.9326 -0.1721
   19MOL    H18 6894   6.386   0.026   4.421  0.0744  2.2676 -1.0380
   19MOL    H19 6895   6.475   7.676   4.363  1.6565 -0.1024  0.4187
   19MOL    H20 6896   6.811   0.458   4.690  1.2841  1.1204 -1.1013
   19MOL    C21 6897   6.657   0.250   4.781  0.1419  0.0349 -0.4836
   19MOL    C22 6898   6.547   0.150   4.821 -0.6069  0.6757 -0.6357
   19MOL    O23 6899   6.593   0.056   4.918  0.1048  0.2086 -0.0368
   19MOL    C24 6900   6.530   7.730   4.939 -0.4286 -0.1059  0.0091
   19MOL    C25 6901   6.612   7.643   5.036 -0.0465  0.3225 -0.4506
   19MOL    C26 6902   6.547   7.505   5.059  0.1548 -0.3596  0.2830
   19MOL    C27 6903   6.629   7.421   5.159  0.0749 -0.0633 -0.0603
   19MOL    H28 6904   6.677   0.321   4.861 -0.1857 -1.7877  1.2673
   19MOL    H29 6905   6.745   0.187   4.773  1.2022  1.5905 -1.2833
   19MOL    H30 6906   6.524   0.090   4.732  0.0385 -1.8755  0.8764
   19MOL    H31 6907   6.511   7.671   4.849  0.7611 -1.4251  0.6047
   19MOL    H32 6908   6.437   7.756   4.989 -0.0273 -1.4169  1.4666
   19MOL    H33 6909   6.713   7.631   4.997  0.0591  2.8857 -1.1032
   19MOL    H34 6910   6.630   7.696   5.130  3.0490 -3.0827  0.9672
   19MOL    H35 6911   6.449   7.526   5.101  0.1244 -0.0626  0.0714
   19MOL    H36 6912   6.530   7.446   4.969 -1.6219 -1.4933  1.3560
   19MOL    H37 6913   6.653   7.474   5.251  1.5198  1.3154 -1.1848
   19MOL    H38 6914   6.575   7.334   5.195  0.1119  0.5632  1.5182
   19MOL    H39 6915   6.727   7.390   5.120 -0.1094  3.5783 -3.8564
   19MOL    C40 6916   6.410   0.204   4.854  0.1776  0.2717 -0.0547
   19MOL    C41 6917   6.393   0.305   4.972 -0.1396  0.1557  0.4243
   19MOL    O42 6918   6.294   0.251   5.064 -0.1561  0.0537 -0.1511
   19MOL    C43 6919   6.347   0.229   5.194  0.1096  0.1679  0.0368
   19MOL    C44 6920   6.243   0.140   5.267 -0.0725  0.3885  0.6063
   19MOL    C45 6921   6.236   7.801   5.213 -0.4045  0.1412  0.4218
   19MOL    C46 6922   6.115   7.726   5.267  0.3661 -0.6462  0.3072
   19MOL    H47 6923   6.350   0.115   4.873 -0.2505  0.4191 -0.7067
   19MOL    H48 6924   6.371   0.244   4.761  0.2697 -1.1576 -0.7076
   19MOL    H49 6925   6.489   0.314   5.022 -0.7432 -0.3882  1.6989
   19MOL    H50 6926   6.353   0.328   5.239  1.3411 -0.1660  0.6342
   19MOL    H51 6927   6.447   0.186   5.189  0.5068  0.8564  1.6416
   19MOL    H52 6928   6.150   0.197   5.268 -0.1497  0.2629  0.5417
   19MOL    H53 6929   6.269   0.146   5.373  2.0965  0.7275  0.0862
   19MOL    H54 6930   6.326   7.741   5.221 -0.5051  0.1116  1.4590
   19MOL    H55 6931   6.206   0.015   5.109  1.7461  1.1692 -0.0648
   19MOL    H56 6932   6.020   7.764   5.231 -0.0029 -1.0420  0.8484
   19MOL    H57 6933   6.114   7.623   5.233 -1.5224 -0.5745  0.1241
   19MOL    H58 6934   6.108   7.731   5.376 -0.2924 -0.7876  0.2724
   19MOL    C59 6935   6.348   0.448   4.934  0.6097  0.1010 -0.0865
   19MOL    C60 6936   6.367   0.561   5.038 -0.1957 -0.3286  0.4409
   19MOL    O61 6937   6.508   0.592   5.041  0.1125  0.1238  0.0805
   19MOL    C62 6938   6.575   0.565   5.163  0.4213  0.1240  0.3334
   19MOL    C63 6939   6.712   0.508   5.122  0.7234 -0.2591 -0.3277
   19MOL    C64 6940   6.785   0.610   5.031  0.6154  0.0156 -0.2209
   19MOL    C65 6941   6.938   0.628   5.028 -0.7710  0.0783 -0.3433
   19MOL    H66 6942   6.392   0.480   4.839 -0.1047 -1.6358 -1.0317
   19MOL    H67 6943   6.242   0.440   4.907  0.7706 -1.9714 -0.1481
   19MOL    H68 6944   6.322   0.529   5.131 -2.0166  0.9763  0.0356
   19MOL    H69 6945   6.515   0.500   5.226  0.3860 -0.6284 -0.4734
   19MOL    H70 6946   6.586   0.659   5.217  2.0695 -0.7701  1.6007
   19MOL    H71 6947   6.776   0.491   5.208 -0.3223  0.8777  0.6967
   19MOL    H72 6948   6.700   0.416   5.066  1.1370 -1.4260  1.4884
   19MOL    H73 6949   6.757   0.600   4.926 -2.7350  1.0431  0.4947
   19MOL    H74 6950   6.745   0.709   5.052 -0.8834 -0.3557 -1.2367
   19MOL    H75 6951   6.981   0.616   5.128 -0.3479  3.6887 -0.0018
   19MOL    H76 6952   6.994   0.556   4.969 -0.7676 -2.0238  2.0979
   19MOL    H77 6953   6.964   0.732   5.009 -0.5297  0.1947  0.5790
   19MOL    C78 6954   6.293   0.694   4.988 -0.3133 -0.1096  0.2280
   19MOL    C79 6955   6.311   0.806   5.088  0.3568  0.7239 -0.2909
   19MOL    O80 6956   6.247   0.760   5.210  0.4107  0.0467 -0.0056
   19MOL    C81 6957   6.294   0.798   5.338  0.0285 -0.2911  0.7422
   19MOL    C82 6958   6.194   0.761   5.444 -0.2094  0.1863  0.2856
   19MOL    C83 6959   6.180   0.608   5.454 -0.0501 -0.0815 -0.4653
   19MOL    C84 6960   6.300   0.533   5.498 -0.1972  0.7387 -0.5505
   19MOL    H85 6961   6.189   0.665   4.976 -1.2770  2.8243  1.0714
   19MOL    H86 6962   6.338   0.725   4.894 -2.3347 -0.5406 -0.9019
   19MOL    H87 6963   6.416   0.818   5.111  0.1362 -0.0662  1.1583
   19MOL    H88 6964   6.292   0.907   5.342  0.7895 -0.1427 -1.7851
   19MOL    H89 6965   6.393   0.755   5.356  1.3223  2.0037 -0.7025
   19MOL    H90 6966   6.228   0.800   5.540 -2.3014 -0.2928  1.2518
   19MOL    H91 6967   6.096   0.799   5.415  0.3271  1.2410 -0.1515
   19MOL    H92 6968   6.143   0.559   5.364  3.5545 -0.0557 -2.0387
   19MOL    H93 6969   6.097   0.591   5.523  1.6187  0.7938  1.8425
   19MOL    H94 6970   6.322   0.581   5.593 -0.4578  0.6228 -0.4317
   19MOL    H95 6971   6.265   0.432   5.522 -4.5332  2.4897  0.9975
   19MOL    H96 6972   6.378   0.524   5.421 -0.9576 -3.0248 -0.9670
   19MOL    C97 6973   6.254   0.938   5.038 -0.6402  0.0106 -0.3562
   19MOL    C98 6974   6.313   1.003   4.919  0.5167  0.7906  0.0347
   19MOL    O99 6975   6.250   1.125   4.896 -0.0675 -0.2514  0.0954
   19MOL   C100 6976   6.132   1.121   4.809  0.8693 -0.1061  0.3176
   19MOL   C101 6977   6.127   1.255   4.744  0.1106 -0.0790 -0.1361
   19MOL   C102 6978   6.009   1.272   4.644  0.7694 -0.0165 -0.1713
   19MOL   C103 6979   5.871   1.252   4.698 -0.0906  0.6912 -0.7178
   19MOL   H104 6980   6.243   1.012   5.117  1.2608  0.2255 -0.2539
   19MOL   H105 6981   6.152   0.913   5.009  0.5261 -1.2782 -3.6164
   19MOL   H106 6982   6.299   0.949   4.826  0.2206  0.7089  0.1244
   19MOL   H107 6983   6.042   1.092   4.864  1.0735 -1.0064  0.1914
   19MOL   H108 6984   6.145   1.044   4.733  0.8909  0.8903 -0.7042
   19MOL   H109 6985   6.228   1.273   4.707  0.9491 -1.5276  1.3506
   19MOL   H110 6986   6.128   1.324   4.829 -0.1171  1.0976 -1.0816
   19MOL   H111 6987   6.024   1.211   4.555  5.4740 -0.1793  0.6287
   19MOL   H112 6988   6.026   1.373   4.608 -2.8810  0.6996 -0.0193
   19MOL   H113 6989   5.798   1.269   4.618  0.5072  2.0627 -0.9849
   19MOL   H114 6990   5.863   1.149   4.733  0.8374  0.8493 -0.0408
   19MOL   H115 6991   5.850   1.321   4.780 -2.1552 -0.9701  0.1971
   19MOL   C116 6992   6.464   1.032   4.944 -0.7269  0.1601 -0.0648
   19MOL   C117 6993   6.489   1.118   5.073 -0.5033  0.2670  0.8166
   19MOL   O118 6994   6.626   1.139   5.094  0.1466 -0.2628 -0.3390
   19MOL   C119 6995   6.698   1.017   5.123  0.5231  0.6856  0.4055
   19MOL   C120 6996   6.817   1.070   5.199 -0.1203  0.0367 -1.0482
   19MOL   C121 6997   6.789   1.126   5.342 -0.3528  0.6947 -0.3018
   19MOL   C122 6998   6.761   1.002   5.439  0.3212 -0.3903  0.2487
   19MOL   H123 6999   6.505   0.932   4.962 -1.7591 -0.4219 -0.9355
   19MOL   H124 7000   6.508   1.074   4.854 -0.3769  0.2696  0.1563
   19MOL   H125 7001   6.442   1.074   5.161 -3.2537  1.2107 -0.1233
   19MOL   H126 7002   6.733   0.965   5.034 -0.9637  0.9283 -0.3477
   19MOL   H127 7003   6.653   0.943   5.189  4.0531 -1.8086  0.1598
   19MOL   H128 7004   6.864   1.150   5.141  0.5312 -0.5309 -1.3041
   19MOL   H129 7005   6.905   1.006   5.199  2.1399  2.9787  0.7144
   19MOL   H130 7006   6.873   1.185   5.378  0.8699 -1.6635  0.8486
   19MOL   H131 7007   6.708   1.197   5.345  2.2633  3.8129 -0.8960
   19MOL   H132 7008   6.763   1.053   5.535  0.1678  4.0653 -1.9751
   19MOL   H133 7009   6.839   0.926   5.449  0.3669  0.0046  3.3691
   19MOL   H134 7010   6.664   0.957   5.422  0.8346 -1.5876  0.4434
   19MOL   C135 7011   6.438   1.267   5.074 -0.0068  0.0071 -0.3554
   19MOL   C136 7012   6.470   1.345   5.212  0.0744 -0.1887  0.3349
   19MOL   O137 7013   6.399   1.464   5.200 -0.4569 -0.0613 -0.3601
   19MOL   C138 7014   6.453   1.571   5.127 -0.4744 -0.1761 -0.4973
   19MOL   C139 7015   6.384   1.709   5.157 -0.5129  0.6064 -0.1228
   19MOL   C140 7016   6.473   1.821   5.101  0.1572  0.1223 -0.4544
   19MOL   C141 7017   6.438   1.961   5.155 -0.5155  0.1689 -0.3639
   19MOL   H142 7018   6.330   1.254   5.076  0.2631 -2.4474 -0.1709
   19MOL   H143 7019   6.466   1.321   4.984  0.2623  0.7831  0.1875
   19MOL   H144 7020   6.576   1.358   5.235  0.5965 -2.4197 -0.7082
   19MOL   H145 7021   6.437   1.539   5.024 -0.1230  0.7540 -0.8464
   19MOL   H146 7022   6.561   1.583   5.142 -0.9548  2.6640  1.1717
   19MOL   H147 7023   6.380   1.727   5.264 -0.4303 -2.4600  0.4482
   19MOL   H148 7024   6.277   1.712   5.136 -0.7469 -1.9086  0.5907
   19MOL   H149 7025   6.579   1.800   5.111  0.5911  2.2423 -0.4413
   19MOL   H150 7026   6.461   1.823   4.993  0.9326  4.8391 -0.5553
   19MOL   H151 7027   6.458   1.973   5.261 -0.0760  0.7955 -0.5157
   19MOL   H152 7028   6.488   2.045   5.108 -1.2106  0.3814 -0.7281
   19MOL   H153 7029   6.332   1.976   5.137 -0.9341 -0.9069  1.0876
   19MOL   C154 7030   6.411   1.273   5.338  0.5754 -0.2810  0.2254
   19MOL   C155 7031   6.378   1.353   5.465  0.2681 -0.2904 -0.0254
   19MOL   O156 7032   6.496   1.413   5.516  0.3093 -0.4871  0.2898
   19MOL   C157 7033   6.486   1.538   5.567 -0.2368  0.4735  0.0785
   19MOL   C158 7034   6.630   1.578   5.593  0.0242  1.0531 -0.2188
   19MOL   C159 7035   6.702   1.520   5.712  0.7828 -0.1738 -0.3523
   19MOL   C160 7036   6.619   1.562   5.842 -0.2373  0.2525  0.3088
   19MOL   H161 7037   6.477   1.191   5.367  0.8515  0.3303  1.3595
   19MOL   H162 7038   6.322   1.217   5.309 -0.9720  2.0321  0.3583
   19MOL   H163 7039   6.318   1.437   5.429  0.2207 -1.1460 -2.0256
   19MOL   H164 7040   6.444   1.607   5.493  0.3940 -1.4890 -2.1915
   19MOL   H165 7041   6.430   1.549   5.660  3.1255  1.1140  2.0817
   19MOL   H166 7042   6.620   1.687   5.593 -0.6517  1.0066  0.8716
   19MOL   H167 7043   6.683   1.561   5.500  0.1140  0.2381 -0.0243
   19MOL   H168 7044   6.701   1.411   5.707  3.0876 -0.3606  1.9316
   19MOL   H169 7045   6.806   1.550   5.721  0.1123  1.9213  0.6438
   19MOL   H170 7046   6.691   1.553   5.923  1.1886 -1.6913 -1.1540
   19MOL   H171 7047   6.610   1.671   5.841 -0.6300  0.2205 -0.1998
   19MOL   H172 7048   6.521   1.517   5.860  0.1942 -0.2524  1.3937
   19MOL   C173 7049   6.293   1.289   5.574  0.5891  0.0830  0.4117
   19MOL   C174 7050   6.370   1.233   5.696  0.0287 -0.1332 -0.0916
   19MOL   O175 7051   6.280   1.205   5.803 -0.0876 -0.4106  0.1107
   19MOL   C176 7052   6.240   1.316   5.883  0.3674  0.0405 -0.1724
   19MOL   C177 7053   6.093   1.344   5.875  0.1856 -0.0876  0.8522
   19MOL   C178 7054   6.039   1.441   5.979 -0.5620 -0.1571 -0.4687
   19MOL   C179 7055   6.116   1.575   5.955 -0.2892  0.4540  0.5875
   19MOL   H180 7056   6.219   1.216   5.541 -0.0041  0.5144  0.7898
   19MOL   H181 7057   6.236   1.373   5.612  0.5739 -0.4871  1.6567
   19MOL   H182 7058   6.449   1.301   5.726  0.8076 -0.6514 -0.9358
   19MOL   H183 7059   6.309   1.400   5.869  1.3880 -0.8886 -0.8181
   19MOL   H184 7060   6.261   1.296   5.988  1.1404 -2.5908 -0.7859
   19MOL   H185 7061   6.054   1.243   5.886 -3.7544  1.0062 -1.6491
   19MOL   H186 7062   6.080   1.393   5.778 -0.2179 -1.9714 -0.0673
   19MOL   H187 7063   5.931   1.452   5.968 -0.4802  1.1107 -0.1309
   19MOL   H188 7064   6.055   1.402   6.079  2.2254  1.2373 -0.3238
   19MOL   H189 7065   6.214   1.578   6.004 -0.4732 -0.7397  1.0371
   19MOL   H190 7066   6.124   1.610   5.853  0.2210  0.7504  0.7272
   19MOL   H191 7067   6.052   1.650   6.003 -0.6206  1.4582 -1.3877
   19MOL   C192 7068   6.444   1.104   5.663  0.8146  0.0735  0.4210
   19MOL   C193 7069   6.534   1.041   5.773 -0.5795  0.3048  0.5796
   19MOL   O194 7070   6.608   0.928   5.729  0.1683 -0.0142 -0.2280
   19MOL   C195 7071   6.532   0.808   5.720  0.3419 -0.1169 -0.6632
   19MOL   C196 7072   6.615   0.710   5.632  0.0715 -0.4699  0.2490
   19MOL   C197 7073   6.754   0.665   5.698  0.4153  0.1686  0.6517
   19MOL   C198 7074   6.829   0.581   5.601 -0.3386 -0.2895  0.4696
   19MOL   H199 7075   6.507   1.121   5.576 -2.7731  1.7588 -1.9658
   19MOL   H200 7076   6.365   1.033   5.641  1.9274 -0.3279 -2.5205
   19MOL   H201 7077   6.470   1.023   5.860 -0.3957 -0.1735  0.6164
   19MOL   H202 7078   6.436   0.828   5.673 -0.3949  1.8372  1.5658
   19MOL   H203 7079   6.525   0.766   5.821  0.1038 -0.4853 -0.8330
   19MOL   H204 7080   6.552   0.627   5.604  0.0160 -0.2969 -0.1413
   19MOL   H205 7081   6.637   0.767   5.542  0.2686  0.2348  0.7352
   19MOL   H206 7082   6.734   0.599   5.782 -0.2818  0.4434  0.7095
   19MOL   H207 7083   6.816   0.748   5.732  1.5047 -0.1086 -0.6517
   19MOL   H208 7084   6.851   0.632   5.507 -0.1501 -1.8852 -0.3640
   19MOL   H209 7085   6.913   0.537   5.655 -0.1125 -1.3968 -0.7683
   19MOL   H210 7086   6.757   0.509   5.563 -1.0872  0.4179  0.5204
   19MOL   C211 7087   6.640   1.137   5.829 -0.1855 -0.2437 -0.1583
   19MOL   C212 7088   6.718   1.075   5.952  0.4459  0.7996  1.2003
   19MOL   O213 7089   6.846   1.141   5.967 -0.6840  0.8794  0.2285
   19MOL   C214 7090   6.949   1.078   5.884  0.0401 -0.2776 -0.4474
   19MOL   C215 7091   7.083   1.147   5.905  0.4096 -0.0164  0.0808
   19MOL   C216 7092   7.147   1.105   6.036  0.4123 -0.0150 -0.0594
   19MOL   C217 7093   7.132   1.210   6.146  0.4584  0.1008  0.3610
   19MOL   H218 7094   6.599   1.230   5.867  0.4972 -0.1131  0.2701
   19MOL   H219 7095   6.703   1.166   5.744 -1.6566 -0.8582 -1.4816
   19MOL   H220 7096   6.734   0.971   5.926  1.2839  1.1130  0.4172
   19MOL   H221 7097   6.950   0.975   5.918 -0.3219 -0.4953 -1.0871
   19MOL   H222 7098   6.926   1.080   5.777 -0.2709 -0.6557 -0.3876
   19MOL   H223 7099   7.149   1.108   5.828  2.0697  1.7052  0.6103
   19MOL   H224 7100   7.066   1.255   5.904 -0.2123 -0.0835  1.5801
   19MOL   H225 7101   7.251   1.086   6.010  0.5754  0.2004  0.4382
   19MOL   H226 7102   7.114   1.007   6.071  0.2145  0.0288 -0.1223
   19MOL   H227 7103   7.180   1.184   6.241 -1.3896  1.7049  1.7899
   19MOL   H228 7104   7.031   1.246   6.169 -0.1188 -1.0627 -0.3023
   19MOL   H229 7105   7.173   1.307   6.120  1.3124  0.0196  1.3660
   19MOL   C230 7106   6.636   1.081   6.083  0.3711  0.2306 -0.2543
   19MOL   C231 7107   6.700   1.003   6.199  0.5516 -0.1386  0.2583
   19MOL   O232 7108   6.779   0.897   6.155 -0.6852 -0.7168  0.4795
   19MOL   C233 7109   6.707   0.775   6.141  0.4388 -0.4955  0.1129
   19MOL   C234 7110   6.800   0.690   6.047 -0.1152 -0.3822 -0.1096
   19MOL   C235 7111   6.937   0.670   6.102 -0.3042  0.2520  0.1987
   19MOL   C236 7112   7.018   0.573   6.015 -0.3856 -0.1365  0.1528
   19MOL   H237 7113   6.538   1.037   6.062  0.9939 -0.7629 -1.0983
   19MOL   H238 7114   6.607   1.180   6.119 -1.8189 -1.1644  1.9355
   19MOL   H239 7115   6.611   0.968   6.252  0.6097  1.1039  1.1959
   19MOL   H240 7116   6.698   0.734   6.242  2.3684  0.9273  0.8758
   19MOL   H241 7117   6.610   0.794   6.094  0.2224 -0.0249  0.7566
   19MOL   H242 7118   6.754   0.595   6.023  1.5878 -1.3955  0.5619
   19MOL   H243 7119   6.811   0.745   5.953  0.2493  0.1261  0.2241
   19MOL   H244 7120   6.929   0.629   6.203 -0.0465  0.4278  0.2897
   19MOL   H245 7121   6.982   0.768   6.114 -1.8456  1.0592 -0.4178
   19MOL   H246 7122   7.126   0.573   6.031 -0.2364 -0.5778 -0.8176
   19MOL   H247 7123   7.008   0.585   5.908  0.7921  0.7721  0.1305
   19MOL   H248 7124   6.990   0.468   6.027  0.4913 -0.3394  0.5333
   19MOL   C249 7125   6.784   1.097   6.282  0.3702  0.2980  0.3207
   19MOL   C250 7126   6.800   1.048   6.428 -0.1020 -0.2866  0.5978
   19MOL   O251 7127   6.679   1.077   6.498 -0.1562 -0.0061  0.1092
   19MOL   C252 7128   6.650   0.975   6.595  0.0462 -0.1297  0.3658
   19MOL   C253 7129   6.527   1.015   6.670  0.6095 -0.1111 -0.1417
   19MOL   C254 7130   6.533   1.164   6.723  0.6406  0.2622 -0.4293
   19MOL   C255 7131   6.435   1.200   6.840  0.0043  0.8352 -0.0900
   19MOL   H256 7132   6.732   1.191   6.298 -0.2710  0.2683 -1.4131
   19MOL   H257 7133   6.878   1.116   6.231  0.3817 -2.1307 -0.6662
   19MOL   H258 7134   6.820   0.941   6.419 -0.4050 -0.4655  1.9954
   19MOL   H259 7135   6.733   0.979   6.665 -0.1460 -0.4334  0.6178
   19MOL   H260 7136   6.641   0.874   6.556 -0.2506  0.3305 -0.7813
   19MOL   H261 7137   6.429   1.006   6.622  0.2273 -0.0072  0.6248
   19MOL   H262 7138   6.523   0.943   6.751  3.2527 -1.9500 -1.5582
   19MOL   H263 7139   6.633   1.179   6.763  0.7590 -0.2596 -0.5403
   19MOL   H264 7140   6.525   1.235   6.641 -2.2224  1.3622  0.6994
   19MOL   H265 7141   6.448   1.305   6.866  0.9918  0.6351  0.2823
   19MOL   H266 7142   6.457   1.137   6.926  2.2554  0.4350 -0.9133
   19MOL   H267 7143   6.329   1.190   6.816 -0.0846 -0.6386  0.8436
   19MOL   C268 7144   6.919   1.117   6.499 -0.2302 -0.1227 -0.3604
   19MOL   C269 7145   7.005   1.028   6.584 -0.0776 -0.2717  0.1895
   19MOL   O270 7146   7.123   0.992   6.522 -0.2539 -0.8552 -0.7447
   19MOL   C271 7147   7.110   0.885   6.435 -0.7100  0.4396 -0.5683
   19MOL   C272 7148   7.239   0.866   6.359  0.1585 -0.3362 -0.2734
   19MOL   C273 7149   7.350   0.809   6.442  0.0968  0.3419  0.6003
   19MOL   C274 7150   7.474   0.775   6.364  0.1162  0.4485 -0.3847
   19MOL   H275 7151   6.974   1.188   6.437 -1.2222  1.9026  1.0400
   19MOL   H276 7152   6.876   1.190   6.567 -0.9879 -1.7159  0.8978
   19MOL   H277 7153   6.957   0.936   6.614  0.2983 -0.1506  1.1785
   19MOL   H278 7154   7.067   0.796   6.480  0.9988 -0.7780 -1.2861
   19MOL   H279 7155   7.045   0.907   6.351  1.0715 -0.1856 -2.1476
   19MOL   H280 7156   7.214   0.789   6.285 -2.0442  1.2039 -1.1875
   19MOL   H281 7157   7.276   0.951   6.302 -2.6393  0.1412 -1.4764
   19MOL   H282 7158   7.315   0.718   6.490  0.9029 -0.9598 -1.2361
   19MOL   H283 7159   7.368   0.879   6.524  1.2734  0.5296  0.1937
   19MOL   H284 7160   7.555   0.764   6.437  0.4597 -2.0103 -1.0928
   19MOL   H285 7161   7.507   0.846   6.288  1.4207 -1.0486 -1.2491
   19MOL   H286 7162   7.454   0.679   6.317 -0.3375  1.5350 -2.4594
   19MOL   C287 7163   7.045   1.094   6.713 -0.0741 -0.0827  0.8183
   19MOL   C288 7164   7.129   1.019   6.810 -0.3633 -0.1584 -0.5386
   19MOL   O289 7165   7.067   0.896   6.847  0.2221 -0.5471 -0.0626
   19MOL   C290 7166   7.163   0.786   6.848  0.0870 -1.0124  0.6535
   19MOL   C291 7167   7.091   0.651   6.869 -0.1958 -0.1662 -0.0260
   19MOL   C292 7168   7.031   0.616   7.007 -0.6572 -0.1565  1.0799
   19MOL   C293 7169   6.985   0.475   7.012 -0.1053 -0.0520 -0.1506
   19MOL   H294 7170   6.950   1.113   6.763  0.5476 -2.2581  2.9247
   19MOL   H295 7171   7.085   1.193   6.691  2.6494 -1.3157 -0.0429
   19MOL   H296 7172   7.231   1.005   6.775 -0.3389 -1.1811 -0.0656
   19MOL   H297 7173   7.217   0.789   6.754 -1.8238  1.3948 -0.4176
   19MOL   H298 7174   7.231   0.814   6.928 -0.0294  2.2284 -0.3338
   19MOL   H299 7175   7.165   0.575   6.846  0.1755 -0.0155  0.6721
   19MOL   H300 7176   7.011   0.640   6.795 -0.6850  0.8035  0.3371
   19MOL   H301 7177   6.946   0.681   7.030 -0.7695  0.6001 -1.3202
   19MOL   H302 7178   7.095   0.640   7.091 -1.8300  2.2600  1.3146
   19MOL   H303 7179   6.927   0.470   7.105 -1.0509  0.9448 -0.6844
   19MOL   H304 7180   6.937   0.435   6.923 -0.8123  2.2073 -0.8252
   19MOL   H305 7181   7.072   0.417   7.042  0.6096  0.0179 -2.0432
   19MOL   C306 7182   7.147   1.109   6.941 -0.0975 -0.3654  0.1476
   19MOL   C307 7183   7.257   1.216   6.940 -0.1815 -0.5115  0.7620
   19MOL   O308 7184   7.373   1.132   6.923  0.0903 -0.1892  0.7698
   19MOL   C309 7185   7.480   1.171   6.843  0.6797 -0.6611  0.5915
   19MOL   C310 7186   7.584   1.066   6.871 -0.0197 -0.8902 -0.5696
   19MOL   C311 7187   7.642   1.057   7.013  0.0525  0.0725  0.9609
   19MOL   C312 7188   7.728   0.931   7.019 -0.5271 -0.0428 -0.7697
   19MOL   H313 7189   7.051   1.153   6.966  0.3186  1.1069 -0.7737
   19MOL   H314 7190   7.179   1.045   7.023 -1.6899 -1.8466 -0.3513
   19MOL   H315 7191   7.232   1.281   6.856 -0.8339 -0.4991  0.9650
   19MOL   H316 7192   7.519   1.271   6.862  2.3853 -1.0401 -0.7921
   19MOL   H317 7193   7.459   1.166   6.736 -0.4145  1.3555  0.6873
   19MOL   H318 7194   7.672   1.080   6.808  2.0921 -1.8045  2.0411
   19MOL   H319 7195   7.536   0.973   6.842 -2.1145  0.3555 -1.1645
   19MOL   H320 7196   7.709   1.139   7.040 -0.0809  0.9517 -1.3133
   19MOL   H321 7197   7.565   1.046   7.089  1.1055  1.3916  2.2488
   19MOL   H322 7198   7.678   0.844   6.977  1.6365 -1.5499 -0.3341
   19MOL   H323 7199   7.758   0.897   7.118 -2.3119 -2.0592 -0.8866
   19MOL   H324 7200   0.016   0.936   6.957 -1.7072 -1.2793 -2.6253
   19MOL   C325 7201   7.260   1.290   7.077  0.0035 -0.3647 -0.1646
   19MOL   C326 7202   7.345   1.413   7.064 -0.4290 -0.2734  0.0981
   19MOL   O327 7203   7.271   1.510   7.144 -0.6918  0.1257  0.1457
   19MOL   C328 7204   7.185   1.593   7.066  0.4667 -0.3470 -0.4081
   19MOL   C329 7205   7.066   1.633   7.170 -0.0818 -0.1108  0.3739
   19MOL   C330 7206   6.982   1.757   7.119  0.1769  0.0066  0.8035
   19MOL   C331 7207   6.839   1.762   7.180  0.2913  0.0903 -0.2857
   19MOL   H332 7208   7.290   1.216   7.151  0.2255 -0.1859 -0.0731
   19MOL   H333 7209   7.161   1.323   7.106  0.5984  0.9027  0.5147
   19MOL   H334 7210   7.356   1.438   6.959 -2.5468  2.4216  0.4518
   19MOL   H335 7211   7.142   1.547   6.977 -0.5857  0.3051 -0.2487
   19MOL   H336 7212   7.248   1.675   7.032  0.9571 -0.6581 -0.2556
   19MOL   H337 7213   6.999   1.547   7.167  1.9052 -1.8252  2.9535
   19MOL   H338 7214   7.091   1.669   7.270 -2.6075  0.8744  0.6906
   19MOL   H339 7215   6.980   1.774   7.011 -0.0586 -2.0431  0.4518
   19MOL   H340 7216   7.045   1.835   7.160 -1.6630  0.5565  2.6270
   19MOL   H341 7217   6.771   1.831   7.130  0.1344 -1.1111 -1.7817
   19MOL   H342 7218   6.840   1.778   7.288 -1.4251  0.5889 -0.3292
   19MOL   H343 7219   6.792   1.664   7.170  1.0033 -0.3540  0.5823
   19MOL   C344 7220   7.483   1.396   7.126 -0.5103 -0.2030 -0.0463
   19MOL   C345 7221   7.580   1.520   7.110 -0.4498 -0.2555 -0.0936
   19MOL   O346 7222   7.632   1.529   6.977  0.1148  0.4380 -0.0010
   19MOL   C347 7223   7.594   1.648   6.904  0.3673  0.0518  0.3466
   19MOL   C348 7224   7.642   1.641   6.757  0.1234 -0.5987 -0.3988
   19MOL   C349 7225   7.607   1.507   6.699  0.1739 -0.0795  0.3639
   19MOL   C350 7226   7.663   1.499   6.557  0.0190 -0.2427  0.5612
   19MOL   H351 7227   7.476   1.371   7.232 -0.7005 -1.0737 -0.2666
   19MOL   H352 7228   7.528   1.303   7.092 -0.4309 -0.5199  0.9183
   19MOL   H353 7229   7.534   1.615   7.141 -0.7315 -0.4228  0.0019
   19MOL   H354 7230   7.630   1.741   6.950 -0.4757 -0.0401  1.2214
   19MOL   H355 7231   7.485   1.640   6.907  0.3108  0.6367  0.1207
   19MOL   H356 7232   7.747   1.669   6.743 -0.1862  1.8355  1.8041
   19MOL   H357 7233   7.583   1.706   6.692 -1.0668 -0.8618  0.4188
   19MOL   H358 7234   7.652   1.432   6.764  0.0135  0.5165  1.1687
   19MOL   H359 7235   7.501   1.485   6.699  0.2977 -0.6848  0.5415
   19MOL   H360 7236   7.621   1.567   6.483 -0.7546  0.9323  2.0494
   19MOL   H361 7237   7.652   1.396   6.524  1.8765 -0.6004  1.0127
   19MOL   H362 7238   7.769   1.523   6.546  0.1019  0.5527  2.8395
   19MOL   C363 7239   7.705   1.516   7.193 -1.0119  0.3119  0.1894
   19MOL   C364 7240   7.703   1.522   7.345  0.6207  0.4760 -0.2197
   19MOL   O365 7241   7.670   1.656   7.387 -0.3058  0.7263  0.2744
   19MOL   C366 7242   7.678   1.673   7.520  0.7767  0.5354  0.1945
   19MOL   C367 7243   7.647   1.816   7.553  0.1089  0.8935 -0.1982
   19MOL   C368 7244   7.751   1.901   7.470 -0.0538 -1.2370 -0.4632
   19MOL   C369 7245   7.743   2.051   7.510  0.2056 -0.1289 -0.3678
   19MOL   H370 7246   7.773   1.590   7.152  0.7264 -1.3093  0.1002
   19MOL   H371 7247   7.753   1.422   7.167 -0.1260  1.1612 -1.3099
   19MOL   H372 7248   7.799   1.494   7.388 -0.9901 -2.5597  1.5783
   19MOL   H373 7249   7.780   1.649   7.551  0.7051  0.1312  0.1289
   19MOL   H374 7250   7.607   1.601   7.561 -0.4444  0.7155 -1.5502
   19MOL   H375 7251   7.668   1.851   7.654 -1.0767  1.3447 -0.1062
   19MOL   H376 7252   7.542   1.839   7.535 -0.2165 -1.6503 -1.8636
   19MOL   H377 7253   7.746   1.885   7.362 -0.4741  2.4661 -1.0366
   19MOL   H378 7254   0.051   1.874   7.497 -0.2716 -1.5346  0.0736
   19MOL   H379 7255   7.658   2.092   7.455  0.3404  0.0696 -0.4265
   19MOL   H380 7256   7.743   2.080   7.615 -3.2787 -0.1945 -0.2826
   19MOL   H381 7257   0.032   2.100   7.476 -0.2084 -0.9773 -2.7364
   19MOL   H382 7258   7.647   1.446   7.400  2.0855 -0.2180  0.3302
   20MOL     C1 7259   6.588   6.761   3.061 -0.0625 -0.3868  0.1657
   20MOL     C2 7260   6.648   6.622   3.032  0.4480  0.6082  0.2365
   20MOL     O3 7261   6.664   6.553   3.160 -0.8001 -0.1572 -0.2135
   20MOL     C4 7262   6.790   6.582   3.224 -0.6469 -0.1648  0.2358
   20MOL     C5 7263   6.779   6.537   3.370  0.1972 -0.0556 -0.0389
   20MOL     C6 7264   6.797   6.385   3.391  0.0432 -0.4885 -0.1252
   20MOL     C7 7265   6.780   6.335   3.539  0.4959  0.0275 -0.3529
   20MOL     H8 7266   6.511   6.748   3.137  0.8959  0.7630  1.3419
   20MOL     H9 7267   6.660   6.837   3.091  0.6922 -0.0751 -2.2749
   20MOL    H10 7268   6.737   6.626   2.970 -1.7593  0.7917 -2.9980
   20MOL    H11 7269   6.867   6.534   3.165 -1.2057  0.6104 -1.1439
   20MOL    H12 7270   6.818   6.687   3.226 -1.4046  0.0435  0.2893
   20MOL    H13 7271   6.676   6.544   3.402 -0.1906  1.5234 -1.5269
   20MOL    H14 7272   6.844   6.594   3.436 -0.2867  0.3692  0.0719
   20MOL    H15 7273   6.901   6.357   3.369 -0.4443 -1.2437 -1.5080
   20MOL    H16 7274   6.734   6.321   3.330 -2.6225  1.0017  1.0220
   20MOL    H17 7275   6.688   6.368   3.588  0.0479 -1.0457 -0.4536
   20MOL    H18 7276   6.852   6.378   3.608 -0.9916 -0.4708  1.5339
   20MOL    H19 7277   6.777   6.226   3.545  0.3799  0.1424  1.8260
   20MOL    H20 7278   6.545   6.794   2.966  0.6718 -1.8324 -0.6946
   20MOL    C21 7279   6.569   6.525   2.943  0.3000  0.4902  0.4549
   20MOL    C22 7280   6.638   6.391   2.906  0.0115  0.6571  0.1842
   20MOL    O23 7281   6.563   6.281   2.964 -0.7576 -0.2233  0.0751
   20MOL    C24 7282   6.585   6.267   3.100 -0.2260  0.0176  0.4185
   20MOL    C25 7283   6.542   6.127   3.149  0.3061 -0.6042  0.7269
   20MOL    C26 7284   6.543   6.104   3.304 -0.1479 -0.6268  0.0043
   20MOL    C27 7285   6.424   6.162   3.374 -0.9001 -0.2123  0.4307
   20MOL    H28 7286   6.556   6.575   2.847 -1.6904 -0.3264  0.2753
   20MOL    H29 7287   6.471   6.508   2.988  0.8177 -2.3138  0.6656
   20MOL    H30 7288   6.740   6.389   2.945  0.4747  0.2086 -1.0017
   20MOL    H31 7289   6.536   6.349   3.154  0.8730  1.4375 -0.7075
   20MOL    H32 7290   6.693   6.280   3.114  0.1383  1.7939 -3.4005
   20MOL    H33 7291   6.436   6.113   3.127 -0.1081  1.0019  1.5790
   20MOL    H34 7292   6.595   6.055   3.087  2.2636  0.0229  1.6620
   20MOL    H35 7293   6.533   5.998   3.326 -1.6759 -0.5529 -0.2770
   20MOL    H36 7294   6.641   6.123   3.347  1.2992 -1.3619 -2.7948
   20MOL    H37 7295   6.436   6.270   3.366 -3.2249  0.1414  1.3811
   20MOL    H38 7296   6.337   6.122   3.322 -0.6216 -0.9192  0.4940
   20MOL    H39 7297   6.430   6.133   3.478  0.1413  0.4645  0.5721
   20MOL    C40 7298   6.640   6.365   2.752 -0.3660  0.3580  0.0586
   20MOL    C41 7299   6.724   6.465   2.661 -0.1084 -0.2430 -0.0560
   20MOL    O42 7300   6.738   6.401   2.528  0.2979 -0.0314  0.6910
   20MOL    C43 7301   6.631   6.435   2.447 -0.1466 -0.3283 -0.1466
   20MOL    C44 7302   6.637   6.342   2.322  0.5148  0.4572  0.4866
   20MOL    C45 7303   6.774   6.344   2.260 -0.2946  0.1024  0.3115
   20MOL    C46 7304   6.795   6.306   2.106 -0.1627  0.0688 -0.0506
   20MOL    H47 7305   6.536   6.362   2.719 -0.4409  0.0085  0.3263
   20MOL    H48 7306   6.680   6.267   2.730  0.2643  0.8728 -1.1597
   20MOL    H49 7307   6.673   6.561   2.654  0.1997 -0.0849 -0.1527
   20MOL    H50 7308   6.633   6.542   2.424 -0.3212  0.1145  1.8497
   20MOL    H51 7309   6.538   6.419   2.502  0.3828 -3.5797 -0.1324
   20MOL    H52 7310   6.571   6.368   2.239  0.6290 -0.6926  0.0263
   20MOL    H53 7311   6.613   6.243   2.361 -0.9062  0.5640 -0.0746
   20MOL    H54 7312   6.832   6.269   2.313 -1.7391 -1.1407  0.1564
   20MOL    H55 7313   6.821   6.438   2.290  0.4146 -0.7742  1.9958
   20MOL    H56 7314   6.796   6.200   2.083  1.1354 -0.3993  2.0056
   20MOL    H57 7315   6.718   6.360   2.050  0.9677 -0.5599 -2.2771
   20MOL    H58 7316   6.889   6.345   2.067 -0.1926 -0.4356 -0.6273
   20MOL    C59 7317   6.868   6.481   2.715 -0.0800  0.2284 -0.6328
   20MOL    C60 7318   6.949   6.566   2.619  0.1943  0.4160  0.1232
   20MOL    O61 7319   6.935   6.702   2.664  0.3745 -0.3162 -0.4846
   20MOL    C62 7320   6.855   6.776   2.572  0.2146 -0.7458  0.3938
   20MOL    C63 7321   6.864   6.920   2.631 -0.8690 -0.3136  0.3026
   20MOL    C64 7322   6.798   6.932   2.775 -0.9348 -0.2095  0.2920
   20MOL    C65 7323   6.844   7.051   2.858  0.0249  0.7841  1.1080
   20MOL    H66 7324   6.868   6.529   2.813  0.1150 -0.0702 -0.4843
   20MOL    H67 7325   6.905   6.379   2.729  2.2974  1.4349  2.5194
   20MOL    H68 7326   6.920   6.538   2.518 -1.0459  0.3884  0.4858
   20MOL    H69 7327   6.753   6.740   2.580  0.0781 -0.1502  1.3887
   20MOL    H70 7328   6.896   6.780   2.471  0.8470 -1.3067  0.6209
   20MOL    H71 7329   6.969   6.948   2.629 -0.8734 -0.4080 -1.4823
   20MOL    H72 7330   6.823   6.996   2.565  4.0136  3.2202  1.0687
   20MOL    H73 7331   6.690   6.945   2.770 -0.7505  0.9441 -1.1646
   20MOL    H74 7332   6.811   6.844   2.838 -0.3017  0.3205  0.9193
   20MOL    H75 7333   6.778   7.054   2.945 -1.8943 -0.0894 -0.2670
   20MOL    H76 7334   6.947   7.036   2.889  1.0655  2.8605 -1.2203
   20MOL    H77 7335   6.828   7.135   2.790  1.6520 -0.7440 -1.2332
   20MOL    C78 7336   7.089   6.533   2.653 -0.5665 -0.3358  0.0401
   20MOL    C79 7337   7.192   6.605   2.557 -0.7266 -0.4552 -0.0665
   20MOL    O80 7338   7.173   6.560   2.426  0.3067 -0.1535  0.5749
   20MOL    C81 7339   7.159   6.659   2.326 -0.5608  0.1273  0.4802
   20MOL    C82 7340   7.188   6.578   2.197  1.0583 -0.1864 -0.4005
   20MOL    C83 7341   7.178   6.653   2.064 -0.1355  0.0197  0.1279
   20MOL    C84 7342   7.031   6.658   2.010  0.0182  0.2054 -0.0837
   20MOL    H85 7343   7.104   6.425   2.642 -1.7219 -0.4160 -0.8228
   20MOL    H86 7344   7.123   6.558   2.753 -0.6466  0.9028 -0.2340
   20MOL    H87 7345   7.171   6.712   2.564 -0.1043 -0.3348 -0.0143
   20MOL    H88 7346   7.224   6.746   2.326 -1.9601  1.1990  0.9934
   20MOL    H89 7347   7.056   6.694   2.328 -1.4546 -2.2516 -1.3960
   20MOL    H90 7348   7.290   6.540   2.205  1.2520  0.4122  0.0245
   20MOL    H91 7349   7.125   6.489   2.200  1.4845 -0.5807 -2.4957
   20MOL    H92 7350   7.238   6.598   1.991  1.4150 -0.6532  1.8588
   20MOL    H93 7351   7.218   6.754   2.065  2.0297 -0.7734 -1.2251
   20MOL    H94 7352   6.967   6.675   2.096 -0.3155 -1.6522  0.0668
   20MOL    H95 7353   7.014   6.731   1.930 -1.4811 -0.7212 -0.6443
   20MOL    H96 7354   7.000   6.555   1.989 -1.4920  0.3552  1.2948
   20MOL    C97 7355   7.339   6.577   2.579 -0.2600  0.0949  0.2582
   20MOL    C98 7356   7.440   6.687   2.528  0.5188  0.4527 -0.3563
   20MOL    O99 7357   7.406   6.802   2.605  0.4243  0.5595  1.0730
   20MOL   C100 7358   7.416   6.923   2.540  0.0125  0.1650 -0.2569
   20MOL   C101 7359   7.383   7.033   2.636  0.1439 -0.2909 -0.3284
   20MOL   C102 7360   7.229   7.048   2.674  0.3154  0.3387  0.6796
   20MOL   C103 7361   7.209   7.156   2.782 -0.1628  0.0289 -0.5252
   20MOL   H104 7362   7.371   6.477   2.550  2.7891  0.9810  0.3611
   20MOL   H105 7363   7.347   6.579   2.688  0.4391  1.1006  0.1996
   20MOL   H106 7364   7.423   6.700   2.421 -1.1121  0.6039 -0.0961
   20MOL   H107 7365   7.364   6.928   2.445 -1.3253  0.6836  0.4886
   20MOL   H108 7366   7.522   6.927   2.518 -0.0613  1.2743 -0.3964
   20MOL   H109 7367   7.417   7.131   2.602  1.5601 -0.2620  1.0961
   20MOL   H110 7368   7.437   7.025   2.730  0.9647  1.2282 -0.6496
   20MOL   H111 7369   7.189   6.951   2.707 -2.0030  1.4053  1.1532
   20MOL   H112 7370   7.181   7.098   2.590 -1.2962  0.5636  1.7112
   20MOL   H113 7371   7.270   7.244   2.760 -2.4038  1.2589 -2.0134
   20MOL   H114 7372   7.104   7.187   2.782  0.6904  3.1232 -0.8584
   20MOL   H115 7373   7.226   7.113   2.881  0.0294 -2.9520 -1.8149
   20MOL   C116 7374   7.589   6.660   2.541 -0.0609  0.3101 -0.5198
   20MOL   C117 7375   7.638   6.539   2.452 -0.0378  0.6093  0.2898
   20MOL   O118 7376   7.640   6.590   2.318 -0.0264  0.2195  0.8877
   20MOL   C119 7377   7.672   6.495   2.207  0.6543  0.5897  0.0913
   20MOL   C120 7378   7.626   6.552   2.077 -0.7426 -0.2580  0.3458
   20MOL   C121 7379   7.600   6.442   1.972 -0.8639 -0.5615 -0.1899
   20MOL   C122 7380   7.522   6.510   1.854  0.1859  0.1539  0.3424
   20MOL   H123 7381   7.648   6.746   2.510  1.9024 -0.8411 -0.1085
   20MOL   H124 7382   7.609   6.640   2.647 -0.7189  0.6996 -0.3210
   20MOL   H125 7383   7.565   6.458   2.453  0.5501  0.0238 -1.8203
   20MOL   H126 7384   7.605   6.412   2.230  2.9454 -1.5311 -0.5840
   20MOL   H127 7385   7.775   6.460   2.202 -0.0982 -1.6464 -0.2384
   20MOL   H128 7386   7.697   6.625   2.038  1.6413 -1.6382  1.9516
   20MOL   H129 7387   7.532   6.607   2.089 -0.2630  0.4352  0.9526
   20MOL   H130 7388   7.689   6.392   1.934 -1.3401 -0.7287 -1.1174
   20MOL   H131 7389   7.530   6.370   2.014  1.0123 -2.4267 -0.1600
   20MOL   H132 7390   7.597   6.550   1.786  0.4953  0.6795  0.9866
   20MOL   H133 7391   7.450   6.586   1.884  1.1190 -0.2172  3.7334
   20MOL   H134 7392   7.457   6.435   1.809 -0.7219  0.8485  0.4841
   20MOL   C135 7393   7.780   6.499   2.494  0.0073 -0.0067 -0.3921
   20MOL   C136 7394   0.020   6.351   2.481  0.0070 -0.2240  0.3566
   20MOL   O137 7395   0.159   6.327   2.517 -0.6847 -0.3561  0.0443
   20MOL   C138 7396   0.267   6.384   2.434  0.1008 -0.0059 -0.2839
   20MOL   C139 7397   0.266   6.364   2.285 -0.1060 -0.1692  0.5352
   20MOL   C140 7398   0.241   6.217   2.246  0.0329 -0.1935  0.2182
   20MOL   C141 7399   0.357   6.118   2.256 -0.1304 -0.1006  0.3523
   20MOL   H142 7400   7.791   6.521   2.600 -1.1226 -0.1535 -0.2405
   20MOL   H143 7401   0.057   6.559   2.447  0.2295 -1.8143 -2.3642
   20MOL   H144 7402   0.002   6.324   2.377 -3.1550  1.5461  0.3775
   20MOL   H145 7403   0.355   6.340   2.480  0.1810  0.2808 -0.1674
   20MOL   H146 7404   0.269   6.491   2.450  0.5271 -0.0484 -0.0636
   20MOL   H147 7405   0.363   6.404   2.255  0.5039  0.6917  3.5012
   20MOL   H148 7406   0.200   6.430   2.229  2.9645  0.6067 -2.3469
   20MOL   H149 7407   0.175   6.172   2.320 -0.3176  1.0152  0.6444
   20MOL   H150 7408   0.181   6.213   2.155 -0.0725  1.4122  0.2083
   20MOL   H151 7409   0.327   6.014   2.238 -0.1053  0.4142 -2.9984
   20MOL   H152 7410   0.426   6.152   2.180  0.1772 -0.6085  0.3998
   20MOL   H153 7411   0.403   6.133   2.354 -1.6198 -0.0160  1.0559
   20MOL   C154 7412   7.729   6.245   2.546  0.1292 -0.4359 -0.3591
   20MOL   C155 7413   7.724   6.110   2.474  0.2296  0.0579  0.9559
   20MOL   O156 7414   7.641   6.126   2.357  0.7462  0.5107 -0.2502
   20MOL   C157 7415   7.668   6.035   2.251 -0.2008 -0.5983  0.4767
   20MOL   C158 7416   7.606   6.093   2.119 -0.0386  0.2617 -0.4920
   20MOL   C159 7417   7.619   5.993   2.003 -0.3609  0.2577 -0.2623
   20MOL   C160 7418   7.562   6.045   1.874  0.1409 -0.2285 -0.1278
   20MOL   H161 7419   7.630   6.290   2.538 -0.2254 -1.2865 -0.7959
   20MOL   H162 7420   7.748   6.223   2.651 -0.8747  0.1370 -0.0558
   20MOL   H163 7421   0.022   6.071   2.455  0.7216  1.4825  0.5675
   20MOL   H164 7422   7.775   6.024   2.233 -0.2381  0.7148 -0.6050
   20MOL   H165 7423   7.618   5.940   2.272 -1.1049  0.5287  3.7738
   20MOL   H166 7424   7.668   6.177   2.090  2.8944 -1.5951  0.1749
   20MOL   H167 7425   7.502   6.117   2.138  0.4814  1.6205  0.6587
   20MOL   H168 7426   7.724   5.968   1.991 -0.0746  0.6688  1.2978
   20MOL   H169 7427   7.573   5.896   2.022  0.7662 -0.6399 -1.9735
   20MOL   H170 7428   7.606   6.137   1.835 -1.1294  0.0923 -0.8218
   20MOL   H171 7429   7.584   5.970   1.797  0.2759  1.2736 -1.5882
   20MOL   H172 7430   7.456   6.070   1.881 -0.4456 -2.0400 -2.0495
   20MOL   C173 7431   7.651   6.005   2.564  0.1331  0.2082 -0.1555
   20MOL   C174 7432   7.711   5.980   2.704  0.0285 -0.5738 -0.7987
   20MOL   O175 7433   7.653   5.861   2.757 -0.8637 -0.1729  0.0861
   20MOL   C176 7434   7.517   5.861   2.797 -0.3865 -0.6433  0.3590
   20MOL   C177 7435   7.478   5.741   2.879 -0.3911 -0.0998  0.3310
   20MOL   C178 7436   7.322   5.718   2.917  0.1235 -0.0688  0.2087
   20MOL   C179 7437   7.282   5.580   2.967 -0.1519 -0.2210  0.4154
   20MOL   H180 7438   7.668   5.907   2.519  0.0307 -0.5779  1.4726
   20MOL   H181 7439   7.545   6.030   2.572  0.1961  1.1788 -2.0698
   20MOL   H182 7440   7.679   6.055   2.776 -1.2395 -1.1558 -0.7368
   20MOL   H183 7441   7.451   5.860   2.711 -0.8649  1.7321  0.6716
   20MOL   H184 7442   7.494   5.945   2.863 -0.9910 -0.8550  0.4167
   20MOL   H185 7443   7.538   5.735   2.970  0.2812 -3.2096 -0.2334
   20MOL   H186 7444   7.508   5.652   2.824 -0.5994 -1.3891  2.2261
   20MOL   H187 7445   7.301   5.798   2.988 -0.6715  1.8411 -2.1160
   20MOL   H188 7446   7.262   5.747   2.830  1.5448 -0.5310 -0.9445
   20MOL   H189 7447   7.305   5.499   2.898  0.6742  0.1930  0.1968
   20MOL   H190 7448   7.341   5.567   3.057 -0.3339  2.6866  1.0116
   20MOL   H191 7449   7.175   5.570   2.986  0.2029 -0.9029  2.0664
   20MOL   C192 7450   0.066   5.965   2.702  0.2151 -0.3290  0.2999
   20MOL   C193 7451   0.116   5.902   2.835 -0.3282  0.0728 -0.6765
   20MOL   O194 7452   0.247   5.864   2.796  1.0420 -0.1418  0.6569
   20MOL   C195 7453   0.274   5.728   2.778 -0.0849 -0.8921 -0.0191
   20MOL   C196 7454   0.415   5.689   2.737 -0.0797 -0.1743 -0.7999
   20MOL   C197 7455   0.527   5.777   2.804 -0.1430  0.5196  0.3911
   20MOL   C198 7456   0.549   5.759   2.953 -0.0117 -0.6226  0.4306
   20MOL   H199 7457   0.111   6.061   2.678  1.6451 -1.3119 -1.0379
   20MOL   H200 7458   0.075   5.898   2.616 -1.0743 -0.8270  0.5393
   20MOL   H201 7459   0.052   5.819   2.865 -1.1574  0.3657 -1.6414
   20MOL   H202 7460   0.199   5.676   2.718 -1.0627  0.3830  0.0733
   20MOL   H203 7461   0.256   5.676   2.872 -0.5293 -0.3221  0.2122
   20MOL   H204 7462   0.440   5.585   2.755 -0.2700 -0.1768 -0.5401
   20MOL   H205 7463   0.426   5.704   2.629 -2.1566 -0.7555 -1.1156
   20MOL   H206 7464   0.506   5.882   2.783 -0.9895 -0.0872 -2.0425
   20MOL   H207 7465   0.613   5.757   2.739 -2.7225 -1.4005 -2.6114
   20MOL   H208 7466   0.460   5.791   3.008 -1.6519  0.4633 -2.7019
   20MOL   H209 7467   0.577   5.659   2.986  2.0466  0.8900  3.4729
   20MOL   H210 7468   0.636   5.819   2.978 -0.4459 -0.2697  1.1087
   20MOL   C211 7469   0.137   6.002   2.952  0.3644  0.1277  0.6784
   20MOL   C212 7470   0.137   5.930   3.089 -0.7519 -0.3173  1.0908
   20MOL   O213 7471   0.179   6.023   3.192 -0.6774 -0.3454  0.4838
   20MOL   C214 7472   0.324   6.053   3.189 -0.4814  0.0190 -0.2562
   20MOL   C215 7473   0.347   6.169   3.282  1.0302  0.3746 -0.5187
   20MOL   C216 7474   0.483   6.226   3.291  0.6941  0.3722  0.2641
   20MOL   C217 7475   0.590   6.136   3.362 -0.2862  0.4591 -0.0338
   20MOL   H218 7476   0.070   6.087   2.967 -0.2989 -0.1943 -0.4103
   20MOL   H219 7477   0.231   6.052   2.925 -1.3224  2.2096 -1.5613
   20MOL   H220 7478   0.214   5.853   3.089  2.8739  3.1855  0.7564
   20MOL   H221 7479   0.369   5.962   3.228 -2.0125 -0.0049  1.5348
   20MOL   H222 7480   0.362   6.068   3.088 -1.4079  0.2019 -0.5803
   20MOL   H223 7481   0.285   6.256   3.256  1.6619  1.4509  1.4734
   20MOL   H224 7482   0.321   6.144   3.384 -0.8086  2.2002 -0.4945
   20MOL   H225 7483   0.477   6.327   3.331 -0.7691 -0.0830  1.2560
   20MOL   H226 7484   0.526   6.240   3.192 -2.0225  0.8218 -0.8875
   20MOL   H227 7485   0.684   6.166   3.316 -1.1921  0.5400 -1.8799
   20MOL   H228 7486   0.566   6.037   3.325  0.2107  0.0623  0.6789
   20MOL   H229 7487   0.601   6.147   3.470 -2.0531  1.1587  0.0947
   20MOL   C230 7488   7.800   5.874   3.130 -0.8629 -0.2573 -0.0933
   20MOL   C231 7489   0.002   5.781   3.259  0.2326 -0.2173  0.0641
   20MOL   O232 7490   7.678   5.720   3.283 -0.2385  0.2444 -0.0267
   20MOL   C233 7491   7.576   5.810   3.319  0.1290 -0.1323  0.5117
   20MOL   C234 7492   7.452   5.731   3.369 -0.0521 -0.0332 -0.4700
   20MOL   C235 7493   7.483   5.652   3.498 -0.1398  0.0570  0.3566
   20MOL   C236 7494   7.381   5.551   3.547 -0.0489 -0.0102 -0.3599
   20MOL   H237 7495   7.767   5.813   3.046  0.8161 -1.7255  0.2843
   20MOL   H238 7496   7.725   5.953   3.139  0.4388  0.6021  4.0567
   20MOL   H239 7497   0.031   5.839   3.346 -0.9564  0.9904 -0.3226
   20MOL   H240 7498   7.616   5.868   3.402 -0.1731  0.3914  0.2971
   20MOL   H241 7499   7.548   5.871   3.232 -0.3682 -2.4429 -0.9997
   20MOL   H242 7500   7.366   5.798   3.374  0.9266  1.1682  0.8831
   20MOL   H243 7501   7.428   5.652   3.297  0.4128 -0.1189 -0.5282
   20MOL   H244 7502   7.485   5.732   3.573 -0.7606  2.0803 -1.7492
   20MOL   H245 7503   7.577   5.596   3.506 -1.0994 -1.5514  0.7478
   20MOL   H246 7504   7.382   5.532   3.654 -3.2053 -2.2364 -0.6504
   20MOL   H247 7505   7.393   5.453   3.502  1.6809 -0.4059  0.9210
   20MOL   H248 7506   7.290   5.597   3.508 -0.2395 -0.1935 -0.1331
   20MOL   C249 7507   0.115   5.671   3.255 -0.3320 -0.3332  0.4413
   20MOL   C250 7508   0.116   5.599   3.393  0.4811  0.1926 -0.3058
   20MOL   O251 7509   0.222   5.646   3.476  0.6349  0.1365  0.0794
   20MOL   C252 7510   0.186   5.667   3.611  0.3593 -0.3760 -0.5891
   20MOL   C253 7511   0.129   5.808   3.631 -0.3464  0.0696 -0.0780
   20MOL   C254 7512   0.222   5.914   3.569 -0.5565 -0.1657 -0.1763
   20MOL   C255 7513   0.350   5.937   3.645 -0.9414  0.4883 -0.7164
   20MOL   H256 7514   0.216   5.711   3.247 -0.7471  0.9218  1.3197
   20MOL   H257 7515   0.108   5.605   3.168  0.6470  0.4448 -0.2328
   20MOL   H258 7516   0.016   5.612   3.436 -0.0925 -0.5733 -1.3848
   20MOL   H259 7517   0.268   5.662   3.683 -1.5192 -1.0030  1.5764
   20MOL   H260 7518   0.125   5.585   3.648 -0.6685 -0.7246 -3.0066
   20MOL   H261 7519   0.031   5.800   3.584 -0.2896  1.2096 -0.3973
   20MOL   H262 7520   0.113   5.827   3.736 -0.2294 -0.1275 -0.0239
   20MOL   H263 7521   0.252   5.884   3.469  2.0631  0.2964  0.4431
   20MOL   H264 7522   0.163   6.005   3.571  1.7163  1.3455  0.2090
   20MOL   H265 7523   0.335   6.016   3.719  1.0111 -0.5683  0.8609
   20MOL   H266 7524   0.425   5.976   3.576 -0.1668  0.9017  0.3358
   20MOL   H267 7525   0.382   5.849   3.701  1.3974 -0.3759 -3.3002
   20MOL   C268 7526   0.125   5.444   3.389  0.8371  0.0135  0.8002
   20MOL   C269 7527   0.003   5.373   3.331  0.1390  0.6965  0.2472
   20MOL   O270 7528   0.010   5.390   3.196  0.6209 -0.0105  0.0335
   20MOL   C271 7529   7.692   5.404   3.134 -0.2780 -1.0034 -0.2580
   20MOL   C272 7530   7.713   5.422   2.979 -0.4769  0.0528 -0.0903
   20MOL   C273 7531   7.788   5.307   2.917  0.1885  0.2036 -0.0030
   20MOL   C274 7532   0.000   5.352   2.766 -0.1756  0.1516 -0.1380
   20MOL   H275 7533   0.218   5.407   3.345  0.2180 -1.1025  0.4180
   20MOL   H276 7534   0.141   5.405   3.489  1.5289 -0.4510  0.5133
   20MOL   H277 7535   7.714   5.416   3.374 -1.1055  0.1873 -1.7747
   20MOL   H278 7536   7.626   5.319   3.151 -1.5255 -0.2352 -1.1371
   20MOL   H279 7537   7.645   5.497   3.166  0.7096 -0.1341 -1.2776
   20MOL   H280 7538   7.616   5.421   2.929  0.0635 -0.1136 -1.1446
   20MOL   H281 7539   7.754   5.522   2.967  0.1090 -0.0032  1.3266
   20MOL   H282 7540   7.732   5.215   2.928 -2.2026  1.8087  1.9082
   20MOL   H283 7541   0.077   5.285   2.973 -1.5058 -0.2778  2.6376
   20MOL   H284 7542   0.045   5.272   2.707 -1.4814 -1.2018  0.6854
   20MOL   H285 7543   0.048   5.449   2.753  2.1461 -1.0158 -0.5224
   20MOL   H286 7544   7.701   5.366   2.728 -0.6291 -0.6696  0.7406
   20MOL   C287 7545   0.001   5.220   3.363  0.1797  0.0325  1.0077
   20MOL   C288 7546   7.728   5.169   3.494 -0.4310 -0.7385 -0.3706
   20MOL   O289 7547   0.011   5.193   3.604  0.0347  0.4980 -0.5361
   20MOL   C290 7548   7.772   5.298   3.687 -0.7399 -0.6753  0.5416
   20MOL   C291 7549   0.059   5.317   3.807 -0.0284 -0.3277 -0.3949
   20MOL   C292 7550   0.012   5.422   3.917  0.5041 -0.0795 -0.3015
   20MOL   C293 7551   0.081   5.412   4.051 -0.4432  0.4092 -1.1414
   20MOL   H294 7552   0.106   5.192   3.365 -0.0305 -0.7003  2.0342
   20MOL   H295 7553   7.756   5.165   3.280 -0.3309  1.0352  0.6180
   20MOL   H296 7554   7.632   5.219   3.503 -0.9064 -1.6503 -0.3242
   20MOL   H297 7555   7.770   5.388   3.625 -1.3759 -2.3659 -1.9286
   20MOL   H298 7556   7.674   5.263   3.717 -0.4503 -2.2363 -0.2819
   20MOL   H299 7557   0.158   5.347   3.772 -0.0071  1.4314  1.1551
   20MOL   H300 7558   0.067   5.216   3.846  0.8659 -0.3484 -0.6339
   20MOL   H301 7559   7.709   5.405   3.942  1.3690  0.0956  3.7102
   20MOL   H302 7560   0.019   5.526   3.886  3.8468 -0.7464 -2.0433
   20MOL   H303 7561   0.190   5.420   4.046 -0.2138 -0.5562  1.2034
   20MOL   H304 7562   0.064   5.504   4.107 -2.7897 -1.3634  1.2017
   20MOL   H305 7563   0.056   5.326   4.115 -3.1449  4.1145  3.0786
   20MOL   C306 7564   7.704   5.026   3.491  0.3003  0.3346 -0.1431
   20MOL   C307 7565   7.607   4.974   3.600 -0.5934  0.1927 -0.4250
   20MOL   O308 7566   7.598   4.834   3.591 -0.2261  0.5906 -0.4958
   20MOL   C309 7567   7.703   4.764   3.657 -0.2118 -0.4148  0.6830
   20MOL   C310 7568   7.658   4.607   3.648 -0.1611  0.2896 -0.2112
   20MOL   C311 7569   7.653   4.560   3.508  0.6119 -0.5139  0.5913
   20MOL   C312 7570   7.632   4.413   3.497 -0.1548 -0.6795 -0.3204
   20MOL   H313 7571   7.658   4.994   3.398  2.1475 -0.9883 -0.6109
   20MOL   H314 7572   0.001   4.981   3.499  0.2943  0.4020  0.3432
   20MOL   H315 7573   7.640   5.009   3.698 -1.8404 -0.1352  0.1128
   20MOL   H316 7574   7.711   4.799   3.760  2.6678  0.6146  0.1335
   20MOL   H317 7575   7.799   4.786   3.610 -0.8044  0.3050 -0.2159
   20MOL   H318 7576   7.557   4.601   3.688  1.0781  1.1541  3.2567
   20MOL   H319 7577   7.723   4.551   3.714  0.8671  1.3230 -0.3208
   20MOL   H320 7578   7.577   4.617   3.454  0.2155 -0.2279  1.4339
   20MOL   H321 7579   7.749   4.585   3.462  1.1337 -3.2312  0.1306
   20MOL   H322 7580   7.555   4.366   3.559 -2.8758  1.2495 -2.1056
   20MOL   H323 7581   7.726   4.360   3.488  1.2883  2.0290 -1.6640
   20MOL   H324 7582   7.595   4.400   3.395  1.1963  1.7658 -1.1688
   20MOL   C325 7583   7.463   5.018   3.572 -0.1136  0.5375 -0.0244
   20MOL   C326 7584   7.375   4.991   3.699 -0.1603  0.0820 -0.6516
   20MOL   O327 7585   7.416   5.080   3.801 -0.3002 -0.1671  0.1198
   20MOL   C328 7586   7.356   5.046   3.929 -0.3375  0.0822  0.0910
   20MOL   C329 7587   7.360   5.170   4.015  0.0773  0.1330 -0.8065
   20MOL   C330 7588   7.297   5.163   4.160  0.9454  0.0060  0.3885
   20MOL   C331 7589   7.319   5.290   4.249  0.0144  0.5789  0.6615
   20MOL   H332 7590   7.429   4.963   3.484  2.6901 -0.8223 -0.2974
   20MOL   H333 7591   7.451   5.124   3.550 -2.8179  0.1592 -0.5631
   20MOL   H334 7592   7.391   4.892   3.741 -3.3446  0.7947  2.5359
   20MOL   H335 7593   7.418   4.967   3.972  0.4137  0.1478 -0.8616
   20MOL   H336 7594   7.255   5.005   3.924 -0.2003 -0.5535  2.2292
   20MOL   H337 7595   7.463   5.203   4.016  0.1902 -0.2402 -0.0305
   20MOL   H338 7596   7.321   5.247   3.948  0.2753  1.2896  0.3910
   20MOL   H339 7597   7.331   5.068   4.200 -0.8307 -1.3057 -1.1947
   20MOL   H340 7598   7.194   5.131   4.146  0.8349  0.6042 -0.1834
   20MOL   H341 7599   7.425   5.290   4.273 -0.1082 -0.5424  1.2647
   20MOL   H342 7600   7.258   5.284   4.340  0.0906  3.6109  0.9740
   20MOL   H343 7601   7.279   5.376   4.196  2.2872  0.7135 -0.8945
   20MOL   C344 7602   7.224   5.017   3.656  0.0748 -0.2256 -0.1151
   20MOL   C345 7603   7.151   4.916   3.559 -0.3964 -0.7104 -1.1164
   20MOL   O346 7604   7.025   4.970   3.510 -0.2451  0.3800  0.2300
   20MOL   C347 7605   7.009   4.944   3.369  0.3281 -0.2727  0.1614
   20MOL   C348 7606   6.868   4.992   3.326 -0.3676  0.2594 -0.3435
   20MOL   C349 7607   6.869   5.121   3.245  0.3970  0.6007 -0.0567
   20MOL   C350 7608   6.728   5.144   3.188  0.6505 -0.2626 -0.3385
   20MOL   H351 7609   7.159   5.032   3.742  0.1022  0.3779 -0.1951
   20MOL   H352 7610   7.222   5.115   3.608  2.0594 -1.0883 -2.0553
   20MOL   H353 7611   7.221   4.891   3.480  0.2936  0.2610 -0.8146
   20MOL   H354 7612   7.008   4.836   3.357  1.7352 -0.0888 -1.8716
   20MOL   H355 7613   7.092   4.996   3.320  0.2542  0.4184  0.7663
   20MOL   H356 7614   6.801   5.007   3.411 -1.4454 -0.4977 -1.0460
   20MOL   H357 7615   6.827   4.906   3.273  3.3898 -1.0058 -1.3093
   20MOL   H358 7616   6.897   5.204   3.309 -1.1199 -0.0204  1.4267
   20MOL   H359 7617   6.942   5.116   3.163 -0.2232 -1.3265 -0.5128
   20MOL   H360 7618   6.706   5.053   3.133  0.1704  0.2421 -0.9876
   20MOL   H361 7619   6.724   5.231   3.121 -1.4238 -0.6640 -0.7720
   20MOL   H362 7620   6.656   5.163   3.268  0.2054 -0.2322 -0.7446
   20MOL   C363 7621   7.118   4.777   3.619 -0.4830  0.6092 -0.7584
   20MOL   C364 7622   7.224   4.669   3.594  0.3449  0.0337  0.5135
   20MOL   O365 7623   7.185   4.546   3.653 -0.1825 -0.0293  0.4606
   20MOL   C366 7624   7.285   4.449   3.634  0.1384  0.3971  0.6545
   20MOL   C367 7625   7.226   4.319   3.687  0.2854 -0.2825  0.5226
   20MOL   C368 7626   7.343   4.216   3.701  0.4241 -0.0418  0.5959
   20MOL   C369 7627   7.287   4.084   3.759  0.5485 -0.3450  0.3991
   20MOL   H370 7628   7.025   4.744   3.572 -0.7396 -1.5106  1.1678
   20MOL   H371 7629   7.088   4.784   3.724  0.0529 -1.4484 -0.4450
   20MOL   H372 7630   7.328   4.695   3.618  0.5488 -1.3042  1.1228
   20MOL   H373 7631   7.375   4.484   3.685  0.3494 -1.4844  1.6130
   20MOL   H374 7632   7.308   4.443   3.528 -1.7156 -2.1469  0.3782
   20MOL   H375 7633   7.144   4.277   3.629 -1.4514  0.2164  2.5519
   20MOL   H376 7634   7.182   4.334   3.785 -2.7757  1.7657 -1.1122
   20MOL   H377 7635   7.420   4.257   3.767  0.1027 -0.9903  1.5797
   20MOL   H378 7636   7.377   4.203   3.599  1.3567 -0.1791  0.9221
   20MOL   H379 7637   7.243   4.090   3.859  2.8814  3.8028  1.2799
   20MOL   H380 7638   7.210   4.041   3.696  0.0371 -0.0034  0.7905
   20MOL   H381 7639   7.360   4.003   3.772  0.2038 -0.5984  0.7834
   20MOL   H382 7640   7.228   4.645   3.488 -0.2393  1.1981  0.2182
   21MOL     C1 7641   6.776   5.799   7.495 -0.0422  0.5418 -0.4317
   21MOL     C2 7642   6.657   5.724   7.430  0.1137  0.1669  0.5632
   21MOL     O3 7643   6.699   5.591   7.407  0.2325 -0.2360  0.1954
   21MOL     C4 7644   6.774   5.584   7.284  0.1157  0.1895  0.1705
   21MOL     C5 7645   6.824   5.441   7.264 -0.3591 -0.0475 -0.2868
   21MOL     C6 7646   6.964   5.439   7.325 -0.4400 -0.0019 -1.2068
   21MOL     C7 7647   7.021   5.298   7.355 -0.2338  0.1008 -0.3171
   21MOL     H8 7648   6.816   5.734   7.573  0.5912 -1.5168 -2.4309
   21MOL     H9 7649   6.861   5.819   7.430  0.8398  0.2013  0.5855
   21MOL    H10 7650   6.633   5.774   7.336 -0.9009 -0.4363  0.4966
   21MOL    H11 7651   6.718   5.601   7.192 -0.9979 -1.3610  0.5451
   21MOL    H12 7652   6.856   5.656   7.283  1.1719 -0.9592  2.1862
   21MOL    H13 7653   6.825   5.419   7.157 -0.5643  0.2983 -0.3617
   21MOL    H14 7654   6.763   5.364   7.310  1.9321 -1.0103  1.2361
   21MOL    H15 7655   6.972   5.488   7.422  0.7253  0.6283 -1.6096
   21MOL    H16 7656   7.042   5.492   7.271 -0.5189 -0.7541 -2.0764
   21MOL    H17 7657   7.030   5.246   7.260  0.8292  0.0452 -0.1976
   21MOL    H18 7658   6.960   5.254   7.434  0.3917  1.3445  0.8865
   21MOL    H19 7659   7.120   5.308   7.398 -0.1656  0.0924 -0.4713
   21MOL    H20 7660   6.750   5.893   7.544 -0.1232  0.4507 -0.2987
   21MOL    C21 7661   6.538   5.724   7.527 -0.8018 -0.2762  0.4299
   21MOL    C22 7662   6.399   5.723   7.462  0.1335  0.3153  0.8632
   21MOL    O23 7663   6.388   5.818   7.351  0.3151  0.7653  0.1053
   21MOL    C24 7664   6.263   5.850   7.317  0.0781  0.0073  0.1574
   21MOL    C25 7665   6.287   5.953   7.204 -0.4023 -0.9133 -0.4106
   21MOL    C26 7666   6.386   5.925   7.091  0.0375  0.0824  0.3879
   21MOL    C27 7667   6.425   6.052   7.007  0.1494 -0.0686 -0.4026
   21MOL    H28 7668   6.546   5.823   7.571 -1.9190 -0.4312  0.9807
   21MOL    H29 7669   6.542   5.652   7.609 -0.4279 -1.1549 -0.3452
   21MOL    H30 7670   6.324   5.744   7.538 -0.1977  1.3861  0.2469
   21MOL    H31 7671   6.209   5.905   7.393  0.3551  0.0130  0.3488
   21MOL    H32 7672   6.205   5.773   7.267 -1.7090  1.7210 -0.4821
   21MOL    H33 7673   6.189   5.980   7.163  0.4544  2.3839 -0.4537
   21MOL    H34 7674   6.329   6.043   7.250 -0.0578 -0.8628 -0.8282
   21MOL    H35 7675   6.474   5.870   7.122 -1.9001 -1.5284  3.1700
   21MOL    H36 7676   6.346   5.858   7.015 -2.1423 -0.4115  1.9518
   21MOL    H37 7677   6.476   6.116   7.079  0.4449 -0.7307 -0.0179
   21MOL    H38 7678   6.504   6.031   6.934  0.9444  0.3667  0.3183
   21MOL    H39 7679   6.343   6.104   6.958  0.9744 -0.4207 -2.1954
   21MOL    C40 7680   6.361   5.592   7.395  0.4377  0.3026 -0.8470
   21MOL    C41 7681   6.398   5.464   7.475 -0.5389  0.2081  0.2070
   21MOL    O42 7682   6.369   5.342   7.402 -0.1575 -0.5889 -0.2915
   21MOL    C43 7683   6.472   5.303   7.311  0.5919 -0.2308  0.4257
   21MOL    C44 7684   6.423   5.175   7.243 -0.6444 -0.1790 -0.4023
   21MOL    C45 7685   6.416   5.050   7.328 -0.0264  0.0178  0.0076
   21MOL    C46 7686   6.371   4.925   7.252 -0.1191 -0.3032  0.4015
   21MOL    H47 7687   6.416   5.589   7.301 -0.0751 -2.1627 -1.0920
   21MOL    H48 7688   6.255   5.581   7.369  0.6764 -1.1570 -1.2111
   21MOL    H49 7689   6.503   5.458   7.500 -0.6756 -0.8189  0.5396
   21MOL    H50 7690   6.555   5.284   7.380  1.7120 -0.3453 -0.9418
   21MOL    H51 7691   6.505   5.377   7.238  0.1402 -0.1920  0.2602
   21MOL    H52 7692   6.499   5.151   7.168 -1.4844  0.5440 -1.5043
   21MOL    H53 7693   6.323   5.187   7.200 -0.5431  0.7781 -0.3834
   21MOL    H54 7694   6.357   5.068   7.418 -2.2875  0.2568 -1.4995
   21MOL    H55 7695   6.521   5.038   7.354  0.4652  0.1727 -1.8232
   21MOL    H56 7696   6.371   4.834   7.313 -3.9947 -1.0522 -0.6104
   21MOL    H57 7697   6.273   4.946   7.210  0.6499 -0.9803 -1.7839
   21MOL    H58 7698   6.449   4.905   7.178  1.1701  2.7406  0.8475
   21MOL    C59 7699   6.320   5.455   7.610  0.2614  0.3349  0.2226
   21MOL    C60 7700   6.367   5.344   7.701 -0.2458  0.3036 -0.5291
   21MOL    O61 7701   6.463   5.402   7.789 -0.9263 -0.6769 -0.0365
   21MOL    C62 7702   6.603   5.365   7.754 -0.3904 -0.6027  0.9151
   21MOL    C63 7703   6.692   5.433   0.061  0.1653  0.0858  0.1422
   21MOL    C64 7704   6.648   5.379   0.206  0.2387  0.4645 -0.7925
   21MOL    C65 7705   6.745   5.439   0.311  0.8404  0.5384  0.3760
   21MOL    H66 7706   6.327   5.554   7.656  2.6519  0.3739 -0.1737
   21MOL    H67 7707   6.219   5.437   7.573  0.0132  2.1762 -0.0535
   21MOL    H68 7708   6.400   5.265   7.634 -1.0537 -0.6840  0.2282
   21MOL    H69 7709   6.636   5.414   7.663  1.0792  1.2009  2.3638
   21MOL    H70 7710   6.627   5.259   7.752  0.2382 -0.5562  4.0029
   21MOL    H71 7711   6.796   5.402   0.052  0.8878  1.9353  1.8760
   21MOL    H72 7712   6.686   5.542   0.053 -0.3139 -0.0263 -1.1490
   21MOL    H73 7713   6.550   5.422   0.227  1.4421  2.9918 -0.1340
   21MOL    H74 7714   6.648   5.270   0.206 -0.7635  0.4535 -1.5437
   21MOL    H75 7715   6.847   5.407   0.288  0.6124  0.8422 -1.1497
   21MOL    H76 7716   6.725   5.546   0.320 -0.8798  0.1074  1.9358
   21MOL    H77 7717   6.705   5.401   0.404 -0.6321 -0.0215 -0.4736
   21MOL    C78 7718   6.243   5.295   7.770  0.1293 -0.1313 -0.4958
   21MOL    C79 7719   6.250   5.165   0.051  0.0356 -0.4774 -0.7552
   21MOL    O80 7720   6.235   5.079   7.756 -0.5630  0.3173  0.8789
   21MOL    C81 7721   6.289   4.952   7.781  0.1735 -0.0862 -0.5175
   21MOL    C82 7722   6.444   4.964   7.754  0.6942  0.0283  0.1123
   21MOL    C83 7723   6.510   4.827   7.763  0.3968 -0.0265  0.1612
   21MOL    C84 7724   6.630   4.814   7.671 -0.0994  0.4091 -0.3366
   21MOL    H85 7725   6.153   5.293   7.708  0.2729  1.4493 -0.7634
   21MOL    H86 7726   6.217   5.375   0.038 -0.4499 -0.8069  0.0747
   21MOL    H87 7727   6.352   5.171   0.090 -0.9455 -1.0543  1.9968
   21MOL    H88 7728   6.255   4.891   7.697  0.2149 -1.6198  0.5740
   21MOL    H89 7729   6.266   4.897   0.070  0.1260 -1.0697 -1.1242
   21MOL    H90 7730   6.454   4.985   7.647  2.9150 -0.0745  0.2768
   21MOL    H91 7731   6.499   5.044   0.002 -1.3606  0.8900  1.0539
   21MOL    H92 7732   6.447   4.737   7.757  1.8812 -0.9312 -2.3812
   21MOL    H93 7733   6.549   4.825   0.063  1.3206  0.9399 -0.1746
   21MOL    H94 7734   6.599   4.849   7.572 -0.8050 -0.2870 -0.3678
   21MOL    H95 7735   6.717   4.875   7.697  0.5081 -1.3751  1.9848
   21MOL    H96 7736   6.644   4.706   7.677 -2.0632  0.0373 -1.7911
   21MOL    C97 7737   6.159   5.144   0.175  0.4178 -0.8161 -0.3344
   21MOL    C98 7738   6.194   5.234   0.296  0.1476 -0.4323 -0.1431
   21MOL    O99 7739   6.101   5.209   0.401  0.0106 -0.3695  0.9771
   21MOL   C100 7740   6.023   5.320   0.442  0.1440 -0.6713 -0.8972
   21MOL   C101 7741   5.888   5.322   0.364  0.4697 -0.2262  0.2609
   21MOL   C102 7742   5.795   5.425   0.417  0.6293  0.0215  0.1320
   21MOL   C103 7743   5.658   5.413   0.339  0.4192  0.7160  0.0584
   21MOL   H104 7744   6.173   5.042   0.211  0.3732 -0.5353  0.4954
   21MOL   H105 7745   6.054   5.150   0.146  0.1245 -1.5317  0.5732
   21MOL   H106 7746   6.185   5.332   0.250 -1.7459 -1.0006 -1.0264
   21MOL   H107 7747   6.071   5.418   0.429  1.0699 -0.9178  0.4791
   21MOL   H108 7748   6.015   5.307   0.550  0.0140 -0.6683 -0.9071
   21MOL   H109 7749   5.851   5.222   0.385 -0.3716  0.2618  1.1629
   21MOL   H110 7750   5.898   5.341   0.258  2.3511  2.1720  0.8032
   21MOL   H111 7751   5.842   5.523   0.410  3.0906 -1.0526  1.1066
   21MOL   H112 7752   5.772   5.405   0.521  0.0203  0.3670  0.0652
   21MOL   H113 7753   5.585   5.488   0.369 -2.1271 -1.1586 -1.1966
   21MOL   H114 7754   5.667   5.425   0.231 -4.0769  1.6070 -0.3270
   21MOL   H115 7755   5.630   5.309   0.352 -1.1076  1.1071 -0.0280
   21MOL   C116 7756   6.342   5.205   0.352  0.2850  0.0131 -0.4609
   21MOL   C117 7757   6.381   5.259   0.488  0.1478  0.4649  0.6226
   21MOL   O118 7758   6.520   5.221   0.504  0.1585  0.0868  0.0654
   21MOL   C119 7759   6.537   5.090   0.546 -1.1120 -0.3301 -0.0471
   21MOL   C120 7760   6.679   5.072   0.589 -0.2587 -0.4556 -0.1213
   21MOL   C121 7761   6.721   5.165   0.702  0.3406  0.6614 -0.3015
   21MOL   C122 7762   6.845   5.129   0.779 -0.5463  0.1093  0.0512
   21MOL   H123 7763   6.355   5.097   0.362  3.4179  0.1529 -2.4663
   21MOL   H124 7764   6.415   5.245   0.282 -0.6558 -1.0391 -2.0758
   21MOL   H125 7765   6.314   5.218   0.563  0.2186 -1.1893 -0.2014
   21MOL   H126 7766   6.521   5.017   0.466  0.6320 -0.4387 -0.2981
   21MOL   H127 7767   6.470   5.061   0.627  1.3958  0.5637  2.4372
   21MOL   H128 7768   6.740   5.087   0.500  0.3436 -2.2355 -0.0420
   21MOL   H129 7769   6.690   4.971   0.629 -0.8936  0.3100  2.0351
   21MOL   H130 7770   6.733   5.270   0.673 -1.1069  0.5013 -1.5679
   21MOL   H131 7771   6.628   5.161   0.758  1.5027 -0.0608  1.5995
   21MOL   H132 7772   6.862   5.195   0.864  0.5212 -1.4098  1.0553
   21MOL   H133 7773   6.930   5.137   0.712 -0.7630 -3.8977 -0.8456
   21MOL   H134 7774   6.843   5.030   0.825 -1.1736  1.4515  3.0226
   21MOL   C135 7775   6.384   5.408   0.501 -0.1902 -0.2553  0.6052
   21MOL   C136 7776   6.432   5.463   0.639  0.4602 -0.5797  0.3152
   21MOL   O137 7777   6.457   5.602   0.625  0.8502 -0.1073 -0.0213
   21MOL   C138 7778   6.565   5.641   0.544  0.0811 -0.0535  0.2129
   21MOL   C139 7779   6.606   5.770   0.609  0.3189 -0.0848 -0.7382
   21MOL   C140 7780   6.711   5.852   0.535 -0.4752 -0.0141 -0.3591
   21MOL   C141 7781   6.711   6.001   0.574  0.0799  0.8479  0.5834
   21MOL   H142 7782   6.287   5.452   0.477  0.4664 -0.1806 -2.0939
   21MOL   H143 7783   6.457   5.431   0.423 -0.1343 -3.0449 -0.1887
   21MOL   H144 7784   6.519   5.408   0.676  1.6333  0.6414 -0.5701
   21MOL   H145 7785   6.541   5.655   0.439 -2.2772 -3.2619  0.2234
   21MOL   H146 7786   6.651   5.576   0.559  2.1077  2.2946 -0.9275
   21MOL   H147 7787   6.647   5.761   0.709 -2.4332  1.1109  0.5390
   21MOL   H148 7788   6.516   5.829   0.628 -1.2788 -2.0094 -2.2011
   21MOL   H149 7789   6.807   5.808   0.558 -0.3849 -0.6025 -1.7963
   21MOL   H150 7790   6.703   5.844   0.427  0.8313 -0.9390 -0.3913
   21MOL   H151 7791   6.806   6.048   0.550 -0.3043  1.0255 -0.5801
   21MOL   H152 7792   6.631   6.042   0.512 -1.4834 -2.8939 -0.0520
   21MOL   H153 7793   6.705   6.003   0.683  0.5434 -1.0415  0.6711
   21MOL   C154 7794   6.317   5.443   0.735 -0.2972  0.1916  0.8941
   21MOL   C155 7795   6.331   5.320   0.828 -1.1218 -0.6711 -0.3531
   21MOL   O156 7796   6.207   5.302   0.895  0.4931 -0.0999 -0.4309
   21MOL   C157 7797   6.106   5.246   0.813 -0.4382  0.0344 -0.1028
   21MOL   C158 7798   6.057   5.122   0.895 -0.7685  0.9330 -0.5007
   21MOL   C159 7799   5.933   5.059   0.826  0.1356 -0.0792 -0.3710
   21MOL   C160 7800   5.805   5.137   0.847 -0.0059 -0.3082  0.5665
   21MOL   H161 7801   6.217   5.439   0.691  0.0243  0.2910  0.1547
   21MOL   H162 7802   6.310   5.533   0.795  0.4443  1.7881 -1.3373
   21MOL   H163 7803   6.358   5.231   0.771 -0.8490 -0.3396 -0.7439
   21MOL   H164 7804   6.032   5.323   0.793 -0.7652 -0.1761  0.2805
   21MOL   H165 7805   6.149   5.200   0.724  0.8466  0.2930  0.3694
   21MOL   H166 7806   6.019   5.160   0.990  1.4362  1.2812  0.2941
   21MOL   H167 7807   6.147   5.061   0.907  0.1794  2.4954  0.5806
   21MOL   H168 7808   5.952   5.034   0.722 -1.7362  0.8266 -0.9680
   21MOL   H169 7809   5.906   4.963   0.870 -1.4895 -0.5370 -2.2987
   21MOL   H170 7810   5.710   5.096   0.813 -0.6556  1.1517  0.6011
   21MOL   H171 7811   5.797   5.167   0.952  2.7628 -2.5928  1.4864
   21MOL   H172 7812   5.825   5.228   0.791  1.5491 -2.2107 -2.0880
   21MOL   C173 7813   6.438   5.340   0.934 -0.0374  0.1566 -0.0197
   21MOL   C174 7814   6.455   5.220   1.031 -0.5664 -0.7143 -0.4878
   21MOL   O175 7815   6.503   5.108   0.964 -0.1789  0.2261  0.8850
   21MOL   C176 7816   6.482   4.985   1.024 -0.6622 -0.4866  0.0054
   21MOL   C177 7817   6.566   4.892   0.937  0.9009 -0.1896  0.2557
   21MOL   C178 7818   6.493   4.829   0.825  1.2850  0.6546 -0.0562
   21MOL   C179 7819   6.415   4.705   0.885 -0.0669  0.5139 -0.8452
   21MOL   H180 7820   6.429   5.434   0.989  0.3284  0.3562 -0.2970
   21MOL   H181 7821   6.538   5.355   0.893 -0.0694  0.9726  0.2026
   21MOL   H182 7822   6.356   5.206   1.073 -0.6902  1.6787  0.1238
   21MOL   H183 7823   6.374   4.968   1.024 -1.2325  2.4733 -2.8687
   21MOL   H184 7824   6.526   4.980   1.123  2.8324  0.3052 -1.4509
   21MOL   H185 7825   6.622   4.812   0.985  0.0888 -0.9394 -0.0288
   21MOL   H186 7826   6.649   4.954   0.905 -0.4920  0.9548 -1.2047
   21MOL   H187 7827   6.430   4.891   0.762 -0.9410 -0.4461  1.0606
   21MOL   H188 7828   6.555   4.764   0.762  1.3642  1.3485 -0.6987
   21MOL   H189 7829   6.343   4.736   0.961 -0.2070 -1.1877 -0.2477
   21MOL   H190 7830   6.357   4.643   0.817 -1.5513  0.3498  0.5391
   21MOL   H191 7831   6.482   4.636   0.938 -1.0015 -1.0510 -1.6659
   21MOL   C192 7832   6.553   5.260   1.147 -0.1909 -0.0740  0.4677
   21MOL   C193 7833   6.507   5.351   1.269 -0.5147 -0.3650 -0.2083
   21MOL   O194 7834   6.382   5.301   1.321 -0.1943  0.0106 -0.5498
   21MOL   C195 7835   6.263   5.363   1.282 -0.7207 -0.5669 -0.1178
   21MOL   C196 7836   6.131   5.283   1.308 -0.5827 -0.1150 -0.6326
   21MOL   C197 7837   6.017   5.370   1.264 -0.2939 -0.2856  0.5474
   21MOL   C198 7838   5.881   5.292   1.277 -0.0687  0.2483  0.1886
   21MOL   H199 7839   6.636   5.303   1.092  0.1666 -2.2374 -0.7314
   21MOL   H200 7840   6.597   5.169   1.186  0.3462 -0.7876 -1.7439
   21MOL   H201 7841   6.491   5.454   1.238 -1.1578 -0.3426  0.1946
   21MOL   H202 7842   6.269   5.386   1.176  0.8340 -1.5410 -0.2539
   21MOL   H203 7843   6.268   5.458   1.335  4.1262 -0.2462 -0.9385
   21MOL   H204 7844   6.143   5.185   1.262  1.4939 -0.4372  0.5097
   21MOL   H205 7845   6.117   5.262   1.414 -2.0852 -2.0619 -1.1958
   21MOL   H206 7846   6.038   5.418   1.169 -0.2309 -0.1348  0.6386
   21MOL   H207 7847   6.010   5.453   1.333  0.5751 -1.5398  2.1790
   21MOL   H208 7848   5.888   5.200   1.219 -1.3510 -0.7470  1.5693
   21MOL   H209 7849   5.862   5.259   1.380  0.2334  1.4326  0.6282
   21MOL   H210 7850   5.795   5.352   1.249  0.5208  1.2081  0.4056
   21MOL   C211 7851   6.599   5.364   1.398  0.2484 -0.2377 -0.9174
   21MOL   C212 7852   6.734   5.438   1.369  0.8153 -0.4090 -0.0279
   21MOL   O213 7853   6.687   5.558   1.304  0.2227 -0.5836  0.2061
   21MOL   C214 7854   6.781   5.636   1.225 -0.2648  0.0947  0.3528
   21MOL   C215 7855   6.700   5.740   1.154  0.1454 -0.0548 -0.4234
   21MOL   C216 7856   6.595   5.688   1.053  0.1758  0.5266 -0.0261
   21MOL   C217 7857   6.515   5.791   0.982  0.0076 -0.2889  0.1835
   21MOL   H218 7858   6.615   5.264   1.437 -2.1446 -0.2303  0.1795
   21MOL   H219 7859   6.544   5.433   1.462  0.4323 -0.5244 -0.4581
   21MOL   H220 7860   6.798   5.386   1.297  0.0504  0.6486 -1.5042
   21MOL   H221 7861   6.857   5.684   1.286  0.6797  0.0762 -0.7951
   21MOL   H222 7862   6.842   5.580   1.154 -0.0400  1.4676 -0.5392
   21MOL   H223 7863   6.651   5.799   1.231  1.7771  1.8551 -0.8049
   21MOL   H224 7864   6.764   5.811   1.102  1.9055 -0.5860  0.9745
   21MOL   H225 7865   6.523   5.624   1.105 -0.3440  0.9296 -0.2407
   21MOL   H226 7866   6.650   5.627   0.981  0.6715  0.3761  0.4793
   21MOL   H227 7867   6.457   5.849   1.054 -2.6252 -1.0637 -1.2340
   21MOL   H228 7868   6.450   5.728   0.921  1.9156 -1.7389 -0.3765
   21MOL   H229 7869   6.587   5.856   0.933  0.8678 -1.6735 -0.3918
   21MOL   C230 7870   6.809   5.471   1.497 -0.4459  0.1121 -0.1178
   21MOL   C231 7871   6.923   5.381   1.537 -0.1820 -0.0683  0.1892
   21MOL   O232 7872   7.033   5.408   1.451 -0.0038  0.3368  0.2829
   21MOL   C233 7873   7.109   5.524   1.478  0.3154  0.5740 -0.3186
   21MOL   C234 7874   7.225   5.529   1.383  0.0438 -0.3573  0.1199
   21MOL   C235 7875   7.176   5.524   1.237  0.3177 -0.4940  0.0648
   21MOL   C236 7876   7.291   5.544   1.140 -0.2891 -0.1602 -0.3068
   21MOL   H237 7877   6.736   5.464   1.578  0.2736  1.0035  0.6175
   21MOL   H238 7878   6.833   5.577   1.496  0.8666 -0.0842  3.6811
   21MOL   H239 7879   6.886   5.282   1.508 -1.3163  0.0700  1.1364
   21MOL   H240 7880   7.048   5.615   1.479 -0.1490  0.2696 -1.4529
   21MOL   H241 7881   7.156   5.512   1.576 -1.2063 -1.8066  0.1485
   21MOL   H242 7882   7.285   5.616   1.408 -0.4275 -0.3134  1.1340
   21MOL   H243 7883   7.292   5.443   1.391  0.6493  0.1347  0.4248
   21MOL   H244 7884   7.096   5.596   1.218 -0.0846 -0.7978  0.6036
   21MOL   H245 7885   7.135   5.424   1.226  0.4027 -0.4810 -0.3758
   21MOL   H246 7886   7.262   5.516   1.039 -1.3280  1.0745 -0.3583
   21MOL   H247 7887   7.375   5.476   1.160  1.3113  1.2363 -2.0859
   21MOL   H248 7888   7.323   5.648   1.135  0.9313 -0.3427  2.5727
   21MOL   C249 7889   6.960   5.372   1.693 -0.5563 -0.2798 -0.0948
   21MOL   C250 7890   7.064   5.268   1.737  0.0643 -0.2716 -0.5275
   21MOL   O251 7891   6.997   5.144   1.720  0.3295  0.3944 -0.1981
   21MOL   C252 7892   7.085   5.036   1.716 -0.4831  0.4442  0.3733
   21MOL   C253 7893   7.006   4.927   1.637 -0.5471  0.0570 -0.1573
   21MOL   C254 7894   7.075   4.789   1.622  0.2609  0.0851 -0.0745
   21MOL   C255 7895   7.192   4.806   1.521  0.3542 -0.1651 -0.4824
   21MOL   H256 7896   6.865   5.355   1.744 -0.1140 -0.9190  0.5395
   21MOL   H257 7897   6.979   5.472   1.732 -2.3397 -0.1336  0.4575
   21MOL   H258 7898   7.155   5.284   1.680  1.0019 -0.5479  0.8590
   21MOL   H259 7899   7.120   4.997   1.811 -0.8235  2.0351  1.1621
   21MOL   H260 7900   7.173   5.070   1.661  0.2742  1.0542  1.9473
   21MOL   H261 7901   6.905   4.916   1.676  0.0074 -3.7531  0.3649
   21MOL   H262 7902   6.997   4.964   1.535  1.0323  2.1245  0.4051
   21MOL   H263 7903   7.109   4.744   1.715 -1.7424  1.0121  1.1582
   21MOL   H264 7904   7.000   4.723   1.578  0.4645  0.8504 -1.6209
   21MOL   H265 7905   7.261   4.871   1.576  0.2814  0.4375 -1.0827
   21MOL   H266 7906   7.161   4.855   1.429  2.1609 -1.3158 -1.7333
   21MOL   H267 7907   7.249   4.715   1.500  0.5818 -0.0176 -0.5085
   21MOL   C268 7908   7.106   5.279   1.886  0.3684 -0.5215  0.0416
   21MOL   C269 7909   7.170   5.420   1.923 -0.1168  0.6268  0.2957
   21MOL   O270 7910   7.126   5.451   2.051  0.2846  0.4190 -0.1469
   21MOL   C271 7911   6.997   5.512   2.055 -1.0831 -0.7833  1.0152
   21MOL   C272 7912   6.993   5.643   2.139  0.3512  0.7844  0.1633
   21MOL   C273 7913   6.875   5.738   2.116 -0.0575 -0.1023 -0.6505
   21MOL   C274 7914   6.894   5.877   2.193  0.7302  0.3867 -0.5001
   21MOL   H275 7915   7.011   5.269   1.938  0.0168 -0.3333 -0.5652
   21MOL   H276 7916   7.166   5.193   1.915 -0.0504 -0.3529  1.4612
   21MOL   H277 7917   7.139   5.498   1.854  0.0653 -0.4720 -1.0462
   21MOL   H278 7918   6.958   5.537   1.956  0.5120 -1.8460  0.0970
   21MOL   H279 7919   6.939   5.431   2.100  0.2711 -2.3739 -0.0231
   21MOL   H280 7920   7.000   5.616   2.245  1.3201 -0.1928 -0.1407
   21MOL   H281 7921   7.083   5.701   2.119 -0.1094  0.5633 -2.6688
   21MOL   H282 7922   6.786   5.678   2.134  0.6254 -0.6853  0.8695
   21MOL   H283 7923   6.877   5.768   2.011  1.1874  0.5662 -0.4418
   21MOL   H284 7924   6.965   5.948   2.150  1.6115  1.0292  1.9181
   21MOL   H285 7925   6.934   5.859   2.292  0.9278 -1.1742 -0.8574
   21MOL   H286 7926   6.800   5.931   2.207  1.3880  1.4337 -0.0934
   21MOL   C287 7927   7.322   5.399   1.938  0.5841 -0.0687 -0.3665
   21MOL   C288 7928   7.388   5.538   1.940 -0.1734 -0.1282  0.1365
   21MOL   O289 7929   7.361   5.603   1.816 -0.0107  0.5028 -0.4298
   21MOL   C290 7930   7.371   5.747   1.809 -0.0825 -0.8301 -0.3961
   21MOL   C291 7931   7.259   5.797   1.720  0.2366 -0.2639  0.0087
   21MOL   C292 7932   7.117   5.769   1.781  0.2787  0.0653 -0.6523
   21MOL   C293 7933   7.015   5.845   1.705  0.1599 -0.5723  0.3705
   21MOL   H294 7934   7.374   5.344   1.859  0.3510 -0.4852 -0.2336
   21MOL   H295 7935   7.336   5.334   2.025 -0.1122 -0.2463 -0.3899
   21MOL   H296 7936   7.336   5.600   2.014  0.7961 -1.7506  2.2294
   21MOL   H297 7937   7.355   5.794   1.907 -0.1441 -0.4868 -0.5692
   21MOL   H298 7938   7.470   5.772   1.771  0.1595  1.2352  1.4943
   21MOL   H299 7939   7.255   5.750   1.622 -2.5251 -0.3843  0.1446
   21MOL   H300 7940   7.264   5.904   1.703 -0.5384 -0.5217 -1.9263
   21MOL   H301 7941   7.106   5.810   1.882  2.9162 -0.9520  0.0877
   21MOL   H302 7942   7.088   5.664   1.794  0.4743  0.3213  2.1286
   21MOL   H303 7943   7.029   5.953   1.711 -0.4857 -0.4767  0.2162
   21MOL   H304 7944   6.996   5.810   1.603  1.0030 -2.6423  0.9025
   21MOL   H305 7945   6.915   5.830   1.747 -1.9285  3.4660 -2.7790
   21MOL   C306 7946   7.541   5.524   1.961  0.4080  0.3333  0.0963
   21MOL   C307 7947   7.588   5.453   2.095  0.2233 -0.9884  0.0191
   21MOL   O308 7948   7.544   5.547   2.194 -0.2540  0.3582  0.0575
   21MOL   C309 7949   7.512   5.490   2.317 -0.0720  0.1562 -0.3856
   21MOL   C310 7950   7.474   5.603   2.414  0.0478  0.0337  0.2981
   21MOL   C311 7951   7.331   5.651   2.397  0.1985  0.4291 -0.0145
   21MOL   C312 7952   7.309   5.782   2.320  0.1777  0.5060  0.0287
   21MOL   H313 7953   7.575   5.470   1.872 -1.0874 -0.2144 -0.1599
   21MOL   H314 7954   7.583   5.624   1.963 -1.3555  1.0784  0.4073
   21MOL   H315 7955   7.534   5.360   2.117 -0.1091 -0.2718  2.3525
   21MOL   H316 7956   7.595   5.423   2.342  1.6794  2.3137 -0.2664
   21MOL   H317 7957   7.437   5.411   2.312 -0.1268  0.1794  0.0639
   21MOL   H318 7958   7.544   5.686   2.410 -0.4754  0.5289  1.1423
   21MOL   H319 7959   7.479   5.555   2.512 -0.7166  1.9887  1.3129
   21MOL   H320 7960   7.271   5.565   2.369  0.1997 -0.4029  2.3661
   21MOL   H321 7961   7.298   5.691   2.493  1.5317  0.1975  0.5477
   21MOL   H322 7962   7.387   5.855   2.343 -1.5711  2.3001  0.3588
   21MOL   H323 7963   7.225   5.840   2.357 -0.0131  0.0564  0.2903
   21MOL   H324 7964   7.303   5.759   2.213 -0.5483  1.1116 -0.0680
   21MOL   C325 7965   7.738   5.430   2.091 -0.7324 -0.2665 -0.1209
   21MOL   C326 7966   7.793   5.345   1.976 -0.3634  0.1451  0.2791
   21MOL   O327 7967   0.101   5.404   1.921  0.2591  0.3183  0.1163
   21MOL   C328 7968   0.061   5.500   1.824 -0.0390 -0.0825 -1.0711
   21MOL   C329 7969   0.163   5.614   1.840 -0.1774  0.0281 -0.6144
   21MOL   C330 7970   0.147   5.706   1.958  0.0987 -0.1285 -0.2105
   21MOL   C331 7971   0.213   5.840   1.937  0.4210 -0.5328  0.0550
   21MOL   H332 7972   7.772   5.387   2.186  1.3906 -0.9047 -1.1252
   21MOL   H333 7973   7.778   5.531   2.088 -0.9910 -0.0675  2.2237
   21MOL   H334 7974   7.717   5.305   1.907 -0.2195 -3.1902  1.9315
   21MOL   H335 7975   7.764   5.545   1.836 -0.3532 -0.9565 -0.3429
   21MOL   H336 7976   0.059   5.460   1.723 -1.1164  0.9424 -1.4771
   21MOL   H337 7977   0.266   5.577   1.839 -0.0840  0.2927 -1.6555
   21MOL   H338 7978   0.130   5.677   1.756  1.6520  0.1786 -1.2428
   21MOL   H339 7979   0.187   5.655   2.046 -0.5019  3.8476  2.4836
   21MOL   H340 7980   0.041   5.711   1.981  0.7301 -2.5354  3.6979
   21MOL   H341 7981   0.322   5.833   1.930  0.2875 -2.5821 -0.3565
   21MOL   H342 7982   0.190   5.906   2.021  1.4640  0.0172 -0.0812
   21MOL   H343 7983   0.192   5.897   1.847  0.4467 -2.1039 -0.9708
   21MOL   C344 7984   0.048   5.220   2.032  0.3164  0.0329  0.2972
   21MOL   C345 7985   0.086   5.122   1.924  0.1257 -0.3371  0.2142
   21MOL   O346 7986   7.755   5.080   1.876  0.0738  0.1824  0.2821
   21MOL   C347 7987   7.741   5.028   1.744  0.1414 -0.1651 -0.1252
   21MOL   C348 7988   7.604   5.052   1.684  0.6514 -0.2418  0.6590
   21MOL   C349 7989   7.559   5.199   1.662  0.2508 -0.1723  0.5452
   21MOL   C350 7990   7.426   5.220   1.605  0.0110 -0.4939 -0.0872
   21MOL   H351 7991   0.133   5.252   2.091  1.7740 -3.3441  0.1616
   21MOL   H352 7992   7.779   5.172   2.100  1.8785 -1.3439  1.0000
   21MOL   H353 7993   0.148   5.178   1.854  0.0727  0.4797  0.8080
   21MOL   H354 7994   7.759   4.920   1.752  0.2387 -0.0512  1.4876
   21MOL   H355 7995   0.011   5.077   1.678 -0.5224  0.4774 -0.3741
   21MOL   H356 7996   7.521   4.999   1.731 -0.0366 -0.2597 -0.5656
   21MOL   H357 7997   7.600   5.012   1.583 -0.8718  1.2757  0.0869
   21MOL   H358 7998   7.568   5.251   1.757 -0.1927 -0.2385  0.6256
   21MOL   H359 7999   7.626   5.240   1.586 -2.2606  0.9210 -1.1432
   21MOL   H360 8000   7.351   5.165   1.662  0.5881  0.2804  1.4371
   21MOL   H361 8001   7.425   5.190   1.500  1.8769 -0.2230 -0.2077
   21MOL   H362 8002   7.403   5.326   1.615  0.9356 -0.4259  1.4809
   21MOL   C363 8003   0.173   4.998   1.971 -0.3575  0.6232  0.1415
   21MOL   C364 8004   0.312   5.024   2.028 -0.1858  0.2341 -0.8688
   21MOL   O365 8005   0.408   5.057   1.933 -0.4955  0.3817  0.1041
   21MOL   C366 8006   0.546   5.062   1.964 -1.3215 -0.0694  0.6515
   21MOL   C367 8007   0.620   5.135   1.858 -0.1837  0.4905 -0.2808
   21MOL   C368 8008   0.579   5.278   1.855 -0.1222 -0.6893 -0.0687
   21MOL   C369 8009   0.680   5.360   1.765  0.6506 -0.6052  0.0646
   21MOL   H370 8010   0.195   4.943   1.879 -1.0503  1.4295 -0.5074
   21MOL   H371 8011   0.121   4.923   2.031 -1.6119  1.0143 -0.4496
   21MOL   H372 8012   0.342   4.931   2.076 -0.1515 -0.4952 -2.2706
   21MOL   H373 8013   0.579   4.959   1.975  2.3610  0.9183 -0.5072
   21MOL   H374 8014   0.551   5.113   2.061  0.3060  0.0399  0.5184
   21MOL   H375 8015   0.626   5.081   1.764 -0.7237  1.5219 -0.9116
   21MOL   H376 8016   0.724   5.145   1.892 -0.3012  2.3355 -0.3833
   21MOL   H377 8017   0.576   5.312   1.959  1.1749  0.4575 -0.3780
   21MOL   H378 8018   0.480   5.294   1.813 -0.0310 -0.3265 -0.1437
   21MOL   H379 8019   0.687   5.309   1.669  1.6383 -0.1573 -0.1078
   21MOL   H380 8020   0.644   5.462   1.750 -2.1060 -1.0356  3.1417
   21MOL   H381 8021   0.773   5.386   1.816  0.7701 -0.4973 -0.2127
   21MOL   H382 8022   0.307   5.095   2.110  1.1391 -0.7397  0.0902
   22MOL     C1 8023   2.222   3.417   5.033  0.1769  0.0133  0.3583
   22MOL     C2 8024   2.174   3.549   4.972  0.0210  0.3902 -0.6840
   22MOL     O3 8025   2.296   3.626   4.939  0.4462  0.2400  0.1213
   22MOL     C4 8026   2.345   3.710   5.041 -0.0152 -0.1040 -0.4261
   22MOL     C5 8027   2.489   3.753   5.026  0.2040  0.4698  0.6395
   22MOL     C6 8028   2.532   3.835   5.146  0.2838 -0.2740  0.3884
   22MOL     C7 8029   2.458   3.974   5.158 -0.3389 -0.0715 -0.3002
   22MOL     H8 8030   2.281   3.417   5.125 -0.3563 -0.0995  0.7026
   22MOL     H9 8031   2.139   3.355   5.068 -0.8989  0.9605 -0.5069
   22MOL    H10 8032   2.115   3.608   5.043 -0.0906 -1.2279  0.6188
   22MOL    H11 8033   2.282   3.798   5.034 -0.8136 -0.5671  0.7287
   22MOL    H12 8034   2.335   3.662   5.139  1.1523  0.1800 -0.1671
   22MOL    H13 8035   2.507   3.816   4.939  0.8099 -1.2688 -0.5154
   22MOL    H14 8036   2.555   3.668   5.012  0.8970  0.8615  1.4226
   22MOL    H15 8037   2.635   3.869   5.141  0.2924 -0.3244  0.2395
   22MOL    H16 8038   2.528   3.790   5.245  1.7274 -1.8277 -0.2499
   22MOL    H17 8039   2.503   4.032   5.239 -0.9618  0.4578 -0.3280
   22MOL    H18 8040   2.353   3.951   5.173 -0.5222  0.5935 -0.5322
   22MOL    H19 8041   2.475   4.034   5.068  1.2622 -1.3337 -0.8601
   22MOL    H20 8042   2.278   3.361   4.958 -0.1403  1.1730 -0.7567
   22MOL    C21 8043   2.092   3.532   4.845  0.0478 -0.2296 -0.7561
   22MOL    C22 8044   2.053   3.666   4.776 -0.2576  0.3101 -0.6002
   22MOL    O23 8045   2.049   3.628   4.639  0.2511 -0.0216  0.7473
   22MOL    C24 8046   2.149   3.689   4.554  0.1273 -0.6193  0.3116
   22MOL    C25 8047   2.135   3.660   4.407  0.0738  0.7010 -0.0790
   22MOL    C26 8048   2.153   3.508   4.390 -0.4066  0.0446  0.7738
   22MOL    C27 8049   2.119   3.459   4.253  0.4241  0.8419  0.2002
   22MOL    H28 8050   2.007   3.468   4.869 -0.8566  0.8801 -0.9238
   22MOL    H29 8051   2.165   3.478   4.785  1.1881  1.9643 -1.4134
   22MOL    H30 8052   2.122   3.744   4.808  0.1516  0.9734 -2.9938
   22MOL    H31 8053   2.244   3.649   4.591 -1.0125 -2.4615  1.2841
   22MOL    H32 8054   2.159   3.797   4.570 -0.1295 -0.3981 -1.0052
   22MOL    H33 8055   2.037   3.703   4.385  0.2920  1.3702  0.2569
   22MOL    H34 8056   2.208   3.717   4.351  0.5310  0.4815  0.2856
   22MOL    H35 8057   2.255   3.485   4.422 -0.5371 -0.6267  0.6978
   22MOL    H36 8058   2.089   3.456   4.461 -0.8228  0.3562  0.6254
   22MOL    H37 8059   2.163   3.521   4.175 -1.5393  0.1211 -1.5152
   22MOL    H38 8060   2.159   3.362   4.225 -0.8636  0.4026 -0.1429
   22MOL    H39 8061   2.012   3.442   4.244  0.0752  1.6033  2.5311
   22MOL    C40 8062   1.907   3.714   4.816 -0.2584 -0.1074  0.3809
   22MOL    C41 8063   1.855   3.853   4.767 -0.1396 -0.0347  0.0145
   22MOL    O42 8064   1.726   3.875   4.824 -0.2819 -0.2533  0.1364
   22MOL    C43 8065   1.711   3.878   4.963  0.7332  0.2433  0.0065
   22MOL    C44 8066   1.566   3.936   5.003 -0.6901  0.0533  1.0807
   22MOL    C45 8067   1.553   4.076   4.947  0.7481  0.9346 -0.2393
   22MOL    C46 8068   1.434   4.160   5.002  0.2867  0.0883  0.6428
   22MOL    H47 8069   1.929   3.721   4.922 -0.0196 -1.7772  0.4698
   22MOL    H48 8070   1.837   3.633   4.795  0.8006 -0.3726 -2.3218
   22MOL    H49 8071   1.913   3.943   4.788 -0.4139  0.5357 -1.6495
   22MOL    H50 8072   1.787   3.942   5.007  2.5543 -0.1865 -2.4257
   22MOL    H51 8073   1.722   3.781   5.011 -1.5424 -0.1499 -0.2000
   22MOL    H52 8074   1.552   3.935   5.111  0.7741 -1.4263  1.2730
   22MOL    H53 8075   1.491   3.877   4.950  1.6406 -0.8293 -1.2925
   22MOL    H54 8076   1.542   4.055   4.841 -2.1220 -2.4521  0.6131
   22MOL    H55 8077   1.643   4.137   4.955  1.8926 -0.9379  1.7721
   22MOL    H56 8078   1.413   4.249   4.942 -2.0502 -0.6690  0.3050
   22MOL    H57 8079   1.342   4.101   5.002  0.3288  0.0224  0.4728
   22MOL    H58 8080   1.445   4.194   5.105  2.0125 -2.2387  1.2558
   22MOL    C59 8081   1.839   3.854   4.611  0.0160  0.1447  0.1814
   22MOL    C60 8082   1.775   3.979   4.535 -0.0477 -0.8686 -0.3191
   22MOL    O61 8083   1.838   4.103   4.581  0.4107  0.1327 -0.1089
   22MOL    C62 8084   1.749   4.214   4.589  0.2577  0.2607  0.1374
   22MOL    C63 8085   1.822   4.346   4.576  0.7016  0.2646  0.1318
   22MOL    C64 8086   1.866   4.382   4.434 -0.1106 -0.1576  0.3513
   22MOL    C65 8087   1.955   4.501   4.426  0.5189 -0.4428  0.1479
   22MOL    H66 8088   1.939   3.843   4.569 -0.9291  1.8287 -2.6797
   22MOL    H67 8089   1.769   3.772   4.599  0.0163  0.1684  0.0138
   22MOL    H68 8090   1.671   3.992   4.565  0.9792  1.5409  2.5782
   22MOL    H69 8091   1.704   4.210   4.689  1.3183  0.5467  0.6354
   22MOL    H70 8092   1.672   4.211   4.512 -0.1213 -0.4643  0.5310
   22MOL    H71 8093   1.756   4.416   4.625 -0.7974 -1.6721  0.9251
   22MOL    H72 8094   1.912   4.346   4.637  0.3089 -1.2919  0.7256
   22MOL    H73 8095   1.906   4.292   4.388 -2.5935 -0.3416 -1.5625
   22MOL    H74 8096   1.776   4.401   4.375  0.4467  1.0304 -0.1261
   22MOL    H75 8097   2.010   4.513   4.333  0.5899  2.7887  0.5478
   22MOL    H76 8098   1.904   4.596   4.445 -1.3176 -1.4224  0.1993
   22MOL    H77 8099   2.021   4.495   4.512  2.7171 -1.5822 -1.5589
   22MOL    C78 8100   1.773   3.966   4.383  0.4878  0.0299  0.1560
   22MOL    C79 8101   1.697   3.845   4.328  0.4572 -0.4003  0.1630
   22MOL    O80 8102   1.696   3.844   4.186 -0.1443  0.1466  0.0349
   22MOL    C81 8103   1.789   3.752   4.130  0.3324  0.0007 -0.3296
   22MOL    C82 8104   1.772   3.766   3.980  0.8627  0.5425  0.5899
   22MOL    C83 8105   1.875   3.679   3.896 -0.4301 -0.4275 -0.0332
   22MOL    C84 8106   1.856   3.704   3.747  0.1731  1.1259 -0.2129
   22MOL    H85 8107   1.874   3.955   4.343  1.5090 -0.9569  2.8923
   22MOL    H86 8108   1.728   4.059   4.348  1.0270  0.7524  1.3393
   22MOL    H87 8109   1.746   3.760   4.376 -0.0367 -0.8120 -0.0583
   22MOL    H88 8110   1.763   3.652   4.164 -3.0963  1.3629  1.3393
   22MOL    H89 8111   1.892   3.770   4.161  0.5476 -0.5429 -0.7317
   22MOL    H90 8112   1.669   3.736   3.960  2.0163 -2.1839 -1.6760
   22MOL    H91 8113   1.778   3.872   3.954  1.1255 -0.0906 -2.1204
   22MOL    H92 8114   1.861   3.573   3.916  1.3042 -0.7601 -0.4331
   22MOL    H93 8115   1.977   3.698   3.930 -0.5953  1.8877 -0.7524
   22MOL    H94 8116   1.898   3.800   3.717  2.3831  0.9292  2.0431
   22MOL    H95 8117   1.903   3.622   3.691 -1.4423  0.0091  0.0322
   22MOL    H96 8118   1.751   3.703   3.720  0.1893  2.4029 -0.3558
   22MOL    C97 8119   1.547   3.836   4.369  0.1914  0.1378 -0.8342
   22MOL    C98 8120   1.478   3.705   4.352 -0.0160  0.3839  0.7348
   22MOL    O99 8121   1.524   3.631   4.465 -0.2399 -0.3061  0.0111
   22MOL   C100 8122   1.514   3.487   4.460 -0.2798  0.1657  0.3629
   22MOL   C101 8123   1.590   3.409   4.567 -0.5908  0.1038 -0.5695
   22MOL   C102 8124   1.742   3.425   4.547 -0.0929  0.1276  0.5323
   22MOL   C103 8125   1.820   3.354   4.653 -0.0723  0.6499 -0.0995
   22MOL   H104 8126   1.491   3.920   4.328  1.6686  1.2381 -0.6063
   22MOL   H105 8127   1.540   3.855   4.476 -1.3780 -0.3138 -0.8432
   22MOL   H106 8128   1.503   3.659   4.256 -2.2893  0.3784  0.1135
   22MOL   H107 8129   1.548   3.463   4.359  1.2327 -0.6991  1.0713
   22MOL   H108 8130   1.412   3.447   4.464 -0.0848 -0.3862 -0.0526
   22MOL   H109 8131   1.568   3.304   4.546  1.7942 -0.3747 -0.8471
   22MOL   H110 8132   1.558   3.430   4.669 -0.3354 -4.2406  0.4921
   22MOL   H111 8133   1.761   3.532   4.545  0.4228  0.0289 -0.3578
   22MOL   H112 8134   1.778   3.380   4.454 -0.7566  1.2257 -0.2784
   22MOL   H113 8135   1.790   3.399   4.747  0.0745  2.2991 -0.8319
   22MOL   H114 8136   1.801   3.247   4.663 -0.2850  0.9194  2.7963
   22MOL   H115 8137   1.927   3.375   4.652  0.2205 -0.7681 -0.4001
   22MOL   C116 8138   1.318   3.708   4.355  1.1178 -0.0827 -0.3831
   22MOL   C117 8139   1.245   3.802   4.259 -0.7547 -0.1965 -0.2136
   22MOL   O118 8140   1.270   3.744   4.137 -0.1338 -0.2666 -0.4897
   22MOL   C119 8141   1.331   3.818   4.039  0.0699  0.2738  0.0587
   22MOL   C120 8142   1.337   3.739   3.911 -0.0096  0.1162 -0.0787
   22MOL   C121 8143   1.194   3.707   3.866  0.2937 -0.0900 -0.5038
   22MOL   C122 8144   1.212   3.614   3.741  0.5679  0.1570 -0.0662
   22MOL   H123 8145   1.288   3.603   4.348  2.0575 -0.2387 -2.2471
   22MOL   H124 8146   1.294   3.751   4.453  1.5453 -1.3661  0.3030
   22MOL   H125 8147   1.277   3.906   4.265 -1.0823 -0.1843  1.6081
   22MOL   H126 8148   1.430   3.851   4.072  0.6094  0.2521 -1.5080
   22MOL   H127 8149   1.271   3.902   4.004 -0.0325  0.6495  1.1250
   22MOL   H128 8150   1.405   3.655   3.924 -0.0347  0.2610  1.0240
   22MOL   H129 8151   1.390   3.805   3.842 -0.7753 -0.7791 -1.5298
   22MOL   H130 8152   1.153   3.646   3.946  2.4874 -0.9582  0.0104
   22MOL   H131 8153   1.146   3.803   3.846  2.0496  1.2663  1.3966
   22MOL   H132 8154   1.120   3.582   3.692  0.5503  0.6816 -0.3757
   22MOL   H133 8155   1.280   3.532   3.766 -0.9976 -0.4413  2.3781
   22MOL   H134 8156   1.264   3.676   3.668  1.7678  1.0666  1.5228
   22MOL   C135 8157   1.092   3.811   4.280  0.4284  0.5148 -0.1909
   22MOL   C136 8158   1.039   3.877   4.407 -0.2942 -0.1233  0.8437
   22MOL   O137 8159   1.092   4.007   4.427  0.0082 -0.5999 -0.4281
   22MOL   C138 8160   1.144   4.040   4.557 -0.3879 -0.0307 -0.3165
   22MOL   C139 8161   1.240   4.153   4.527  0.5082 -0.3821  0.2161
   22MOL   C140 8162   1.317   4.209   4.646 -0.9820  0.1677  0.4925
   22MOL   C141 8163   1.400   4.331   4.606 -0.6560 -0.1370 -0.4941
   22MOL   H142 8164   1.047   3.713   4.264 -0.1480  0.9480 -1.2362
   22MOL   H143 8165   1.053   3.873   4.200 -1.2041 -1.2015 -0.7613
   22MOL   H144 8166   1.055   3.810   4.492  1.6692 -0.7261  0.0405
   22MOL   H145 8167   1.188   3.952   4.603 -1.6521 -0.2706  0.4617
   22MOL   H146 8168   1.066   4.085   4.620  1.3718  3.6677 -0.6140
   22MOL   H147 8169   1.180   4.240   4.498 -0.7328 -0.9369  1.0897
   22MOL   H148 8170   1.316   4.128   4.453 -0.1662  0.5242 -0.7994
   22MOL   H149 8171   1.253   4.230   4.732 -0.2998  2.2591  0.5272
   22MOL   H150 8172   1.387   4.132   4.678  0.3696  0.7814 -0.8989
   22MOL   H151 8173   1.340   4.422   4.601  2.3365  1.9958  0.6674
   22MOL   H152 8174   1.485   4.356   4.670 -1.0736  0.9529 -0.3507
   22MOL   H153 8175   1.449   4.319   4.509 -1.1777  1.1551 -0.9322
   22MOL   C154 8176   0.889   3.889   4.395  0.1890  0.6362 -0.5618
   22MOL   C155 8177   0.806   3.762   4.406 -0.6877  0.0055  0.4771
   22MOL   O156 8178   0.668   3.801   4.427 -0.7327 -0.5192  0.4372
   22MOL   C157 8179   0.607   3.831   4.301 -0.2446 -0.3933  0.0967
   22MOL   C158 8180   0.460   3.876   4.325  0.1290  0.1105  0.0814
   22MOL   C159 8181   0.378   3.778   4.401  0.1624  0.5774 -0.2805
   22MOL   C160 8182   0.237   3.835   4.419  0.4233 -0.0766 -0.1356
   22MOL   H161 8183   0.861   3.941   4.303 -1.6396  1.4354  0.4292
   22MOL   H162 8184   0.852   3.946   4.480  0.8228  0.6176 -0.2698
   22MOL   H163 8185   0.813   3.698   4.318 -0.0590  2.4128 -1.2602
   22MOL   H164 8186   0.658   3.911   4.246 -0.5828 -0.6261 -0.5651
   22MOL   H165 8187   0.612   3.741   4.240 -1.6843 -0.0518 -0.5441
   22MOL   H166 8188   0.416   3.901   4.228  2.2762 -1.2385 -1.2889
   22MOL   H167 8189   0.459   3.970   4.380  2.1262  2.5538 -3.8192
   22MOL   H168 8190   0.371   3.682   4.351  1.0793  1.6044 -2.4484
   22MOL   H169 8191   0.424   3.765   4.499  0.2601  0.5351 -0.3309
   22MOL   H170 8192   0.194   3.855   4.321  0.1144  1.2736  0.2686
   22MOL   H171 8193   0.174   3.776   4.486 -0.9582  0.7195 -0.7135
   22MOL   H172 8194   0.241   3.937   4.458  1.2842 -0.3224  0.4356
   22MOL   C173 8195   0.837   3.674   4.526  0.1987 -0.3627 -0.1010
   22MOL   C174 8196   0.914   3.541   4.504 -0.3293  0.2902 -0.8599
   22MOL   O175 8197   0.965   3.484   4.634 -0.1094 -0.1560 -0.1291
   22MOL   C176 8198   1.053   3.559   4.699  0.3552  0.4920  0.5779
   22MOL   C177 8199   1.118   3.460   4.798  0.5039  0.2761 -0.0616
   22MOL   C178 8200   1.021   3.445   4.913 -0.0267  0.0291 -0.3249
   22MOL   C179 8201   1.058   3.336   5.004 -0.1046 -0.4984 -0.5257
   22MOL   H180 8202   0.744   3.650   4.579  1.0831  0.9966  2.1307
   22MOL   H181 8203   0.874   3.735   4.609 -2.3528  1.4767 -0.2697
   22MOL   H182 8204   1.005   3.580   4.458 -0.8550  1.1981 -1.1435
   22MOL   H183 8205   1.004   3.647   4.742 -1.0913  0.7470 -1.5414
   22MOL   H184 8206   1.131   3.602   4.636 -1.6585  0.9388 -1.6637
   22MOL   H185 8207   1.223   3.473   4.826  0.9752 -1.2680 -1.0688
   22MOL   H186 8208   1.126   3.360   4.756  0.3037 -0.1174  0.8234
   22MOL   H187 8209   1.000   3.540   4.962 -0.9681 -0.7987  0.9273
   22MOL   H188 8210   0.924   3.428   4.865  0.2670  0.2794 -0.9992
   22MOL   H189 8211   1.066   3.237   4.960 -3.3536 -0.6001 -0.9809
   22MOL   H190 8212   1.158   3.354   5.043 -0.5759  0.5893  0.2083
   22MOL   H191 8213   0.997   3.335   5.094 -2.7246  1.0620 -2.2311
   22MOL   C192 8214   0.839   3.434   4.422  0.0028  0.0552 -0.8731
   22MOL   C193 8215   0.926   3.323   4.369  0.7626 -0.1708  0.1547
   22MOL   O194 8216   0.847   3.218   4.321  0.5010  0.4299 -0.0531
   22MOL   C195 8217   0.809   3.143   4.432 -0.0508  0.7930 -0.2361
   22MOL   C196 8218   0.896   3.015   4.451  0.1807  0.0393  0.1803
   22MOL   C197 8219   0.819   2.899   4.519  0.1014 -0.3501  0.0521
   22MOL   C198 8220   0.899   2.768   4.513  0.0719 -0.2806  0.0262
   22MOL   H199 8221   0.774   3.471   4.342 -0.2422  0.1779 -0.6208
   22MOL   H200 8222   0.763   3.390   4.488  0.2301 -0.6960 -1.1032
   22MOL   H201 8223   0.984   3.305   4.460 -0.3971 -2.7036  0.4505
   22MOL   H202 8224   0.714   3.106   4.393  0.3672 -1.1796  0.5564
   22MOL   H203 8225   0.774   3.192   4.523 -1.3206  0.5553 -0.5939
   22MOL   H204 8226   0.932   2.974   4.357  0.5957 -2.0093  1.2028
   22MOL   H205 8227   0.982   3.033   4.515  0.7986  0.0286 -0.6434
   22MOL   H206 8228   0.728   2.878   4.464 -0.3547 -1.1276  1.0985
   22MOL   H207 8229   0.798   2.912   4.625 -0.3071 -0.0752 -0.0633
   22MOL   H208 8230   0.838   2.679   4.531 -0.0119 -0.5368 -1.3864
   22MOL   H209 8231   0.948   2.759   4.415 -0.5946 -2.4155 -0.1447
   22MOL   H210 8232   0.971   2.772   4.594  1.2320  0.9615 -1.0421
   22MOL   C211 8233   0.993   3.364   4.235  0.6666  0.4476 -0.4656
   22MOL   C212 8234   1.106   3.266   4.181  0.8891 -0.4585 -0.0333
   22MOL   O213 8235   1.139   3.303   4.043  0.3398 -0.0427  0.2670
   22MOL   C214 8236   1.079   3.228   3.941  0.5243 -0.4599  0.1467
   22MOL   C215 8237   1.142   3.264   3.808 -0.3941 -0.0626  0.5075
   22MOL   C216 8238   1.091   3.180   3.690  0.3204  0.5505  0.6744
   22MOL   C217 8239   1.179   3.172   3.562  0.3881  0.0087 -1.1702
   22MOL   H218 8240   1.047   3.457   4.252  1.3744  0.3814 -2.2975
   22MOL   H219 8241   0.925   3.378   4.151  1.4440  0.8699 -1.0192
   22MOL   H220 8242   1.080   3.161   4.198  1.0871 -0.6571 -0.9400
   22MOL   H221 8243   1.091   3.124   3.970  0.0677  0.5499  4.2651
   22MOL   H222 8244   0.972   3.247   3.933  0.8175  1.1578 -0.1209
   22MOL   H223 8245   1.108   3.366   3.789  0.2328 -0.1948 -1.4395
   22MOL   H224 8246   1.250   3.260   3.822 -0.0595 -0.1826 -1.9526
   22MOL   H225 8247   0.997   3.229   3.666  0.7341  0.7812 -0.5019
   22MOL   H226 8248   1.083   3.076   3.722  0.5340  0.2130 -0.3775
   22MOL   H227 8249   1.134   3.123   3.475  0.5867 -1.6060 -0.3770
   22MOL   H228 8250   1.263   3.107   3.585  0.7503  0.8527 -0.1050
   22MOL   H229 8251   1.218   3.269   3.530 -0.0679  0.0879 -1.4876
   22MOL   C230 8252   1.240   3.309   4.252  0.1413 -0.2288  0.7652
   22MOL   C231 8253   1.336   3.189   4.271  0.1700 -0.2114 -0.3261
   22MOL   O232 8254   1.293   3.103   4.377  0.0656  0.2409 -0.3240
   22MOL   C233 8255   1.274   3.158   4.510 -0.5061 -0.3783  0.5126
   22MOL   C234 8256   1.280   3.038   4.613  0.2594  0.4238 -0.0592
   22MOL   C235 8257   1.280   3.082   4.759 -0.0237  0.0240  0.1285
   22MOL   C236 8258   1.313   2.962   4.857 -0.0919 -0.1007  0.1809
   22MOL   H237 8259   1.217   3.357   4.347 -1.8176 -0.5684  0.4977
   22MOL   H238 8260   1.287   3.386   4.190 -1.1946 -0.1770 -0.2145
   22MOL   H239 8261   1.434   3.228   4.299  0.5980 -0.8540 -0.9221
   22MOL   H240 8262   1.341   3.237   4.543 -2.8235  0.9937  2.0758
   22MOL   H241 8263   1.170   3.188   4.501 -0.6098 -0.5611  1.0907
   22MOL   H242 8264   1.191   2.976   4.604 -0.1140  0.9652 -0.1218
   22MOL   H243 8265   1.367   2.976   4.593 -0.2293 -0.3205  0.1080
   22MOL   H244 8266   1.181   3.120   4.786 -1.7297 -2.6619 -1.9876
   22MOL   H245 8267   1.359   3.156   4.770  3.2911 -3.3061 -0.2587
   22MOL   H246 8268   1.316   2.998   4.960  1.6485 -1.3422  0.6000
   22MOL   H247 8269   1.409   2.913   4.837 -0.1745 -0.1386 -0.1327
   22MOL   H248 8270   1.235   2.888   4.840  0.6853 -0.3251 -2.7845
   22MOL   C249 8271   1.361   3.107   4.148  0.1175  0.1191 -0.2612
   22MOL   C250 8272   1.483   3.026   4.155 -0.2456 -0.0495  0.1713
   22MOL   O251 8273   1.594   3.111   4.155  0.1854  0.3768  0.2830
   22MOL   C252 8274   1.681   3.094   4.267 -0.0037 -0.7054 -0.7461
   22MOL   C253 8275   1.816   3.181   4.253 -0.0347 -0.1808 -0.4673
   22MOL   C254 8276   1.910   3.139   4.132  0.2574 -0.7208 -0.4415
   22MOL   C255 8277   1.996   3.011   4.171 -0.1008  0.0201 -0.1041
   22MOL   H256 8278   1.370   3.179   4.067 -1.9171  0.5524 -0.1115
   22MOL   H257 8279   1.276   3.041   4.135 -0.5399  0.5652  1.5903
   22MOL   H258 8280   1.486   2.966   4.246 -1.2872  0.5424  0.6070
   22MOL   H259 8281   1.695   2.986   4.281  2.5774 -0.5720 -1.9301
   22MOL   H260 8282   1.632   3.128   4.358 -0.0704  0.4975 -1.2362
   22MOL   H261 8283   1.797   3.288   4.248  1.5142  0.1637  0.8879
   22MOL   H262 8284   1.866   3.181   4.350  1.4124 -1.6255 -1.1888
   22MOL   H263 8285   1.856   3.129   4.038  1.2603 -1.7488 -0.9245
   22MOL   H264 8286   1.985   3.217   4.117  0.3245 -1.0954 -2.2261
   22MOL   H265 8287   2.052   3.036   4.261 -0.0862  1.0799 -0.3927
   22MOL   H266 8288   2.081   2.998   4.104  0.0068  0.4113 -0.0471
   22MOL   H267 8289   1.939   2.919   4.177 -0.9285  0.4618 -1.0503
   22MOL   C268 8290   1.494   2.938   4.029  0.2534 -0.1317 -0.5800
   22MOL   C269 8291   1.390   2.822   4.019 -0.8869 -0.6510  0.2730
   22MOL   O270 8292   1.361   2.788   3.885  0.3132 -0.0278 -0.0222
   22MOL   C271 8293   1.264   2.869   3.818 -0.0280 -0.4701  0.8493
   22MOL   C272 8294   1.216   2.794   3.691 -0.2433  0.1536  0.5666
   22MOL   C273 8295   1.331   2.786   3.592  0.0766 -0.1963  0.7524
   22MOL   C274 8296   1.283   2.727   3.451 -0.0654  0.0499  0.0624
   22MOL   H275 8297   1.483   3.007   3.945 -0.0068 -0.9982 -1.2656
   22MOL   H276 8298   1.591   2.895   4.003 -0.0734 -0.7531 -0.7785
   22MOL   H277 8299   1.296   2.852   4.066 -1.3135 -0.5114 -0.6625
   22MOL   H278 8300   1.177   2.889   3.880 -0.4785 -0.5946  0.2656
   22MOL   H279 8301   1.316   2.961   3.791  1.5290 -1.5588  0.1007
   22MOL   H280 8302   1.193   2.693   3.725 -1.4403  0.2298  0.0246
   22MOL   H281 8303   1.131   2.851   3.653 -0.1078 -0.8079 -1.2711
   22MOL   H282 8304   1.414   2.725   3.626  0.9073  0.1405 -0.6252
   22MOL   H283 8305   1.367   2.888   3.576  1.2881 -0.6929  0.2757
   22MOL   H284 8306   1.252   2.626   3.477  0.3938 -0.1067  0.0019
   22MOL   H285 8307   1.371   2.724   3.388 -1.1708  1.4938 -1.5980
   22MOL   H286 8308   1.220   2.794   3.392 -0.3347  0.3623  0.6991
   22MOL   C287 8309   1.441   2.696   4.086  0.0488  0.0653  0.0039
   22MOL   C288 8310   1.354   2.569   4.066  0.1485 -0.1702 -0.1911
   22MOL   O289 8311   1.220   2.600   4.111  0.7189 -0.4764  0.9066
   22MOL   C290 8312   1.125   2.595   4.005  0.5924  0.4427  0.4103
   22MOL   C291 8313   0.986   2.615   4.065 -0.2199 -0.0586 -0.1431
   22MOL   C292 8314   0.945   2.497   4.147  0.0556  0.6041  0.5388
   22MOL   C293 8315   0.793   2.473   4.146  0.7496  0.0309  0.0599
   22MOL   H294 8316   1.450   2.719   4.193  0.7843  0.0329 -0.0500
   22MOL   H295 8317   1.544   2.684   4.054  0.0709 -2.6836  0.9742
   22MOL   H296 8318   1.365   2.548   3.959  2.5408 -2.2445  0.4120
   22MOL   H297 8319   1.135   2.681   3.938  0.6990 -0.5280 -0.8196
   22MOL   H298 8320   1.133   2.500   3.953 -0.3895  0.7663 -0.3581
   22MOL   H299 8321   0.907   2.635   3.992  0.8731  1.4082 -0.9552
   22MOL   H300 8322   0.993   2.714   4.111  0.7788  0.3460 -1.1439
   22MOL   H301 8323   0.973   2.528   4.247  0.5927 -0.9792  0.8942
   22MOL   H302 8324   0.980   2.400   4.110  1.6532  1.3169  0.1472
   22MOL   H303 8325   0.769   2.418   4.237 -1.2816 -0.9862 -1.0601
   22MOL   H304 8326   0.745   2.571   4.149  0.1419 -0.2897  0.8766
   22MOL   H305 8327   0.768   2.402   4.067 -1.6976  1.3968 -0.4370
   22MOL   C306 8328   1.425   2.453   4.144  0.4857  0.0527  0.3343
   22MOL   C307 8329   1.375   2.318   4.101  0.1689 -0.5243 -0.5710
   22MOL   O308 8330   1.430   2.223   4.191 -0.2908 -0.7954 -0.5537
   22MOL   C309 8331   1.336   2.132   4.249 -0.2726  0.0198 -0.4189
   22MOL   C310 8332   1.401   2.097   4.382 -0.7218  0.4582  0.0340
   22MOL   C311 8333   1.316   2.000   4.461 -0.0735 -0.1729  0.3221
   22MOL   C312 8334   1.364   1.997   4.609 -0.1654  0.0446  0.4294
   22MOL   H313 8335   1.532   2.464   4.125  0.3780  0.3573 -0.0745
   22MOL   H314 8336   1.414   2.462   4.252  2.0409  0.3027  0.4892
   22MOL   H315 8337   1.267   2.334   4.107  0.2029 -0.3776 -0.3598
   22MOL   H316 8338   1.323   2.037   4.198 -1.8892 -0.2828  0.4912
   22MOL   H317 8339   1.235   2.171   4.268 -0.2777 -1.3937  2.8896
   22MOL   H318 8340   1.408   2.187   4.442 -0.5111  0.3697  0.1438
   22MOL   H319 8341   1.503   2.072   4.354 -0.9427  2.1251 -2.4627
   22MOL   H320 8342   1.216   2.042   4.466  0.0944 -0.0011  2.3701
   22MOL   H321 8343   1.319   1.906   4.406  0.6539  1.7157 -3.0263
   22MOL   H322 8344   1.466   1.959   4.622 -0.9891 -2.1343  0.7399
   22MOL   H323 8345   1.304   1.935   4.675  1.4844 -1.4661  0.5654
   22MOL   H324 8346   1.356   2.095   4.655 -1.9160  0.5196 -0.8545
   22MOL   C325 8347   1.413   2.279   3.956 -0.7030 -0.0065  0.3167
   22MOL   C326 8348   1.314   2.304   3.840  0.1659  0.2406  0.0683
   22MOL   O327 8349   1.376   2.258   3.721  0.1069  0.6033 -0.1288
   22MOL   C328 8350   1.390   2.370   3.632  0.4068 -0.1367  0.2316
   22MOL   C329 8351   1.457   2.323   3.495  0.8031  0.5533 -0.5736
   22MOL   C330 8352   1.448   2.414   3.378 -0.0621 -0.3783 -0.5500
   22MOL   C331 8353   1.511   2.356   3.251 -0.2156  0.2992  0.4474
   22MOL   H332 8354   1.449   2.177   3.948 -1.6834 -0.3253 -0.1271
   22MOL   H333 8355   1.505   2.324   3.920 -0.3674 -0.4115  0.6712
   22MOL   H334 8356   1.281   2.408   3.837  3.3582  1.2986 -0.4267
   22MOL   H335 8357   1.453   2.448   3.675 -1.0330  0.4174  1.3789
   22MOL   H336 8358   1.298   2.418   3.599  0.0907 -2.0990 -1.8796
   22MOL   H337 8359   1.559   2.285   3.504 -0.1388 -1.7164  0.8036
   22MOL   H338 8360   1.409   2.230   3.466  0.4073  0.3625  0.6548
   22MOL   H339 8361   1.502   2.508   3.392 -3.4813  1.3308  1.9407
   22MOL   H340 8362   1.344   2.436   3.357 -0.1639  2.2695  2.2981
   22MOL   H341 8363   1.512   2.430   3.171  1.2318  1.3802  1.4418
   22MOL   H342 8364   1.448   2.278   3.208  1.4560 -0.9173  0.1566
   22MOL   H343 8365   1.614   2.332   3.274 -0.1026  0.1966 -0.1650
   22MOL   C344 8366   1.191   2.216   3.862 -0.0688 -0.1540 -0.3339
   22MOL   C345 8367   1.098   2.241   3.743  0.1251  0.8172  0.2819
   22MOL   O346 8368   1.035   2.365   3.759 -0.8078  0.0535  0.3187
   22MOL   C347 8369   0.982   2.422   3.643 -0.3121 -1.2521 -0.4908
   22MOL   C348 8370   0.884   2.537   3.677  0.0260 -0.4246  0.1860
   22MOL   C349 8371   0.756   2.478   3.732  0.3817  0.1517 -0.1827
   22MOL   C350 8372   0.652   2.584   3.757  1.1316 -0.6508  0.0761
   22MOL   H351 8373   1.222   2.115   3.887  1.9261  0.4233 -0.3639
   22MOL   H352 8374   1.137   2.258   3.948  1.4992  1.5170 -0.1427
   22MOL   H353 8375   1.150   2.221   3.649 -0.5956  0.6842 -0.0937
   22MOL   H354 8376   0.941   2.353   3.569 -0.9208 -2.4884  0.9596
   22MOL   H355 8377   1.076   2.462   3.606  0.0279 -0.8674  0.7585
   22MOL   H356 8378   0.874   2.596   3.586 -1.5067  0.5823  0.9945
   22MOL   H357 8379   0.939   2.592   3.753  0.8107  1.5167 -1.7114
   22MOL   H358 8380   0.701   2.402   3.676 -0.6923 -1.7961  3.2968
   22MOL   H359 8381   0.774   2.427   3.827 -3.7305  0.4647  0.8739
   22MOL   H360 8382   0.581   2.600   3.676  0.9531  3.0051  0.8591
   22MOL   H361 8383   0.698   2.681   3.777  0.0537 -0.1439  0.1708
   22MOL   H362 8384   0.583   2.572   3.841  2.0145 -1.0192  0.7627
   22MOL   C363 8385   0.990   2.132   3.730  0.6256 -0.2496  0.2829
   22MOL   C364 8386   1.037   1.994   3.699 -0.7249  0.5211  0.0980
   22MOL   O365 8387   0.928   1.905   3.691  0.5327  0.3895  0.0758
   22MOL   C366 8388   0.966   1.766   3.675 -0.7178 -0.4518 -0.0697
   22MOL   C367 8389   0.832   1.682   3.720  0.3623 -0.3205  0.8679
   22MOL   C368 8390   0.773   1.744   3.849  0.3999 -0.5031 -0.5083
   22MOL   C369 8391   0.644   1.680   3.892  0.0831  0.1748  0.3459
   22MOL   H370 8392   0.914   2.166   3.660  2.2257  2.8041 -0.0600
   22MOL   H371 8393   0.921   2.138   3.815  0.2292  0.3698 -0.0739
   22MOL   H372 8394   1.125   1.963   3.757  0.1142  3.2123  0.3232
   22MOL   H373 8395   1.040   1.736   3.749 -0.8447  0.8233  0.6017
   22MOL   H374 8396   0.992   1.735   3.574 -0.6018 -1.1434  0.1682
   22MOL   H375 8397   0.854   1.576   3.728 -1.8099 -1.0982 -2.3346
   22MOL   H376 8398   0.763   1.693   3.636  1.2271 -3.4896 -0.3068
   22MOL   H377 8399   0.735   1.846   3.847  0.3430 -0.5364 -1.6290
   22MOL   H378 8400   0.849   1.737   3.927 -0.4932 -0.0163  0.4087
   22MOL   H379 8401   0.574   1.694   3.810 -1.3442 -0.7646  1.3755
   22MOL   H380 8402   0.667   1.575   3.910  1.2372  0.3550 -0.0015
   22MOL   H381 8403   0.599   1.708   3.987  2.1360 -0.1414  1.4435
   22MOL   H382 8404   1.080   1.993   3.599  1.3213  1.9268  0.9113
   23MOL     C1 8405   1.877   0.786   5.944  0.8021 -0.0679 -0.6279
   23MOL     C2 8406   1.750   0.689   5.928  0.7407 -0.1954  0.3433
   23MOL     O3 8407   1.673   0.735   5.820  0.5155 -0.0366  0.1607
   23MOL     C4 8408   1.569   0.832   5.846  0.7394  0.6030 -0.7139
   23MOL     C5 8409   1.482   0.838   5.720 -0.7528  0.7039  0.4655
   23MOL     C6 8410   1.372   0.946   5.726  0.1244  0.2343  0.3308
   23MOL     C7 8411   1.286   0.967   5.594  0.0528 -0.2532  0.2293
   23MOL     H8 8412   1.924   0.771   6.040  0.7283 -0.4117 -0.6450
   23MOL     H9 8413   1.952   0.766   5.868  0.1208  0.5189 -1.4685
   23MOL    H10 8414   1.693   0.688   6.021 -0.1176 -0.3002 -0.1792
   23MOL    H11 8415   1.506   0.809   5.932  2.0983  0.7559  0.3373
   23MOL    H12 8416   1.615   0.924   5.881 -0.6930  1.7483 -1.7430
   23MOL    H13 8417   1.431   0.743   5.702  0.6063  0.0902 -0.2164
   23MOL    H14 8418   1.538   0.854   5.628 -1.0135  0.4415  0.2613
   23MOL    H15 8419   1.417   1.042   5.752 -1.3317  0.3071  2.7078
   23MOL    H16 8420   1.306   0.918   5.808  0.1320 -0.5328  0.0804
   23MOL    H17 8421   1.243   0.869   5.573  1.2287 -0.8708  0.6800
   23MOL    H18 8422   1.346   0.989   5.506  0.5236  1.5261  0.9755
   23MOL    H19 8423   1.204   1.038   5.607  1.2917  1.4161 -0.8876
   23MOL    H20 8424   1.864   0.894   5.939 -1.7002 -0.2616  0.7492
   23MOL    C21 8425   1.813   0.556   5.892 -0.2463 -0.0012 -0.1170
   23MOL    C22 8426   1.716   0.439   5.875 -0.6894 -0.1918  0.6972
   23MOL    O23 8427   1.800   0.328   5.830  0.0984 -0.3933  0.2996
   23MOL    C24 8428   1.831   0.333   5.687 -0.0337  0.1068  0.2117
   23MOL    C25 8429   1.970   0.370   5.648 -0.0176  0.0542  0.1798
   23MOL    C26 8430   2.076   0.259   5.695 -0.5527 -0.6612  0.3039
   23MOL    C27 8431   2.218   0.296   5.643 -0.1762  0.2322 -0.3175
   23MOL    H28 8432   1.896   0.528   5.957  1.2519 -0.1394 -2.0454
   23MOL    H29 8433   1.866   0.578   5.799  1.3847 -0.2912  0.7272
   23MOL    H30 8434   1.647   0.474   5.799 -0.1833  1.8915  1.1570
   23MOL    H31 8435   1.764   0.393   5.624 -0.8833 -1.0837 -0.0304
   23MOL    H32 8436   1.822   0.239   5.633 -0.2943  0.7025 -0.7942
   23MOL    H33 8437   1.970   0.388   5.541  0.0523  1.4866  0.4112
   23MOL    H34 8438   1.988   0.466   5.698 -2.3816  1.4864 -1.5799
   23MOL    H35 8439   2.077   0.255   5.804  0.3054 -0.7608  0.2965
   23MOL    H36 8440   2.055   0.159   5.657 -0.9738 -0.7424  0.7416
   23MOL    H37 8441   2.229   0.303   5.534 -0.0365 -2.1301 -0.4892
   23MOL    H38 8442   2.266   0.378   5.695  1.0397 -0.8421  0.3019
   23MOL    H39 8443   2.276   0.210   5.678  0.6114  1.0071  0.3045
   23MOL    C40 8444   1.655   0.398   6.006  0.3198 -1.2507  0.1105
   23MOL    C41 8445   1.545   0.287   5.996  0.4000  1.0451  0.2254
   23MOL    O42 8446   1.419   0.344   5.955 -0.0616  0.1158  0.4818
   23MOL    C43 8447   1.382   0.309   5.830 -0.9820  0.7557  0.1574
   23MOL    C44 8448   1.259   0.390   5.795  0.3988 -0.5300  0.3588
   23MOL    C45 8449   1.144   0.381   5.895  0.0144  0.2601  0.0832
   23MOL    C46 8450   1.087   0.242   5.880 -0.0464  0.6022  0.4807
   23MOL    H47 8451   1.611   0.488   6.048 -1.0053 -1.7275 -0.2461
   23MOL    H48 8452   1.733   0.382   6.081 -1.8805 -1.6997  2.3818
   23MOL    H49 8453   1.569   0.212   5.920 -1.5873  0.1667  0.4211
   23MOL    H50 8454   1.361   0.202   5.832 -3.4099  1.1879  0.2786
   23MOL    H51 8455   1.452   0.344   5.754 -1.1379 -1.4159 -1.0532
   23MOL    H52 8456   1.227   0.369   5.693  0.0164 -0.2253  0.4139
   23MOL    H53 8457   1.283   0.496   5.790 -2.3540  0.0267 -1.9951
   23MOL    H54 8458   1.068   0.451   5.860  0.7690  1.1126  0.1372
   23MOL    H55 8459   1.165   0.413   5.997 -0.4141 -0.7585  0.4956
   23MOL    H56 8460   1.014   0.217   5.957 -0.3355  0.1346  0.0626
   23MOL    H57 8461   1.045   0.217   5.783 -0.5166  1.1248  0.5492
   23MOL    H58 8462   1.167   0.169   5.897  0.2458  0.7317 -0.3179
   23MOL    C59 8463   1.512   0.229   6.132  0.6843  0.4774 -0.6927
   23MOL    C60 8464   1.618   0.121   6.184 -0.3790 -0.5732 -0.1389
   23MOL    O61 8465   1.736   0.188   6.226  0.2170  0.2628 -0.2149
   23MOL    C62 8466   1.858   0.136   6.184  0.2955  0.3523 -0.2566
   23MOL    C63 8467   1.964   0.240   6.219  0.2121 -0.5999  0.0372
   23MOL    C64 8468   2.102   0.195   6.164  0.6088  0.0415  0.6361
   23MOL    C65 8469   2.208   0.273   6.236 -0.2946 -0.4068  0.7493
   23MOL    H66 8470   1.514   0.305   6.210  0.0302 -0.4613  0.2493
   23MOL    H67 8471   1.414   0.183   6.122 -0.3631  2.0570  1.7737
   23MOL    H68 8472   1.640   0.058   6.098 -0.4354  1.1394 -1.4467
   23MOL    H69 8473   1.850   0.108   6.079  0.2081  1.1015 -0.4539
   23MOL    H70 8474   1.880   0.046   6.242 -0.7860  0.5797  0.5125
   23MOL    H71 8475   1.939   0.336   6.174  0.8108  0.8199  2.6044
   23MOL    H72 8476   1.969   0.261   6.326 -4.6457  2.0695 -0.1330
   23MOL    H73 8477   2.122   0.091   6.187  2.6017 -0.0576 -1.4019
   23MOL    H74 8478   2.128   0.214   6.060  0.0347 -1.3227  0.2293
   23MOL    H75 8479   2.303   0.227   6.210  0.4954  0.5988  1.7900
   23MOL    H76 8480   2.207   0.373   6.192 -0.7861 -1.1457 -0.9603
   23MOL    H77 8481   2.184   0.278   6.342  0.3086 -0.9089  0.9100
   23MOL    C78 8482   1.554   0.032   6.289 -0.1223  0.4657  0.3382
   23MOL    C79 8483   1.547   0.084   6.433  0.1733 -0.1776  0.0947
   23MOL    O80 8484   1.671   0.068   6.498  0.3874 -0.1264 -0.1799
   23MOL    C81 8485   1.713   0.183   6.569  0.4094 -0.5300  0.6212
   23MOL    C82 8486   1.846   0.145   6.646  0.0036  0.5184  0.4908
   23MOL    C83 8487   1.908   0.263   6.726  0.1863  0.8179  0.6718
   23MOL    C84 8488   2.046   0.227   6.783  0.0857  0.3049  0.3705
   23MOL    H85 8489   1.616   7.745   6.301 -1.4169 -0.7934 -1.8250
   23MOL    H86 8490   1.459   7.791   6.256  1.1385 -0.9523 -1.6455
   23MOL    H87 8491   1.520   0.189   6.438  0.6223 -0.0416 -0.2477
   23MOL    H88 8492   1.634   0.219   6.636 -2.3547 -1.1495 -2.2044
   23MOL    H89 8493   1.730   0.263   6.497  0.5033 -2.3049 -1.3916
   23MOL    H90 8494   1.821   0.058   6.707  0.6710  0.7300  1.0688
   23MOL    H91 8495   1.922   0.110   6.576 -0.0004  1.2439  0.1198
   23MOL    H92 8496   1.838   0.304   6.799  0.5083  3.2573 -0.3676
   23MOL    H93 8497   1.915   0.346   6.656  0.4538 -0.6377 -1.0553
   23MOL    H94 8498   2.096   0.317   6.818 -1.2821  2.0982 -2.1535
   23MOL    H95 8499   2.032   0.154   6.864  1.2292 -0.5932 -0.2244
   23MOL    H96 8500   2.116   0.190   6.708 -0.8374 -1.9555  0.5736
   23MOL    C97 8501   1.445   0.009   6.522  0.7342  0.0907 -0.2264
   23MOL    C98 8502   1.291   0.023   6.510 -0.0845 -0.1695  0.5979
   23MOL    O99 8503   1.257   7.780   6.377 -0.1931  0.0104 -0.0558
   23MOL   C100 8504   1.161   0.045   6.292 -0.6676 -0.7476  0.5424
   23MOL   C101 8505   1.083   7.739   6.223 -0.1388 -0.4711 -0.6422
   23MOL   C102 8506   1.168   7.645   6.141  0.3381  0.4505 -0.2415
   23MOL   C103 8507   1.078   7.542   6.068  0.0274 -0.4538 -0.8126
   23MOL   H104 8508   1.469   0.033   6.625  0.6169  2.3004 -0.6958
   23MOL   H105 8509   1.475   7.707   6.505 -3.0202 -1.2967  1.2901
   23MOL   H106 8510   1.269   0.129   6.521 -1.9739 -0.4543 -0.1946
   23MOL   H107 8511   1.212   0.112   6.224 -1.5231 -1.5845 -0.9420
   23MOL   H108 8512   1.092   0.101   6.356  0.5288 -0.8850  1.9862
   23MOL   H109 8513   1.027   7.794   6.147  0.4590 -0.7296 -1.2739
   23MOL   H110 8514   1.021   7.685   6.295  0.4566  0.1394  0.3458
   23MOL   H111 8515   1.233   7.585   6.204  0.3456 -1.2630 -1.8196
   23MOL   H112 8516   1.225   7.698   6.065 -0.8517 -0.2876 -1.6834
   23MOL   H113 8517   1.133   7.463   6.018  2.0599  0.9431 -0.8324
   23MOL   H114 8518   1.026   7.479   6.140 -0.8329  0.9825 -0.1448
   23MOL   H115 8519   1.001   7.590   6.007 -1.8684 -0.4995  1.4609
   23MOL   C116 8520   1.203   7.748   6.609  0.8078  0.7092  0.1080
   23MOL   C117 8521   1.229   7.593   6.613 -0.3217 -0.2111  0.3185
   23MOL   O118 8522   1.192   7.573   6.750 -0.3760  0.1311  1.0710
   23MOL   C119 8523   1.272   7.478   6.827  0.2704  0.9443 -0.2601
   23MOL   C120 8524   1.236   7.479   6.974 -0.8758  0.6085  0.0555
   23MOL   C121 8525   1.337   7.385   7.050 -0.4659  0.5766 -0.4111
   23MOL   C122 8526   1.300   7.383   7.196  0.5171 -0.8352 -0.6987
   23MOL   H123 8527   1.222   7.789   6.708 -0.7064  3.7296 -0.7840
   23MOL   H124 8528   1.096   7.765   6.597  0.6901 -0.0385  0.0583
   23MOL   H125 8529   1.333   7.567   6.593 -0.4717 -1.2001  0.8155
   23MOL   H126 8530   1.379   7.494   6.820  0.5463 -0.8017 -0.3516
   23MOL   H127 8531   1.256   7.377   6.788 -1.4417 -0.4154  3.6035
   23MOL   H128 8532   1.137   7.438   6.997 -0.8063 -0.5022 -1.5831
   23MOL   H129 8533   1.238   7.580   7.014  3.5600  0.7354 -0.2952
   23MOL   H130 8534   1.339   7.282   7.015  1.7003  0.5393 -0.2125
   23MOL   H131 8535   1.437   7.427   7.048 -1.5973  3.5328  1.3192
   23MOL   H132 8536   1.369   7.317   7.249  1.3187 -0.7616 -1.6424
   23MOL   H133 8537   1.200   7.340   7.209  0.0782  0.4337  0.2503
   23MOL   H134 8538   1.287   7.476   7.251  0.4191  0.5071 -2.9169
   23MOL   C135 8539   1.134   7.523   6.513 -0.1583  0.1634  0.4262
   23MOL   C136 8540   1.140   7.367   6.506  0.2651  0.5604 -0.1555
   23MOL   O137 8541   1.014   7.332   6.439 -0.1975 -0.6700  0.6058
   23MOL   C138 8542   0.923   7.245   6.513 -0.6293  0.9541 -0.3358
   23MOL   C139 8543   0.868   7.318   6.635  0.8370  0.6660 -0.8799
   23MOL   C140 8544   0.776   7.237   6.732  0.1071 -0.3673 -0.2806
   23MOL   C141 8545   0.732   7.312   6.856  0.2797 -0.6718 -0.2524
   23MOL   H142 8546   1.166   7.559   6.415  2.5110 -3.1475 -0.0140
   23MOL   H143 8547   1.030   7.552   6.526 -0.4226 -1.1589  1.4045
   23MOL   H144 8548   1.141   7.324   6.606  1.8420  1.1383  0.0757
   23MOL   H145 8549   0.978   7.155   6.544  0.3524  1.4950 -0.4816
   23MOL   H146 8550   0.849   7.214   6.439 -0.8250 -2.8982  1.3081
   23MOL   H147 8551   0.824   7.414   6.608 -0.3385  0.1833 -0.7409
   23MOL   H148 8552   0.953   7.344   6.697  0.5139 -1.0395  0.3165
   23MOL   H149 8553   0.693   7.193   6.677 -1.0011 -0.1617  1.2219
   23MOL   H150 8554   0.818   7.145   6.773  0.8629  0.7721  1.5793
   23MOL   H151 8555   0.681   7.245   6.925  0.2111 -0.1143  0.2470
   23MOL   H152 8556   0.812   7.368   6.905  0.5032 -1.4963  0.3515
   23MOL   H153 8557   0.668   7.394   6.825  0.5374 -0.4809 -0.2862
   23MOL   C154 8558   1.267   7.314   6.434  0.2802  0.9061  0.3888
   23MOL   C155 8559   1.288   7.165   6.466 -0.1812 -0.1465  0.2028
   23MOL   O156 8560   1.316   7.148   6.604  0.0218 -0.4380  0.3742
   23MOL   C157 8561   1.317   7.015   6.656 -0.1059  0.0820 -0.0579
   23MOL   C158 8562   1.285   7.007   6.806  0.6185  0.5069 -1.0834
   23MOL   C159 8563   1.148   7.061   6.835 -0.7940 -0.3354 -0.4389
   23MOL   C160 8564   1.120   7.050   6.989 -0.2132 -0.3292 -0.4659
   23MOL   H161 8565   1.353   7.367   6.477  1.4737 -0.4631 -0.2429
   23MOL   H162 8566   1.269   7.333   6.327  0.5080  0.3665  0.2952
   23MOL   H163 8567   1.198   7.108   6.444 -1.3426  2.4910 -2.1784
   23MOL   H164 8568   1.243   6.950   6.608 -1.0013 -0.2154  1.6676
   23MOL   H165 8569   1.413   6.966   6.642  0.3508  0.5638  1.2762
   23MOL   H166 8570   1.360   7.052   6.872  2.0821 -1.6607 -1.2282
   23MOL   H167 8571   1.285   6.901   6.832  0.7389  0.3828 -1.5797
   23MOL   H168 8572   1.152   7.169   6.825  3.3236 -0.5291 -1.6261
   23MOL   H169 8573   1.075   7.008   6.774 -0.5556 -1.4632  0.2318
   23MOL   H170 8574   1.032   7.109   7.011 -0.0824  0.5259 -2.1286
   23MOL   H171 8575   1.127   6.948   7.025 -0.4583 -1.2609 -2.9478
   23MOL   H172 8576   1.199   7.098   7.047 -0.8255 -1.2336  1.1341
   23MOL   C173 8577   1.410   7.109   6.384 -0.6068  0.3152 -1.3046
   23MOL   C174 8578   1.395   7.084   6.237  0.1769 -0.2323 -0.0583
   23MOL   O175 8579   1.514   7.123   6.165  0.4910 -0.0126  0.0354
   23MOL   C176 8580   1.507   7.261   6.131 -0.0939  0.1429 -0.0833
   23MOL   C177 8581   1.636   7.305   6.067 -0.2627  0.6871 -0.5648
   23MOL   C178 8582   1.746   7.317   6.170 -0.5003  0.5560  0.4638
   23MOL   C179 8583   1.737   7.455   6.247 -0.5532 -0.2067  0.3874
   23MOL   H180 8584   1.438   7.013   6.428 -1.1711  1.3325  1.3799
   23MOL   H181 8585   1.493   7.180   6.396  0.3628 -1.0774  0.5780
   23MOL   H182 8586   1.316   7.146   6.196  0.4440 -0.2412 -0.5998
   23MOL   H183 8587   1.486   7.330   6.212  0.3244 -0.5747  0.6395
   23MOL   H184 8588   1.427   7.280   6.059 -1.1721  0.2822  1.1392
   23MOL   H185 8589   1.621   7.405   6.028 -2.2347  0.7740  0.3261
   23MOL   H186 8590   1.668   7.238   5.988  1.9366  1.7312 -0.5728
   23MOL   H187 8591   1.737   7.235   6.242  2.6710  0.6005  0.9719
   23MOL   H188 8592   1.846   7.320   6.127 -0.7407  1.0638 -0.0692
   23MOL   H189 8593   1.759   7.540   6.183  1.3659 -1.8756 -1.2110
   23MOL   H190 8594   1.643   7.484   6.295 -2.8652 -2.5802 -2.5391
   23MOL   H191 8595   1.808   7.458   6.329 -1.0198 -3.7214  1.0117
   23MOL   C192 8596   1.365   6.942   6.192  0.1586 -0.4223  0.8673
   23MOL   C193 8597   1.227   6.891   6.216 -0.3790  0.4060 -0.3623
   23MOL   O194 8598   1.133   6.968   6.149  0.0269  0.0944  0.6609
   23MOL   C195 8599   1.024   7.009   6.229 -0.0490 -0.3331 -0.3947
   23MOL   C196 8600   0.955   7.125   6.151 -0.7369  0.2937  0.9473
   23MOL   C197 8601   0.915   7.086   6.012 -0.0331  0.1379  0.0333
   23MOL   C198 8602   0.859   7.217   5.942 -0.3720  0.2296 -0.6839
   23MOL   H199 8603   1.437   6.866   6.221  1.5549 -0.6093 -2.7619
   23MOL   H200 8604   1.379   6.943   6.084 -0.6408  0.0356  0.7625
   23MOL   H201 8605   1.217   6.899   6.324  4.3903  1.0734  0.1110
   23MOL   H202 8606   1.060   7.051   6.323  1.4701 -0.0273 -1.0980
   23MOL   H203 8607   0.958   6.924   6.246  1.3758 -1.1949  0.9054
   23MOL   H204 8608   0.871   7.170   6.205 -0.1374  4.0158 -1.1255
   23MOL   H205 8609   1.016   7.214   6.140 -1.2734  0.6094  0.5059
   23MOL   H206 8610   0.847   7.003   6.027 -0.2508  0.1032 -1.0515
   23MOL   H207 8611   1.010   7.061   5.964  0.4624  0.6421  0.7400
   23MOL   H208 8612   0.939   7.291   5.939  0.1434 -0.3056 -0.2568
   23MOL   H209 8613   0.841   7.188   5.839  2.1086  0.6751 -1.2853
   23MOL   H210 8614   0.768   7.248   5.992  0.5007  0.9667  0.4731
   23MOL   C211 8615   1.206   6.756   6.161  0.3708  0.3602 -0.1600
   23MOL   C212 8616   1.258   6.651   6.259  0.1687  0.3719 -0.1832
   23MOL   O213 8617   1.146   6.647   6.352 -0.3061  0.3143 -0.1349
   23MOL   C214 8618   1.193   6.654   6.486 -0.4600 -0.4327 -0.1297
   23MOL   C215 8619   1.073   6.676   6.577 -0.4900 -0.4124 -0.4078
   23MOL   C216 8620   0.993   6.805   6.546  0.2769 -0.2388  0.0568
   23MOL   C217 8621   0.876   6.815   6.641  0.2339 -0.1001  0.8772
   23MOL   H218 8622   1.258   6.741   6.066  2.4725 -0.5422  1.1058
   23MOL   H219 8623   1.103   6.738   6.129  0.1328 -0.8143  1.2568
   23MOL   H220 8624   1.357   6.686   6.289  0.7552  0.1714 -1.8045
   23MOL   H221 8625   1.256   6.569   6.515  0.2629  0.2740  0.4051
   23MOL   H222 8626   1.256   6.742   6.503  2.1399 -1.9271 -1.7918
   23MOL   H223 8627   1.007   6.591   6.588  0.2760 -1.2488 -2.0834
   23MOL   H224 8628   1.121   6.696   6.674 -0.3033 -0.0727 -0.5688
   23MOL   H225 8629   0.967   6.797   6.440 -1.4921  0.4465  0.4248
   23MOL   H226 8630   1.048   6.899   6.546 -3.0951  1.8195  0.5442
   23MOL   H227 8631   0.918   6.838   6.739  0.9020 -0.4934  0.6792
   23MOL   H228 8632   0.817   6.724   6.631 -0.4854  0.4355  0.1930
   23MOL   H229 8633   0.813   6.903   6.622 -0.9671 -1.0998  0.1685
   23MOL   C230 8634   1.279   6.509   6.203 -0.7669  0.0544 -0.8347
   23MOL   C231 8635   1.372   6.418   6.294 -0.3051  0.0142  0.2151
   23MOL   O232 8636   1.358   6.290   6.244  0.8453 -0.5909 -0.2813
   23MOL   C233 8637   1.276   6.215   6.330  0.7341 -0.9724  0.9467
   23MOL   C234 8638   1.292   6.070   6.279  0.2909  0.4892  0.2813
   23MOL   C235 8639   1.441   6.022   6.275 -0.1262 -0.1941 -0.4317
   23MOL   C236 8640   1.485   5.966   6.409  0.0364 -0.2186 -0.4071
   23MOL   H237 8641   1.322   6.506   6.103  1.1393 -1.9040 -0.0013
   23MOL   H238 8642   1.182   6.462   6.186 -0.1576 -1.9406  0.9852
   23MOL   H239 8643   1.352   6.430   6.400 -1.4722 -0.4305  0.0577
   23MOL   H240 8644   1.318   6.213   6.430  0.8037 -2.4602  0.8901
   23MOL   H241 8645   1.173   6.250   6.324  1.7567  1.8786 -1.6174
   23MOL   H242 8646   1.228   6.008   6.340 -0.4777 -0.2628 -1.2774
   23MOL   H243 8647   1.252   6.064   6.178  1.6658  3.0034 -0.4682
   23MOL   H244 8648   1.519   6.092   6.246  0.7657 -0.3806  1.4233
   23MOL   H245 8649   1.462   5.941   6.204  3.1827  1.3911 -1.3549
   23MOL   H246 8650   1.585   5.928   6.391  0.0894  0.8617 -2.4175
   23MOL   H247 8651   1.421   5.879   6.430  1.5335 -1.6372 -1.6089
   23MOL   H248 8652   1.469   6.032   6.494 -2.3182 -1.6155  0.3104
   23MOL   C249 8653   1.521   6.452   6.272 -0.0349 -0.1849 -0.1018
   23MOL   C250 8654   1.615   6.408   6.374 -0.4917 -0.7545  0.6888
   23MOL   O251 8655   1.595   6.493   6.487  0.1997  0.6103  0.6486
   23MOL   C252 8656   1.556   6.426   6.606  0.4207 -0.7982  0.0995
   23MOL   C253 8657   1.559   6.536   6.710  0.2727  0.4476 -0.5553
   23MOL   C254 8658   1.475   6.509   6.839 -0.4256  0.3519  0.6096
   23MOL   C255 8659   1.479   6.616   6.946  0.0165  0.6994  0.2590
   23MOL   H256 8660   1.541   6.559   6.264  0.8115 -0.4187 -1.3928
   23MOL   H257 8661   1.543   6.400   6.178  0.4274  0.7030 -0.4860
   23MOL   H258 8662   1.593   6.309   6.414  0.1202 -1.8046 -1.4815
   23MOL   H259 8663   1.614   6.342   6.645  0.7996  0.4522  2.2906
   23MOL   H260 8664   1.457   6.381   6.594 -0.3487  0.3933  1.7158
   23MOL   H261 8665   1.657   6.584   6.712  0.1166  0.7446  0.2255
   23MOL   H262 8666   1.500   6.620   6.674  2.2614  1.5324 -1.3954
   23MOL   H263 8667   1.373   6.480   6.813  0.6533  0.3296 -4.0295
   23MOL   H264 8668   1.507   6.415   6.885 -0.1635 -0.9260 -2.0993
   23MOL   H265 8669   1.454   6.708   6.893 -1.9156  0.2832  0.3897
   23MOL   H266 8670   1.578   6.632   6.988  0.7145 -1.2273 -0.5668
   23MOL   H267 8671   1.406   6.595   7.025 -0.3436 -1.8963 -0.7144
   23MOL   C268 8672   1.761   6.425   6.312 -0.1333 -0.1088 -0.1145
   23MOL   C269 8673   1.872   6.394   6.403 -0.7146  0.5554  0.2191
   23MOL   O270 8674   1.962   6.298   6.347 -0.1453  0.2536 -0.3734
   23MOL   C271 8675   2.000   6.195   6.437 -0.1530  0.5011 -0.2210
   23MOL   C272 8676   1.870   6.117   6.478 -1.0452  0.2467  0.4693
   23MOL   C273 8677   1.917   5.994   6.554  0.1138  0.1129 -0.3966
   23MOL   C274 8678   1.793   5.911   6.603 -0.7149  0.4498  0.0840
   23MOL   H275 8679   1.768   6.368   6.219 -1.4750  0.3668 -0.5271
   23MOL   H276 8680   1.753   6.529   6.279 -0.1817  0.6577  2.2205
   23MOL   H277 8681   1.824   6.371   6.498 -1.3868 -1.1065 -0.5138
   23MOL   H278 8682   2.068   6.128   6.384  0.4973  1.0169 -0.0399
   23MOL   H279 8683   2.065   6.232   6.517 -0.2772  3.1457 -1.3146
   23MOL   H280 8684   1.821   6.170   6.559  0.3061  2.2955 -0.0452
   23MOL   H281 8685   1.807   6.077   6.398 -0.8839 -0.3663  0.6455
   23MOL   H282 8686   1.966   6.040   6.640  0.0303  0.7487 -0.6914
   23MOL   H283 8687   1.982   5.921   6.506  0.4127 -1.1604  1.8572
   23MOL   H284 8688   1.819   5.862   6.697 -0.5890 -3.6584 -1.9797
   23MOL   H285 8689   1.774   5.827   6.536  1.6798  0.6526 -0.9257
   23MOL   H286 8690   1.700   5.968   6.608  0.8619  3.2168 -0.4476
   23MOL   C287 8691   1.948   6.529   6.426  0.3796  0.2947 -0.2432
   23MOL   C288 8692   2.074   6.533   6.514  0.7538  0.0171  0.4264
   23MOL   O289 8693   2.173   6.442   6.472 -0.6441 -0.2003 -0.1812
   23MOL   C290 8694   2.277   6.495   6.387  0.2174 -0.3276 -0.1248
   23MOL   C291 8695   2.328   6.373   6.326  0.4298 -0.3199  1.0802
   23MOL   C292 8696   2.442   6.398   6.224 -0.0195 -0.4343  0.2273
   23MOL   C293 8697   2.477   6.289   6.120  0.2478 -0.0672 -0.1713
   23MOL   H294 8698   1.871   6.600   6.457 -1.4363 -0.5948 -2.5592
   23MOL   H295 8699   1.983   6.567   6.331  0.1957 -1.1741 -0.9157
   23MOL   H296 8700   2.117   6.633   6.518  0.0071  0.3957 -0.9091
   23MOL   H297 8701   2.235   6.558   6.309  0.8538  0.5524  0.2439
   23MOL   H298 8702   2.347   6.549   6.450 -1.2477 -0.7836  1.9546
   23MOL   H299 8703   2.254   6.325   6.262  2.8403  0.0262 -2.1160
   23MOL   H300 8704   2.358   6.297   6.398  0.8707 -0.7972  0.3974
   23MOL   H301 8705   2.525   6.414   6.294  0.5806  2.4488 -1.0685
   23MOL   H302 8706   2.422   6.492   6.172  1.6801  0.9931  2.0314
   23MOL   H303 8707   2.500   6.196   6.171 -0.5965 -1.9477 -3.1605
   23MOL   H304 8708   2.403   6.269   6.044  0.6260 -1.3050 -0.2175
   23MOL   H305 8709   2.575   6.319   6.084  1.4424 -2.8260  0.6468
   23MOL   C306 8710   2.037   6.513   6.663 -0.0913  0.3529 -0.4767
   23MOL   C307 8711   2.148   6.554   6.760 -0.4788 -0.1286  0.4799
   23MOL   O308 8712   2.266   6.486   6.734  0.1553  0.0388 -0.4024
   23MOL   C309 8713   2.268   6.347   6.765  0.1645 -0.2019  0.6489
   23MOL   C310 8714   2.403   6.282   6.744 -0.2481  0.0236 -0.7403
   23MOL   C311 8715   2.509   6.351   6.827  0.3039 -0.4589 -0.0586
   23MOL   C312 8716   2.532   6.292   6.966  0.5863 -0.1453  0.0219
   23MOL   H313 8717   1.949   6.577   6.668 -1.7394 -1.7347 -1.6188
   23MOL   H314 8718   2.009   6.408   6.673  3.6657 -0.8843 -1.8492
   23MOL   H315 8719   2.173   6.657   6.735 -0.1316 -0.2304  0.4094
   23MOL   H316 8720   2.196   6.287   6.709  0.0567 -0.0219  0.5954
   23MOL   H317 8721   2.234   6.341   6.868 -0.6069  2.7719  0.5956
   23MOL   H318 8722   2.421   6.291   6.637  0.5620  0.8197 -0.5433
   23MOL   H319 8723   2.382   6.177   6.766 -1.2649  0.6461  1.3900
   23MOL   H320 8724   2.603   6.330   6.777 -0.0940 -0.7441 -0.6890
   23MOL   H321 8725   2.499   6.459   6.812  0.1863 -0.5289 -0.5011
   23MOL   H322 8726   2.556   6.186   6.974 -0.3324 -0.4568 -1.3476
   23MOL   H323 8727   2.446   6.305   7.032 -0.9566 -0.3985 -1.9200
   23MOL   H324 8728   2.613   6.354   7.006 -0.0871  2.7084 -2.8196
   23MOL   C325 8729   2.122   6.570   6.911 -0.0633  0.7152 -0.3576
   23MOL   C326 8730   2.043   6.696   6.947 -0.2075 -0.4729  0.1265
   23MOL   O327 8731   2.004   6.684   7.083 -0.3454 -0.7446  0.1526
   23MOL   C328 8732   1.874   6.631   7.093  0.2049  0.0941  0.0870
   23MOL   C329 8733   1.837   6.603   7.241  1.1704 -0.0850  0.1814
   23MOL   C330 8734   1.685   6.575   7.275  0.3420  0.5803  0.6708
   23MOL   C331 8735   1.650   6.572   7.421 -0.4961  0.0008  0.1660
   23MOL   H332 8736   2.219   6.581   6.959  0.7104  1.7898 -2.1164
   23MOL   H333 8737   2.069   6.488   6.960  4.6425 -1.1447  1.9073
   23MOL   H334 8738   1.950   6.700   6.889  1.1102 -2.0363 -2.1855
   23MOL   H335 8739   1.877   6.537   7.039  1.1372  0.4713 -0.5434
   23MOL   H336 8740   1.805   6.703   7.050 -0.5048 -0.1251  0.8515
   23MOL   H337 8741   1.895   6.523   7.286 -0.3345 -2.4818 -2.0131
   23MOL   H338 8742   1.863   6.699   7.286  0.9192  1.0113 -1.9437
   23MOL   H339 8743   1.643   6.486   7.228  1.1427  0.3726  0.3258
   23MOL   H340 8744   1.626   6.655   7.231 -0.7850  0.4943  2.0041
   23MOL   H341 8745   1.689   6.662   7.469  1.0055 -1.0146  0.8737
   23MOL   H342 8746   1.691   6.489   7.479 -0.6253 -0.9909 -1.1485
   23MOL   H343 8747   1.546   6.559   7.450 -0.8266  1.6410 -0.2210
   23MOL   C344 8748   2.126   6.831   6.928 -0.0432  0.2162  0.6956
   23MOL   C345 8749   2.051   6.961   6.977 -0.0588  0.4897  0.3288
   23MOL   O346 8750   1.938   6.988   6.891 -0.2184 -0.4757  0.0625
   23MOL   C347 8751   1.814   7.017   6.958 -0.6480 -0.6758  0.5415
   23MOL   C348 8752   1.703   7.054   6.862  0.2704  0.6412  0.3210
   23MOL   C349 8753   1.731   7.184   6.781 -0.4148 -0.3503  0.6826
   23MOL   C350 8754   1.596   7.236   6.733  1.1477  0.0524  0.9663
   23MOL   H351 8755   2.204   6.818   7.003  1.4391  0.2208 -0.8158
   23MOL   H352 8756   2.185   6.856   6.840 -0.8019 -2.0958 -0.5034
   23MOL   H353 8757   2.022   6.933   7.078  1.3376  1.4432  1.0076
   23MOL   H354 8758   1.823   7.097   7.031 -0.1935  0.5790 -0.8572
   23MOL   H355 8759   1.787   6.921   7.003 -0.5234 -1.0039 -0.0714
   23MOL   H356 8760   1.617   7.065   6.929  0.0413  1.3348 -0.0759
   23MOL   H357 8761   1.683   6.975   6.790 -1.2458  1.4341 -0.1471
   23MOL   H358 8762   1.784   7.243   6.856  2.5786  0.3430 -1.8550
   23MOL   H359 8763   1.799   7.175   6.696  0.6176  1.0497  1.3211
   23MOL   H360 8764   1.550   7.154   6.678 -1.3599  0.5062  2.2890
   23MOL   H361 8765   1.610   7.322   6.668  2.4780 -0.8080  0.1001
   23MOL   H362 8766   1.531   7.269   6.814  0.6948  0.2310  0.5318
   23MOL   C363 8767   2.149   7.078   6.984  0.0573 -0.6407  0.2776
   23MOL   C364 8768   2.105   7.202   7.061  0.9252 -0.1793 -0.0947
   23MOL   O365 8769   2.209   7.299   7.069  0.3555 -0.1743  0.1648
   23MOL   C366 8770   2.177   7.427   7.122  0.1836 -0.0699 -0.7475
   23MOL   C367 8771   2.292   7.515   7.089  0.2987 -0.1317 -0.0359
   23MOL   C368 8772   2.275   7.653   7.145  0.1449 -1.0521  0.2111
   23MOL   C369 8773   2.399   7.737   7.106 -0.0312 -0.1336 -0.0093
   23MOL   H370 8774   2.167   7.111   6.881  1.5574  0.8514  0.9942
   23MOL   H371 8775   2.248   7.052   7.021  0.4474  1.0270  0.4724
   23MOL   H372 8776   2.049   7.172   7.150 -2.5160  1.0053 -1.7623
   23MOL   H373 8777   2.150   7.404   7.225 -0.7833 -1.6908 -1.3440
   23MOL   H374 8778   2.084   7.462   7.079 -1.2491 -1.8158  0.8265
   23MOL   H375 8779   2.290   7.518   6.980 -1.6853  3.5328  0.0249
   23MOL   H376 8780   2.387   7.483   7.132  2.0717 -0.5422 -4.0199
   23MOL   H377 8781   2.262   7.653   7.253 -0.1112  1.4068  0.2042
   23MOL   H378 8782   2.193   7.708   7.100  0.7531 -0.6121 -0.3749
   23MOL   H379 8783   2.400   0.042   7.131 -1.5155 -0.1645  0.2428
   23MOL   H380 8784   2.484   7.695   7.159 -0.7962 -0.6923  0.7974
   23MOL   H381 8785   2.422   7.728   7.001 -1.2833 -2.6825 -0.1126
   23MOL   H382 8786   2.024   7.257   7.012  1.3614 -0.8618 -1.5905
   24MOL     C1 8787   3.871   4.694   3.202  0.2553 -0.1103 -0.2841
   24MOL     C2 8788   3.977   4.774   3.119  0.1463 -0.4555 -0.2273
   24MOL     O3 8789   4.083   4.812   3.212  0.1209 -0.3213 -0.6753
   24MOL     C4 8790   4.064   4.936   3.273 -0.1895 -0.6687 -0.4122
   24MOL     C5 8791   4.189   4.974   3.362 -0.5182 -0.1597  0.2549
   24MOL     C6 8792   4.185   4.898   3.500 -0.2379 -0.5803  0.4873
   24MOL     C7 8793   4.317   4.916   3.585  0.2055 -0.3653  0.6961
   24MOL     H8 8794   3.803   4.753   3.263  1.6787 -0.1530  1.3991
   24MOL     H9 8795   3.811   4.635   3.134 -1.8867  1.4904  0.1668
   24MOL    H10 8796   3.930   4.857   3.066 -0.1104  0.3816  1.2874
   24MOL    H11 8797   4.048   5.014   3.198 -0.9429  0.9830  1.4260
   24MOL    H12 8798   3.976   4.940   3.337  0.8859 -1.8158  1.1847
   24MOL    H13 8799   4.171   5.080   3.382  0.8786  0.1220  0.0568
   24MOL    H14 8800   4.270   4.962   3.291 -2.9884 -0.4725 -2.5905
   24MOL    H15 8801   4.161   4.793   3.482 -0.0566 -0.8046  1.5568
   24MOL    H16 8802   4.103   4.937   3.561  1.5205  0.8833  1.9605
   24MOL    H17 8803   4.405   4.893   3.525  1.3095  0.5632  1.9342
   24MOL    H18 8804   4.323   4.852   3.673  0.9009 -1.8256 -0.4025
   24MOL    H19 8805   4.336   5.014   3.629  1.2483 -0.2568 -0.0049
   24MOL    H20 8806   3.917   4.623   3.271 -0.2772 -1.8692 -1.7068
   24MOL    C21 8807   4.038   4.677   3.016 -0.5720 -0.2744  0.1727
   24MOL    C22 8808   3.971   4.686   2.875  0.5520  0.4342  0.7715
   24MOL    O23 8809   4.061   4.763   2.794 -0.2823  0.6508  0.4171
   24MOL    C24 8810   4.019   4.890   2.760  0.3395 -0.8601 -0.4064
   24MOL    C25 8811   4.136   4.984   2.742 -1.3837 -0.0648  0.5058
   24MOL    C26 8812   4.222   5.030   2.861 -0.1162 -0.5658  0.0748
   24MOL    C27 8813   4.332   5.137   2.832 -0.3633 -0.5190  0.2377
   24MOL    H28 8814   4.034   4.570   3.038  1.3875 -0.9666 -2.5990
   24MOL    H29 8815   4.140   4.708   2.995 -0.9712  3.6682  3.4089
   24MOL    H30 8816   3.872   4.730   2.876  0.5155  0.3620  0.3689
   24MOL    H31 8817   3.949   4.933   2.832 -1.1285 -1.9630 -1.1453
   24MOL    H32 8818   3.951   4.904   2.676  0.2713 -1.1347 -0.3956
   24MOL    H33 8819   4.204   4.950   2.664 -1.5265  0.3515  0.1959
   24MOL    H34 8820   4.099   5.075   2.695 -0.5143 -0.2867 -0.6312
   24MOL    H35 8821   4.158   5.082   2.933  0.8863 -0.0543  0.6085
   24MOL    H36 8822   4.258   4.939   2.909 -0.8197 -0.6328  0.4801
   24MOL    H37 8823   4.423   5.086   2.801  0.4035  0.4474  0.8838
   24MOL    H38 8824   4.296   5.194   2.746  2.7293  0.5409 -0.3902
   24MOL    H39 8825   4.365   5.202   2.913  1.2724 -0.5040 -0.4306
   24MOL    C40 8826   3.956   4.551   2.802 -0.7598  0.2297 -0.6684
   24MOL    C41 8827   3.861   4.549   2.684 -0.2991  0.5912 -0.8362
   24MOL    O42 8828   3.742   4.562   2.752 -0.2182  0.1463  0.3598
   24MOL    C43 8829   3.646   4.625   2.657  0.2463 -0.1458  0.2881
   24MOL    C44 8830   3.518   4.626   2.740 -0.4843 -1.1418 -0.7143
   24MOL    C45 8831   3.402   4.699   2.663 -0.3701  0.5459  0.4295
   24MOL    C46 8832   3.266   4.663   2.719 -0.4729 -0.3811  0.1327
   24MOL    H47 8833   3.916   4.476   2.870  1.8537 -2.2074 -1.6930
   24MOL    H48 8834   4.050   4.511   2.765  0.1103  0.6903  0.9754
   24MOL    H49 8835   3.882   4.639   2.627  0.5445  0.6302 -0.4674
   24MOL    H50 8836   3.634   4.568   2.565 -1.9475 -0.5750  0.8084
   24MOL    H51 8837   3.681   4.725   2.633  1.1807 -1.6115 -5.1213
   24MOL    H52 8838   3.532   4.684   2.831 -0.2106 -1.7284 -0.3806
   24MOL    H53 8839   3.488   4.525   2.768 -0.4295 -1.4625 -1.7679
   24MOL    H54 8840   3.397   4.679   2.556 -0.7093  1.2966  0.3014
   24MOL    H55 8841   3.420   4.807   2.657  0.7060  0.3351 -0.2126
   24MOL    H56 8842   3.251   4.556   2.732  0.5064 -0.5603 -0.1828
   24MOL    H57 8843   3.247   4.705   2.818 -2.1534 -0.1445 -0.2876
   24MOL    H58 8844   3.185   4.713   2.668 -0.6646 -3.0223 -2.2593
   24MOL    C59 8845   3.860   4.421   2.599  0.6685 -0.3104  0.1317
   24MOL    C60 8846   3.950   4.432   2.482 -1.0039 -0.0764  0.0142
   24MOL    O61 8847   4.076   4.417   2.542  0.6249 -0.9742 -0.0944
   24MOL    C62 8848   4.167   4.496   2.476  0.0465  0.1870  0.4922
   24MOL    C63 8849   4.302   4.492   2.558  0.2111  0.2429  0.0488
   24MOL    C64 8850   4.417   4.563   2.486 -0.4265  0.3814 -0.2803
   24MOL    C65 8851   4.558   4.554   2.556 -0.2123 -0.6004  0.5262
   24MOL    H66 8852   3.884   4.344   2.671 -1.9722 -1.4072 -0.1206
   24MOL    H67 8853   3.761   4.391   2.566  1.6289 -1.4857 -1.8151
   24MOL    H68 8854   3.929   4.529   2.436  0.9293 -0.2780 -1.3355
   24MOL    H69 8855   4.130   4.595   2.451  1.2335  0.3187 -0.8362
   24MOL    H70 8856   4.193   4.456   2.378 -2.1217 -2.0530  0.8074
   24MOL    H71 8857   4.288   4.530   2.659  0.8773  0.2501  0.1407
   24MOL    H72 8858   4.337   4.390   2.572  2.1585  0.7640 -0.8225
   24MOL    H73 8859   4.426   4.525   2.385  1.0238 -1.9645  0.6848
   24MOL    H74 8860   4.403   4.670   2.472 -0.0032  0.2893 -1.4692
   24MOL    H75 8861   4.595   4.451   2.557 -2.2062 -1.3308  2.0033
   24MOL    H76 8862   4.628   4.620   2.506  1.4444 -2.1489  0.7726
   24MOL    H77 8863   4.553   4.580   2.661 -0.6484 -1.7575  0.8041
   24MOL    C78 8864   3.925   4.324   2.370 -0.7330  0.0446  0.2884
   24MOL    C79 8865   3.829   4.367   2.264 -0.5286  0.2055  0.1489
   24MOL    O80 8866   3.694   4.368   2.314  0.1059 -0.0479  0.6888
   24MOL    C81 8867   3.588   4.425   2.232 -0.0269 -0.2717  0.4566
   24MOL    C82 8868   3.461   4.406   2.312 -0.3286 -0.5409  0.2203
   24MOL    C83 8869   3.325   4.455   2.259 -0.3144 -0.0545  0.2371
   24MOL    C84 8870   3.206   4.410   2.341  0.6782  0.2290  0.4239
   24MOL    H85 8871   3.903   4.222   2.401 -0.5777  0.0350  0.3655
   24MOL    H86 8872   4.026   4.311   2.332 -0.3010 -2.5827  2.2764
   24MOL    H87 8873   3.855   4.470   2.241 -1.5433  0.4942  0.2811
   24MOL    H88 8874   3.586   4.376   2.135  0.0965 -3.0955  1.8111
   24MOL    H89 8875   3.587   4.534   2.224  2.0840 -0.1751  1.1552
   24MOL    H90 8876   3.458   4.297   2.318  0.3679 -0.6595 -1.4879
   24MOL    H91 8877   3.468   4.449   2.412 -1.4578 -0.2587  0.1854
   24MOL    H92 8878   3.321   4.442   2.151  4.1575 -0.7502  0.0590
   24MOL    H93 8879   3.319   4.564   2.255 -2.1220 -0.2193 -2.9085
   24MOL    H94 8880   3.206   4.304   2.366 -1.0534  0.2084  0.3833
   24MOL    H95 8881   3.216   4.446   2.443 -0.7650 -1.0823  1.0480
   24MOL    H96 8882   3.107   4.431   2.300  1.5779 -2.1568 -3.2791
   24MOL    C97 8883   3.840   4.278   2.136 -0.4158 -0.0875  0.1894
   24MOL    C98 8884   3.832   4.368   2.006 -0.1390  0.6808 -0.4510
   24MOL    O99 8885   3.955   4.443   2.004  0.4360  0.3815 -0.0953
   24MOL   C100 8886   3.929   4.579   1.977 -0.4113  0.3987  0.3594
   24MOL   C101 8887   4.054   4.662   2.008  0.2258 -1.1191  0.8440
   24MOL   C102 8888   4.116   4.644   2.143 -0.2476 -1.1152 -0.0786
   24MOL   C103 8889   4.227   4.748   2.166 -0.1270 -0.0969 -0.1918
   24MOL   H104 8890   3.766   4.199   2.122 -1.0193  0.3744  0.7905
   24MOL   H105 8891   3.925   4.210   2.140  0.4685  1.0149  0.3513
   24MOL   H106 8892   3.749   4.436   2.022 -0.9788 -1.2582  4.1491
   24MOL   H107 8893   3.848   4.614   2.039  0.3476 -0.3346  1.7996
   24MOL   H108 8894   3.884   4.580   1.878 -0.0475 -2.6731  0.0947
   24MOL   H109 8895   4.036   4.769   2.001 -0.6005 -1.2823  0.3474
   24MOL   H110 8896   4.133   4.636   1.937 -0.8294  0.5227 -0.9973
   24MOL   H111 8897   4.161   4.545   2.140  0.3076 -0.8606 -0.3687
   24MOL   H112 8898   4.045   4.646   2.225 -0.3295  0.4669 -0.1783
   24MOL   H113 8899   4.294   4.725   2.248 -0.7215  0.4496  0.4632
   24MOL   H114 8900   4.288   4.765   2.077 -1.2645  0.1016 -0.9438
   24MOL   H115 8901   4.181   4.840   2.203  1.2166  1.3919 -2.1411
   24MOL   C116 8902   3.818   4.294   1.873 -0.3463 -0.0956 -0.3092
   24MOL   C117 8903   3.675   4.284   1.822  0.0024  0.1775  0.5388
   24MOL   O118 8904   3.634   4.415   1.782 -0.3817 -0.0094  0.1853
   24MOL   C119 8905   3.490   4.438   1.791 -0.5638 -0.4395 -0.4222
   24MOL   C120 8906   3.455   4.585   1.761  0.6397  0.2718  0.0581
   24MOL   C121 8907   3.542   4.689   1.832  0.9574 -0.5174  0.0980
   24MOL   C122 8908   3.482   4.834   1.824 -0.4727  0.1294  0.1355
   24MOL   H123 8909   3.881   4.350   1.804  0.4190  1.5375  1.6449
   24MOL   H124 8910   3.864   4.196   1.881  0.2650  0.0710 -1.7298
   24MOL   H125 8911   3.620   4.247   1.909  2.6135 -2.4243  1.1529
   24MOL   H126 8912   3.450   4.421   1.891 -1.2624  0.3979 -0.5586
   24MOL   H127 8913   3.435   4.373   1.723 -0.2044  0.2028 -1.3451
   24MOL   H128 8914   3.350   4.605   1.787  0.6600 -1.0710  1.2188
   24MOL   H129 8915   3.470   4.603   1.655 -1.8178  1.4050 -0.1413
   24MOL   H130 8916   3.548   4.667   1.939  0.7455 -0.6857  0.0761
   24MOL   H131 8917   3.643   4.686   1.791 -0.4289 -0.9715 -3.4581
   24MOL   H132 8918   3.475   4.872   1.722  0.9007  0.8367  0.2979
   24MOL   H133 8919   3.550   4.894   1.884 -0.5794 -0.1358  0.5203
   24MOL   H134 8920   3.384   4.842   1.870 -0.5718 -2.3231  0.4203
   24MOL   C135 8921   3.673   4.191   1.698 -0.1158  0.2540 -0.2563
   24MOL   C136 8922   3.710   4.042   1.720 -0.5247  0.2721  0.0042
   24MOL   O137 8923   3.625   3.985   1.813 -0.1943  0.1069 -0.2385
   24MOL   C138 8924   3.679   3.878   1.890 -0.3308 -0.0350  0.0263
   24MOL   C139 8925   3.590   3.829   1.998 -0.2194 -0.4970 -0.0743
   24MOL   C140 8926   3.453   3.786   1.955  0.9171 -0.7484 -0.4398
   24MOL   C141 8927   3.444   3.641   1.903 -0.1637 -0.6102  0.1200
   24MOL   H142 8928   3.747   4.251   1.644 -0.8813  3.4515  2.0764
   24MOL   H143 8929   3.583   4.205   1.639 -1.2605 -0.9767  1.1419
   24MOL   H144 8930   3.814   4.045   1.752 -0.7573  2.9735  0.6578
   24MOL   H145 8931   3.769   3.919   1.934  0.1017 -0.6068 -0.3223
   24MOL   H146 8932   3.699   3.799   1.818 -1.0062  0.3807 -0.6360
   24MOL   H147 8933   3.565   3.920   2.054  2.5772  1.1348 -1.3578
   24MOL   H148 8934   3.647   3.765   2.066  2.1569  0.2615 -1.2910
   24MOL   H149 8935   3.386   3.792   2.040  1.3930  1.3722 -0.1859
   24MOL   H150 8936   3.410   3.847   1.876 -2.1555  0.3240  1.9530
   24MOL   H151 8937   3.339   3.614   1.893  0.0675 -1.3133 -0.4621
   24MOL   H152 8938   3.492   3.628   1.806 -0.2039  0.2945 -0.0182
   24MOL   H153 8939   3.487   3.585   1.987 -1.0783  1.6188  2.1336
   24MOL   C154 8940   3.706   3.962   1.597  0.2573 -0.1990  0.7306
   24MOL   C155 8941   3.800   3.998   1.474  0.1717  0.1188 -0.0186
   24MOL   O156 8942   3.754   3.928   1.365  0.1500 -0.5501  0.2101
   24MOL   C157 8943   3.643   3.994   1.304  0.4309 -0.5298  0.5951
   24MOL   C158 8944   3.591   3.911   1.192  0.2527  0.2301 -0.3539
   24MOL   C159 8945   3.472   3.960   1.110  0.5520  0.5988 -0.5476
   24MOL   C160 8946   3.446   3.862   1.002  0.3992 -0.6353  0.3192
   24MOL   H161 8947   3.608   3.981   1.551  1.3909  1.4054 -1.1173
   24MOL   H162 8948   3.716   3.855   1.614 -1.4830 -0.3066  1.1641
   24MOL   H163 8949   3.799   4.106   1.456  2.3121  0.6996  2.9035
   24MOL   H164 8950   3.564   4.030   1.370  2.3470 -0.3364  2.8395
   24MOL   H165 8951   3.680   4.088   1.263 -1.3082 -0.5544 -1.1453
   24MOL   H166 8952   3.560   3.817   1.236 -1.2384  0.7964 -0.1501
   24MOL   H167 8953   3.672   3.893   1.121 -1.2844 -1.4684 -1.7367
   24MOL   H168 8954   3.386   3.964   1.176  1.1896 -1.3333  0.4328
   24MOL   H169 8955   3.493   4.056   1.061 -2.0420  0.9501 -1.0286
   24MOL   H170 8956   3.368   3.901   0.935 -1.6455 -0.0787  2.9356
   24MOL   H171 8957   3.527   3.832   0.935 -0.0749 -0.3925 -0.3705
   24MOL   H172 8958   3.400   3.776   1.050 -1.0811  0.8485  1.6260
   24MOL   C173 8959   3.939   3.951   1.502  0.4491  0.4117 -0.2637
   24MOL   C174 8960   4.032   3.979   1.387  0.8410  0.2625 -0.9691
   24MOL   O175 8961   4.081   4.112   1.413 -0.1569  0.6171 -0.1756
   24MOL   C176 8962   4.043   4.211   1.321  0.5172  0.7424 -0.3021
   24MOL   C177 8963   4.092   4.348   1.359 -0.6540  0.0724 -0.4841
   24MOL   C178 8964   4.053   4.397   1.502 -0.0871 -0.3327 -0.3120
   24MOL   C179 8965   3.916   4.458   1.501 -0.2211 -0.0764 -0.0380
   24MOL   H180 8966   3.941   3.844   1.521 -0.1741  0.2263 -1.2059
   24MOL   H181 8967   3.985   3.985   1.595  0.4144 -0.2553  0.0033
   24MOL   H182 8968   3.987   3.964   1.289  1.8094 -4.4166 -0.8127
   24MOL   H183 8969   3.935   4.217   1.309  0.1580  1.3588  2.7347
   24MOL   H184 8970   4.090   4.182   1.227  0.2654  0.2784 -0.2885
   24MOL   H185 8971   4.078   4.418   1.276  0.2873  1.0982  0.2139
   24MOL   H186 8972   4.200   4.335   1.356 -0.5587  0.9148 -0.6754
   24MOL   H187 8973   4.067   4.321   1.579  1.1355  0.4216  0.2190
   24MOL   H188 8974   4.115   4.486   1.517  2.0672 -1.6492 -1.1843
   24MOL   H189 8975   3.836   4.389   1.476 -0.2379  0.4172 -1.3449
   24MOL   H190 8976   3.900   4.497   1.602  0.2172  2.5943 -0.9504
   24MOL   H191 8977   3.913   4.545   1.435 -2.4247  0.8936  1.2645
   24MOL   C192 8978   4.158   3.897   1.391 -0.0865  0.4343  0.1934
   24MOL   C193 8979   4.141   3.749   1.350  0.4377  0.1023  0.3040
   24MOL   O194 8980   4.123   3.748   1.206 -0.0097  0.6535 -0.1854
   24MOL   C195 8981   3.998   3.708   1.157 -0.1582  0.0868  0.0035
   24MOL   C196 8982   3.985   3.687   1.008  0.0831 -0.2970  0.3940
   24MOL   C197 8983   3.835   3.643   0.975 -0.4212 -0.5095  0.6457
   24MOL   C198 8984   3.801   3.500   1.000 -0.1187 -0.2478  0.7267
   24MOL   H199 8985   4.196   3.887   1.493 -0.0651  1.6969  0.3170
   24MOL   H200 8986   4.244   3.937   1.336 -0.5318 -1.0945 -1.6556
   24MOL   H201 8987   4.053   3.712   1.401  0.5399  0.8875  1.0636
   24MOL   H202 8988   3.918   3.772   1.192  0.3912  0.4789  0.5547
   24MOL   H203 8989   3.986   3.612   1.209 -0.9513  1.4499  2.4332
   24MOL   H204 8990   4.004   3.786   0.965  0.1349  0.4457  2.0917
   24MOL   H205 8991   4.065   3.627   0.967 -2.1095 -1.7433 -1.9248
   24MOL   H206 8992   3.812   3.664   0.871  2.4725 -0.9652 -0.1258
   24MOL   H207 8993   3.779   3.703   1.047  1.5982  0.6611  1.3118
   24MOL   H208 8994   3.781   3.490   1.107 -1.8832  1.7910  0.6142
   24MOL   H209 8995   3.709   3.460   0.959 -0.5711  0.6353  0.8787
   24MOL   H210 8996   3.894   3.444   0.987  0.7930  1.5914 -1.0148
   24MOL   C211 8997   4.261   3.647   1.381  0.1503 -0.2255  0.1360
   24MOL   C212 8998   4.230   3.499   1.394 -0.0039 -0.3892 -0.5659
   24MOL   O213 8999   4.347   3.420   1.423 -0.4926 -0.3409  0.3008
   24MOL   C214 9000   4.422   3.388   1.305  0.1261 -0.4392 -0.4080
   24MOL   C215 9001   4.510   3.265   1.344  0.2432  0.2634 -0.1203
   24MOL   C216 9002   4.626   3.245   1.244 -0.1039 -0.3810 -0.1413
   24MOL   C217 9003   4.725   3.125   1.256 -0.1102 -0.5491  0.8195
   24MOL   H218 9004   4.304   3.664   1.479  2.5929 -3.2068 -0.3591
   24MOL   H219 9005   4.346   3.657   1.313  0.2597 -0.1507  0.2850
   24MOL   H220 9006   4.176   3.460   1.308 -1.3339  0.8593 -0.3270
   24MOL   H221 9007   4.350   3.343   1.237  0.1081 -2.0043  0.6182
   24MOL   H222 9008   4.479   3.472   1.266  0.1425 -0.3796 -0.2517
   24MOL   H223 9009   4.566   3.282   1.436 -0.1280 -1.2492  0.3918
   24MOL   H224 9010   4.447   3.181   1.370  2.0940 -0.0741  3.5688
   24MOL   H225 9011   4.680   3.339   1.231 -2.7000  1.1308 -0.4522
   24MOL   H226 9012   4.578   3.235   1.146  0.1644 -1.6411 -0.1536
   24MOL   H227 9013   4.774   3.125   1.158 -1.0797  0.4472  0.3146
   24MOL   H228 9014   4.662   3.037   1.267 -0.3812 -0.8316 -2.5086
   24MOL   H229 9015   4.803   3.142   1.330  1.1046  0.6450 -0.6961
   24MOL   C230 9016   4.145   3.468   1.512 -0.2838 -0.4413 -0.8578
   24MOL   C231 9017   4.088   3.328   1.515 -0.4926 -0.4925 -0.3459
   24MOL   O232 9018   4.051   3.279   1.647 -0.3233 -0.1303  0.1784
   24MOL   C233 9019   4.151   3.233   1.730 -0.1854  0.2513 -0.3808
   24MOL   C234 9020   4.123   3.088   1.762 -0.7484  0.1144 -0.1835
   24MOL   C235 9021   3.983   3.060   1.822  0.0889  0.2593  0.0193
   24MOL   C236 9022   3.966   2.912   1.862  0.0694 -0.7408 -0.0004
   24MOL   H237 9023   4.064   3.540   1.523  0.7447  0.6136 -0.0463
   24MOL   H238 9024   4.214   3.474   1.596 -0.3488  2.2254 -0.9761
   24MOL   H239 9025   4.158   3.265   1.461 -0.1712  0.3631 -0.9553
   24MOL   H240 9026   4.250   3.240   1.687  0.1275 -2.3482 -0.1799
   24MOL   H241 9027   4.155   3.294   1.820  1.2326 -1.6153  0.8713
   24MOL   H242 9028   4.146   3.020   1.680 -0.3864 -2.2453  1.8177
   24MOL   H243 9029   4.194   3.067   1.842  0.3849 -1.5878 -1.5981
   24MOL   H244 9030   3.919   3.091   1.740  1.1273 -0.8004 -1.2017
   24MOL   H245 9031   3.952   3.130   1.900 -1.6888  1.0868 -1.3837
   24MOL   H246 9032   3.866   2.895   1.901 -0.2575 -0.2965 -0.6432
   24MOL   H247 9033   4.039   2.867   1.930 -1.1913 -3.0842 -0.1623
   24MOL   H248 9034   3.972   2.850   1.772  1.9227  1.3011 -1.3444
   24MOL   C249 9035   3.953   3.327   1.441 -1.2601  0.5276 -0.5497
   24MOL   C250 9036   3.914   3.178   1.409  0.0259 -0.1188  0.4327
   24MOL   O251 9037   4.012   3.125   1.317 -0.1185  0.4826 -0.4235
   24MOL   C252 9038   4.075   3.005   1.362  0.7470 -0.4624  0.3259
   24MOL   C253 9039   4.155   2.932   1.254  0.3253 -0.1044 -0.0926
   24MOL   C254 9040   4.064   2.913   1.124  0.7268  0.9256 -0.1359
   24MOL   C255 9041   4.112   2.830   1.003  0.0721  0.0158  0.3382
   24MOL   H256 9042   3.951   3.394   1.355 -0.7201  0.6653 -0.4572
   24MOL   H257 9043   3.897   3.379   1.518 -0.4034  0.1864  0.3162
   24MOL   H258 9044   3.917   3.116   1.499  1.0382  0.9904  1.1646
   24MOL   H259 9045   3.992   2.936   1.377  0.2302  0.8026  3.6134
   24MOL   H260 9046   4.127   3.016   1.457  0.6538 -1.2516  0.4741
   24MOL   H261 9047   4.237   3.002   1.239 -1.1401  1.4446 -1.0150
   24MOL   H262 9048   4.194   2.837   1.293  0.6444 -0.0917 -0.3736
   24MOL   H263 9049   3.975   2.861   1.157  1.0437  1.2744  1.2974
   24MOL   H264 9050   4.038   3.014   1.094 -2.0102  0.7960  1.7127
   24MOL   H265 9051   4.128   2.724   1.026  0.0571 -0.8049 -3.1998
   24MOL   H266 9052   4.198   2.879   0.956 -0.3210 -1.0389 -1.5399
   24MOL   H267 9053   4.034   2.824   0.927  0.4858 -1.2161 -0.0036
   24MOL   C268 9054   3.774   3.173   1.344 -0.1986  0.1259  0.5484
   24MOL   C269 9055   3.702   3.029   1.338 -0.1953 -0.0270  0.5272
   24MOL   O270 9056   3.596   3.020   1.433 -0.6471  0.3179  0.6789
   24MOL   C271 9057   3.639   2.988   1.567 -0.3822 -0.0596  0.2907
   24MOL   C272 9058   3.516   2.945   1.645  0.2157  0.7227  0.3683
   24MOL   C273 9059   3.520   2.958   1.795 -0.4568 -0.3158  0.0725
   24MOL   C274 9060   3.410   2.879   1.868 -0.8410 -0.3070 -0.2079
   24MOL   H275 9061   3.705   3.240   1.395 -0.7980 -0.4209  0.4602
   24MOL   H276 9062   3.793   3.208   1.242 -1.9848  1.9408  0.8180
   24MOL   H277 9063   3.770   2.946   1.356  1.5535  1.2618 -0.0094
   24MOL   H278 9064   3.708   2.904   1.562  0.1464  0.4000 -0.1846
   24MOL   H279 9065   3.691   3.079   1.597 -1.4399  0.1949  1.3982
   24MOL   H280 9066   3.428   3.000   1.614 -1.7145 -1.8004  1.2474
   24MOL   H281 9067   3.496   2.841   1.620  2.9743  0.4669 -1.0600
   24MOL   H282 9068   3.518   3.064   1.817 -0.0427 -0.5882  1.4839
   24MOL   H283 9069   3.618   2.927   1.830  0.0901  1.3616  0.0470
   24MOL   H284 9070   3.309   2.902   1.834  0.0600  1.3414 -1.8646
   24MOL   H285 9071   3.421   2.906   1.972 -0.0077  0.4230 -0.4789
   24MOL   H286 9072   3.428   2.771   1.861  3.6300  0.2308  1.5750
   24MOL   C287 9073   3.640   2.989   1.200 -0.5972 -0.2685 -0.7430
   24MOL   C288 9074   3.576   2.848   1.212 -0.4444  0.0072  0.1509
   24MOL   O289 9075   3.686   2.752   1.214  0.2426 -0.2047  0.6450
   24MOL   C290 9076   3.655   2.623   1.270  0.1170 -0.3824 -0.0930
   24MOL   C291 9077   3.787   2.542   1.248 -0.1410  0.6287 -0.4391
   24MOL   C292 9078   3.835   2.527   1.102  0.6983  0.3876 -0.3726
   24MOL   C293 9079   3.960   2.447   1.074 -0.5308 -0.4477  0.6666
   24MOL   H294 9080   3.706   2.995   1.114 -0.1316 -1.0322 -0.4419
   24MOL   H295 9081   3.563   3.065   1.185  0.5140  0.9693 -0.2830
   24MOL   H296 9082   3.523   2.840   1.307 -0.1932 -1.3073  0.1956
   24MOL   H297 9083   3.632   2.642   1.374  1.8725  0.1491  0.2196
   24MOL   H298 9084   3.573   2.568   1.224 -0.9441  1.0808  0.0058
   24MOL   H299 9085   3.784   2.454   1.312  5.4790  0.0814 -0.7189
   24MOL   H300 9086   3.861   2.600   1.303  0.2599 -0.3713  0.0835
   24MOL   H301 9087   3.844   2.626   1.057  1.6321  1.1024  1.3430
   24MOL   H302 9088   3.750   2.485   1.048  1.2396 -0.1017 -0.8414
   24MOL   H303 9089   4.054   2.486   1.114 -0.8606  0.0700  0.9484
   24MOL   H304 9090   3.953   2.341   1.100 -0.5587 -0.6569 -0.2030
   24MOL   H305 9091   3.982   2.457   0.968  2.0954 -0.2993  1.1845
   24MOL   C306 9092   3.476   2.823   1.092  0.3248  0.4858  0.5343
   24MOL   C307 9093   3.351   2.921   1.086  0.8422  0.3371  0.2392
   24MOL   O308 9094   3.380   3.055   1.059  0.2284  0.7621 -0.1051
   24MOL   C309 9095   3.417   3.077   0.923  0.0837 -0.4512 -0.2745
   24MOL   C310 9096   3.473   3.219   0.929 -0.1135 -0.0551  0.2838
   24MOL   C311 9097   3.374   3.320   0.991  0.5389  0.0159 -0.1151
   24MOL   C312 9098   3.413   3.469   0.982  0.8130  0.3351  0.1247
   24MOL   H313 9099   3.527   2.818   0.996  0.0938 -0.7616  0.4607
   24MOL   H314 9100   3.435   2.722   1.103 -3.3138  1.6995 -1.1246
   24MOL   H315 9101   3.288   2.888   1.003  2.4319 -0.6850 -0.5912
   24MOL   H316 9102   3.326   3.067   0.863  0.1632 -2.6462 -0.0507
   24MOL   H317 9103   3.484   2.997   0.893  0.7319  0.8192 -2.3344
   24MOL   H318 9104   3.494   3.251   0.827 -0.6588  2.2666  0.8776
   24MOL   H319 9105   3.570   3.204   0.976 -0.2345 -1.8311  0.0080
   24MOL   H320 9106   3.283   3.305   0.933  0.7535 -2.3605  0.0748
   24MOL   H321 9107   3.350   3.293   1.094 -0.1145  0.4132 -0.1609
   24MOL   H322 9108   3.508   3.498   1.027 -0.2025  2.7440  0.7950
   24MOL   H323 9109   3.338   3.528   1.035 -1.1380 -1.4111 -0.6194
   24MOL   H324 9110   3.415   3.520   0.885 -1.5838  0.1963 -0.0166
   24MOL   C325 9111   3.268   2.920   1.214 -0.2348 -0.0006 -0.0122
   24MOL   C326 9112   3.125   2.985   1.214  0.3767 -0.0374 -0.3198
   24MOL   O327 9113   3.048   2.922   1.117  0.0510  0.4367  0.1420
   24MOL   C328 9114   2.982   3.010   1.028 -0.3725 -1.1431 -0.4265
   24MOL   C329 9115   2.946   2.930   0.904  0.1349  0.0983  0.1825
   24MOL   C330 9116   3.065   2.865   0.830 -0.9904 -0.0201  0.4417
   24MOL   C331 9117   3.037   2.827   0.684  0.5822  0.0439  0.3138
   24MOL   H332 9118   3.336   2.958   1.290  1.3234  0.3246 -1.5390
   24MOL   H333 9119   3.253   2.815   1.240 -0.3111  0.6323  2.6219
   24MOL   H334 9120   3.147   3.090   1.194 -1.6229 -0.1625 -3.5911
   24MOL   H335 9121   3.049   3.092   1.002  0.6642 -0.7441  3.2857
   24MOL   H336 9122   2.898   3.038   1.091  1.9109 -0.1602  2.2689
   24MOL   H337 9123   2.862   2.861   0.917 -1.0076  1.7528  1.7934
   24MOL   H338 9124   2.903   3.002   0.834  2.2843  1.6437  0.4159
   24MOL   H339 9125   3.101   2.776   0.881  1.4508  1.0250  0.6323
   24MOL   H340 9126   3.152   2.931   0.831  1.0087 -2.5332 -0.9628
   24MOL   H341 9127   3.027   2.906   0.610 -1.0771 -0.5754 -0.1533
   24MOL   H342 9128   2.952   2.759   0.684 -0.2968  1.1145 -1.0485
   24MOL   H343 9129   3.123   2.771   0.647 -1.1749 -1.9803 -0.8324
   24MOL   C344 9130   3.040   2.980   1.340 -0.5397 -0.5714  0.4582
   24MOL   C345 9131   3.107   3.044   1.465 -0.6395 -0.3215 -0.1384
   24MOL   O346 9132   2.995   3.042   1.557  0.2962 -0.6110 -0.0087
   24MOL   C347 9133   3.014   2.988   1.687 -0.4744 -0.1941 -0.4165
   24MOL   C348 9134   2.954   2.847   1.691 -0.4603  0.0620  0.8464
   24MOL   C349 9135   3.003   2.779   1.813  0.5426 -0.1736  0.1936
   24MOL   C350 9136   2.942   2.640   1.842  0.0937 -0.4338 -0.7948
   24MOL   H351 9137   2.948   3.038   1.331 -1.0471 -1.4625 -0.2247
   24MOL   H352 9138   2.997   2.882   1.364 -1.1351 -0.6019 -0.6982
   24MOL   H353 9139   3.189   2.977   1.492  0.6592  0.8822 -1.0122
   24MOL   H354 9140   2.970   3.049   1.766 -1.0325 -1.2087  0.0607
   24MOL   H355 9141   3.121   2.986   1.707 -0.9566 -3.1215  2.2339
   24MOL   H356 9142   2.975   2.792   1.599  0.1017  0.4757  0.7260
   24MOL   H357 9143   2.847   2.857   1.708 -0.6402 -1.4643  0.7011
   24MOL   H358 9144   3.111   2.762   1.809  0.6012 -1.0121  3.7327
   24MOL   H359 9145   3.002   2.852   1.894  0.6923  3.4151 -2.8756
   24MOL   H360 9146   2.940   2.570   1.758 -0.8635 -0.6561 -0.5915
   24MOL   H361 9147   2.836   2.649   1.864  0.2653 -1.9390  0.7088
   24MOL   H362 9148   2.993   2.598   1.929  0.8317  3.1214  0.5744
   24MOL   C363 9149   3.156   3.187   1.443  0.3546 -0.8136 -0.4991
   24MOL   C364 9150   3.213   3.245   1.575  0.6365 -1.1061  0.5493
   24MOL   O365 9151   3.298   3.353   1.552  0.0051 -0.4145  0.6468
   24MOL   C366 9152   3.433   3.319   1.516 -0.0039  0.3078  0.3968
   24MOL   C367 9153   3.514   3.450   1.497 -0.4854  0.2477 -0.3909
   24MOL   C368 9154   3.508   3.514   1.362 -0.3082 -0.9552  0.6092
   24MOL   C369 9155   3.643   3.580   1.332  0.2755  0.1389  0.7767
   24MOL   H370 9156   3.073   3.245   1.403  1.2070  0.4530 -0.4645
   24MOL   H371 9157   3.233   3.186   1.366  0.3211  0.9790 -0.5890
   24MOL   H372 9158   3.267   3.165   1.625 -2.9753 -2.6075  2.1810
   24MOL   H373 9159   3.450   3.250   1.433  1.7552  1.0598  0.1138
   24MOL   H374 9160   3.485   3.270   1.598  2.4094  1.5100 -0.3462
   24MOL   H375 9161   3.617   3.423   1.520 -1.6209 -2.5715  1.5425
   24MOL   H376 9162   3.488   3.518   1.578  0.8001 -1.3942  1.4422
   24MOL   H377 9163   3.411   3.563   1.353 -0.8928 -2.1626  0.1253
   24MOL   H378 9164   3.507   3.430   1.292 -1.0436  0.6700 -1.3908
   24MOL   H379 9165   3.723   3.511   1.360  1.3151  1.4241  1.0193
   24MOL   H380 9166   3.646   3.621   1.231 -0.8247  1.0660  1.1109
   24MOL   H381 9167   3.647   3.663   1.402  0.5372 -0.1616  1.1172
   24MOL   H382 9168   3.138   3.267   1.650  0.3245  1.2439 -0.3938
   25MOL     C1 9169   0.083   5.364   5.464 -0.9993 -0.2089  0.1426
   25MOL     C2 9170   0.059   5.230   5.398 -0.2877  0.0514 -0.2618
   25MOL     O3 9171   7.769   5.156   5.477  0.4447 -0.2047  0.5026
   25MOL     C4 9172   0.013   5.095   5.597 -0.4942  0.4259  0.5196
   25MOL     C5 9173   7.702   5.009   5.658  0.8260  0.4330  1.1104
   25MOL     C6 9174   7.736   4.932   5.785 -0.0819  0.0448  0.1282
   25MOL     C7 9175   7.634   4.833   5.835 -0.3502  0.9826 -0.0411
   25MOL     H8 9176   0.133   5.341   5.558 -0.2989  2.2971  0.4273
   25MOL     H9 9177   0.144   5.428   5.399  1.1041 -0.7637  1.5228
   25MOL    H10 9178   0.153   5.181   5.374 -1.5683 -2.4705 -0.2691
   25MOL    H11 9179   0.095   5.027   5.576  0.2656  1.5985 -0.3529
   25MOL    H12 9180   0.047   5.172   5.666 -0.4508  1.6810 -0.8658
   25MOL    H13 9181   7.663   4.931   5.592 -0.9816 -0.4580  3.1787
   25MOL    H14 9182   7.615   5.074   5.671  1.0640  0.8889  0.4822
   25MOL    H15 9183   7.749   4.998   5.870 -1.2794  1.6240 -0.8839
   25MOL    H16 9184   0.031   4.882   5.774  0.2698  0.6309  0.6048
   25MOL    H17 9185   7.670   4.732   5.820 -0.7727  1.0671 -1.6579
   25MOL    H18 9186   7.539   4.855   5.787 -0.7336  4.8223  2.1959
   25MOL    H19 9187   7.620   4.830   5.943  0.3759 -1.2377  0.0082
   25MOL    H20 9188   7.788   5.410   5.487 -0.7078 -1.2634  3.6495
   25MOL    C21 9189   7.786   5.237   5.262  0.2233 -0.3544 -0.4223
   25MOL    C22 9190   0.000   5.116   5.167 -0.8317  0.5626 -0.3781
   25MOL    O23 9191   7.686   5.022   5.189 -0.1069  0.1041 -0.0705
   25MOL    C24 9192   7.720   4.894   5.146 -0.3917  0.4657 -0.6755
   25MOL    C25 9193   7.605   4.804   5.171 -0.1271 -0.5264 -1.0376
   25MOL    C26 9194   7.564   4.809   5.309 -0.0261  0.2959 -0.1448
   25MOL    C27 9195   7.457   4.695   5.334  0.1241 -0.2960 -0.0854
   25MOL    H28 9196   0.030   5.324   5.212  0.6562  0.7096  1.7732
   25MOL    H29 9197   7.682   5.269   5.270  0.4975 -0.3222  3.9689
   25MOL    H30 9198   0.098   5.071   5.184 -1.2013  0.3603  1.3502
   25MOL    H31 9199   0.002   4.855   5.204 -1.2261  0.2024  0.3566
   25MOL    H32 9200   7.748   4.895   5.040  1.1248  1.3191 -0.2774
   25MOL    H33 9201   7.511   4.819   5.118 -0.2630  0.8611 -0.4306
   25MOL    H34 9202   7.645   4.703   5.170  0.6420 -0.2415 -0.1132
   25MOL    H35 9203   7.648   4.789   5.376 -0.8567  0.6437  1.0249
   25MOL    H36 9204   7.521   4.906   5.337  0.9254  0.5891  0.3479
   25MOL    H37 9205   7.442   4.693   5.442  1.5991  1.4306  0.1806
   25MOL    H38 9206   7.361   4.700   5.282  0.4384  1.0930 -0.5604
   25MOL    H39 9207   7.479   4.593   5.303  0.9437 -0.2092  0.2041
   25MOL    C40 9208   7.792   5.163   5.022  0.1958 -0.2761 -0.0248
   25MOL    C41 9209   0.118   5.231   4.986 -0.1333 -0.3030 -0.9642
   25MOL    O42 9210   0.081   5.293   4.857  0.0568  0.8827 -0.1706
   25MOL    C43 9211   0.032   5.424   4.882  0.2981 -0.7678  0.0978
   25MOL    C44 9212   0.004   5.484   4.742 -0.2840 -0.2325  0.7181
   25MOL    C45 9213   0.110   5.577   4.675  0.7490 -0.2395  0.7265
   25MOL    C46 9214   0.080   5.617   4.530  0.4626 -0.0980 -0.0354
   25MOL    H47 9215   7.701   5.222   5.012  0.2814 -0.2866 -0.9129
   25MOL    H48 9216   7.768   5.076   4.961 -0.5004 -0.0014 -0.1387
   25MOL    H49 9217   0.155   5.313   5.049 -1.9961 -0.6938  0.6872
   25MOL    H50 9218   0.110   5.494   4.912 -0.7138 -0.1641  1.3860
   25MOL    H51 9219   7.748   5.438   4.949  0.5443  1.5350 -0.0451
   25MOL    H52 9220   7.713   5.538   4.761 -0.1494  0.0714  0.5148
   25MOL    H53 9221   7.793   5.398   4.676  0.2818 -0.3397  0.7517
   25MOL    H54 9222   0.204   5.522   4.686  1.6470  1.3207  1.0234
   25MOL    H55 9223   0.117   5.673   4.726  0.5970  0.9257 -1.3579
   25MOL    H56 9224   0.101   5.548   4.448  2.2216  0.3637  0.0016
   25MOL    H57 9225   7.783   5.663   4.524  0.3379  0.2441  3.4105
   25MOL    H58 9226   0.147   5.701   4.514  1.0232  0.0110  2.7461
   25MOL    C59 9227   0.232   5.134   4.951  0.1904  0.7040 -0.3883
   25MOL    C60 9228   0.370   5.209   4.928 -0.0340 -0.0337 -0.1018
   25MOL    O61 9229   0.407   5.271   5.051 -0.2454  0.3040 -0.8948
   25MOL    C62 9230   0.475   5.195   5.153 -0.5888 -0.7181 -1.2746
   25MOL    C63 9231   0.472   5.283   5.283 -0.4867  0.0156  0.7611
   25MOL    C64 9232   0.573   5.401   5.277 -0.1595 -0.2702  0.1054
   25MOL    C65 9233   0.561   5.507   5.381  0.3776 -0.2077 -0.0129
   25MOL    H66 9234   0.244   5.059   5.030 -1.0113  0.8754 -0.0332
   25MOL    H67 9235   0.214   5.071   4.864 -0.8657 -0.4090  0.6074
   25MOL    H68 9236   0.355   5.290   4.857  2.1054  0.8984  0.4523
   25MOL    H69 9237   0.579   5.182   5.125 -0.4140  0.4238 -1.1697
   25MOL    H70 9238   0.429   5.097   5.163 -0.4490 -0.5625  1.1240
   25MOL    H71 9239   0.371   5.322   5.284 -0.5081  0.2169 -3.0745
   25MOL    H72 9240   0.478   5.215   5.368 -2.4456 -1.0781  0.0461
   25MOL    H73 9241   0.673   5.357   5.279 -0.2143 -0.3778  0.5543
   25MOL    H74 9242   0.569   5.445   5.177 -0.4294  1.9080  1.0452
   25MOL    H75 9243   0.461   5.548   5.388  0.5710  0.4536 -1.0673
   25MOL    H76 9244   0.592   5.472   5.480  0.3134  0.9537  0.4240
   25MOL    H77 9245   0.620   5.592   5.346  0.0119  0.0267 -0.0642
   25MOL    C78 9246   0.482   5.121   4.865 -0.1661  0.1303 -0.1192
   25MOL    C79 9247   0.589   5.202   4.782 -0.3379  0.2045 -0.3049
   25MOL    O80 9248   0.672   5.098   4.736 -0.0906 -0.7997  0.3747
   25MOL    C81 9249   0.658   5.066   4.597 -0.3830 -0.1454 -0.9424
   25MOL    C82 9250   0.724   4.929   4.584  0.0593  0.4025 -0.0642
   25MOL    C83 9251   0.865   4.918   4.647 -0.1356 -0.4701  0.2499
   25MOL    C84 9252   0.929   4.774   4.646  0.0007  0.1853  0.7253
   25MOL    H85 9253   0.441   5.053   4.789  0.2379 -0.4565  0.1878
   25MOL    H86 9254   0.529   5.055   4.938 -1.2535 -0.9025 -0.3388
   25MOL    H87 9255   0.548   5.262   4.701 -1.0068  0.1353 -0.0289
   25MOL    H88 9256   0.694   5.148   4.535 -1.6314  0.4002 -0.9603
   25MOL    H89 9257   0.557   5.040   4.564 -0.3362 -1.0315 -0.4015
   25MOL    H90 9258   0.661   4.854   4.632 -3.9927  3.2719 -0.5837
   25MOL    H91 9259   0.718   4.900   4.479 -1.7835  1.7718 -0.3622
   25MOL    H92 9260   0.866   4.945   4.752  1.8337 -3.0956  0.9458
   25MOL    H93 9261   0.927   4.992   4.595 -0.1197  0.8238  2.0421
   25MOL    H94 9262   0.861   4.709   4.701 -0.8672  0.6136  0.1743
   25MOL    H95 9263   0.931   4.736   4.543 -2.7544  1.2523  0.2287
   25MOL    H96 9264   1.027   4.783   4.693 -1.2971 -0.1992  3.5837
   25MOL    C97 9265   0.671   5.294   4.877  0.1891  0.8760  0.4944
   25MOL    C98 9266   0.780   5.382   4.808 -0.1267  0.3779  0.3327
   25MOL    O99 9267   0.824   5.474   4.908  0.1871  0.7900 -0.1911
   25MOL   C100 9268   0.741   5.586   4.922  0.7185 -0.3888 -0.0433
   25MOL   C101 9269   0.817   5.718   4.909  0.3958 -0.0087 -0.1713
   25MOL   C102 9270   0.721   5.847   4.914  0.6449  0.4807  0.3243
   25MOL   C103 9271   0.804   5.969   4.876  0.0196 -0.5774  0.1380
   25MOL   H104 9272   0.720   5.246   4.963 -1.5387  1.7086  1.9798
   25MOL   H105 9273   0.601   5.359   4.929 -2.5355 -0.3540 -1.5551
   25MOL   H106 9274   0.743   5.434   4.720  1.9006  0.3876 -0.5315
   25MOL   H107 9275   0.695   5.586   5.021  1.0590  0.8876  0.1215
   25MOL   H108 9276   0.658   5.583   4.852 -0.2117  0.2313  1.0153
   25MOL   H109 9277   0.881   5.712   4.821  1.2203 -0.8223  0.4740
   25MOL   H110 9278   0.886   5.728   4.992  0.4397 -0.9650 -0.0814
   25MOL   H111 9279   0.667   5.855   5.008 -2.2801 -2.4326 -0.9955
   25MOL   H112 9280   0.638   5.848   4.844 -0.4689  1.1022  1.6419
   25MOL   H113 9281   0.735   6.053   4.863 -0.2326 -0.2512  3.2171
   25MOL   H114 9282   0.872   5.985   4.960 -0.3212  0.6028  0.1987
   25MOL   H115 9283   0.858   5.952   4.784  2.5301 -0.8122  1.6094
   25MOL   C116 9284   0.896   5.295   4.750  1.0615 -0.0317 -0.3135
   25MOL   C117 9285   1.029   5.377   4.708  0.3786  0.6127  0.1407
   25MOL   O118 9286   1.143   5.291   4.723 -1.2068  0.1796 -0.1559
   25MOL   C119 9287   1.181   5.235   4.851  0.7791  0.0397  0.2722
   25MOL   C120 9288   1.303   5.149   4.820 -0.1681 -0.3275 -0.1871
   25MOL   C121 9289   1.278   5.025   4.729 -0.5608  0.2604 -0.1996
   25MOL   C122 9290   1.406   4.980   4.657 -0.1452 -0.4715 -0.3760
   25MOL   H123 9291   0.915   5.221   4.829  1.5855  0.3313 -0.0975
   25MOL   H124 9292   0.859   5.241   4.662  1.3987 -0.5970 -0.1148
   25MOL   H125 9293   1.043   5.458   4.779 -1.5035 -0.1535  1.4307
   25MOL   H126 9294   1.102   5.175   4.897  0.9376  0.2976  0.8746
   25MOL   H127 9295   1.210   5.314   4.920 -0.5106  1.9862 -1.3316
   25MOL   H128 9296   1.358   5.122   4.911 -1.6750 -0.2589  0.7587
   25MOL   H129 9297   1.381   5.210   4.775  0.6048 -1.4490 -0.3869
   25MOL   H130 9298   1.247   4.940   4.791 -0.6480  1.6718  1.7372
   25MOL   H131 9299   1.192   5.047   4.665 -0.3247  1.0745 -0.2364
   25MOL   H132 9300   1.386   4.880   4.618 -4.1737 -0.6130  1.8244
   25MOL   H133 9301   1.488   4.969   4.728  0.1076  0.2319 -0.5480
   25MOL   H134 9302   1.442   5.053   4.584  1.7652  0.4460  1.4351
   25MOL   C135 9303   1.032   5.420   4.559 -0.1746 -0.3825  0.1680
   25MOL   C136 9304   1.153   5.509   4.523  0.1962 -0.2847 -0.3628
   25MOL   O137 9305   1.179   5.498   4.381 -0.0131 -0.1545 -0.3399
   25MOL   C138 9306   1.266   5.383   4.358 -0.3660 -0.4407  0.0976
   25MOL   C139 9307   1.303   5.406   4.220 -0.6424  0.0922 -0.2899
   25MOL   C140 9308   1.180   5.400   4.124  0.0864  0.3399 -0.0416
   25MOL   C141 9309   1.218   5.426   3.981  0.0737  0.3967  0.7073
   25MOL   H142 9310   0.935   5.467   4.543 -0.2770 -0.8913 -0.7271
   25MOL   H143 9311   1.041   5.331   4.497  2.0471 -0.7300  0.9421
   25MOL   H144 9312   1.248   5.472   4.562  0.2795  0.0655 -0.2380
   25MOL   H145 9313   1.227   5.281   4.356 -1.4122 -0.0481 -0.0624
   25MOL   H146 9314   1.364   5.397   4.403 -0.0912 -0.6071 -0.4448
   25MOL   H147 9315   1.379   5.333   4.193 -1.0912 -0.6463  0.4325
   25MOL   H148 9316   1.346   5.506   4.212  0.7749 -0.5655 -1.0887
   25MOL   H149 9317   1.126   5.306   4.141 -1.7686  1.6206  1.3110
   25MOL   H150 9318   1.109   5.476   4.155  0.7118  1.4040 -1.2267
   25MOL   H151 9319   1.257   5.527   3.966  0.6414 -0.2657 -2.6353
   25MOL   H152 9320   1.294   5.353   3.953  1.2252  0.6682  3.0596
   25MOL   H153 9321   1.139   5.410   3.908  0.7075  0.0608  0.0797
   25MOL   C154 9322   1.145   5.659   4.567 -0.2463  0.2576 -0.0514
   25MOL   C155 9323   1.276   5.734   4.611 -0.1738 -0.3163 -0.5321
   25MOL   O156 9324   1.250   5.858   4.679 -0.2705 -0.0926 -0.5878
   25MOL   C157 9325   1.192   5.842   4.813  0.1565 -0.1775 -0.0974
   25MOL   C158 9326   1.179   5.971   4.892 -0.0753 -0.5045  0.6401
   25MOL   C159 9327   1.310   6.036   4.941  0.2870 -0.3320  0.0094
   25MOL   C160 9328   1.303   6.180   4.999  0.0753  0.1726 -0.2962
   25MOL   H161 9329   1.076   5.656   4.652  1.7394  0.6891  1.6282
   25MOL   H162 9330   1.093   5.713   4.488 -1.1070  2.2218  1.7823
   25MOL   H163 9331   1.327   5.673   4.685  0.0582  2.3190  1.5433
   25MOL   H164 9332   1.092   5.801   4.800 -1.0769  1.8884  2.5357
   25MOL   H165 9333   1.264   5.785   4.871  1.8444 -0.1368 -2.0840
   25MOL   H166 9334   1.104   5.953   4.969 -0.4503 -0.3295  0.3171
   25MOL   H167 9335   1.124   6.053   4.847  0.9530  0.9512  1.9666
   25MOL   H168 9336   1.358   5.969   5.013 -3.8058 -4.1873 -0.6045
   25MOL   H169 9337   1.381   6.036   4.859 -0.6064  0.6361 -0.7802
   25MOL   H170 9338   1.303   6.241   4.909  0.5921 -0.2469 -0.5790
   25MOL   H171 9339   1.211   6.191   5.058 -0.8627 -0.2190 -1.6669
   25MOL   H172 9340   1.392   6.200   5.059  1.0500 -1.4425 -1.1904
   25MOL   C173 9341   1.379   5.746   4.505 -0.3698 -0.4385  0.0343
   25MOL   C174 9342   1.503   5.832   4.541  0.0693 -0.0126 -0.6349
   25MOL   O175 9343   1.581   5.740   4.619 -0.6044 -0.0637  0.1697
   25MOL   C176 9344   1.597   5.772   4.763 -1.0347 -0.0592  0.1902
   25MOL   C177 9345   1.660   5.646   4.818  0.1148 -0.5610  0.1622
   25MOL   C178 9346   1.582   5.516   4.815  0.9611 -0.3579  0.2366
   25MOL   C179 9347   1.501   5.503   4.942 -0.1523  0.4529 -0.1600
   25MOL   H180 9348   1.328   5.784   4.416 -0.3979  0.7141  0.5370
   25MOL   H181 9349   1.406   5.648   4.465  2.3460  0.8579 -1.4874
   25MOL   H182 9350   1.464   5.918   4.595  1.5627  0.1408  0.2265
   25MOL   H183 9351   1.506   5.803   4.814 -0.5564  2.2268 -0.2918
   25MOL   H184 9352   1.669   5.854   4.769 -1.6699  0.9348 -4.0715
   25MOL   H185 9353   1.693   5.676   4.917  0.2971  2.7298 -0.8499
   25MOL   H186 9354   1.761   5.633   4.779 -1.1740  0.2944 -3.6263
   25MOL   H187 9355   1.522   5.504   4.724  2.1570  2.8027 -1.0501
   25MOL   H188 9356   1.638   5.423   4.809 -0.3873 -1.0659 -2.2662
   25MOL   H189 9357   1.564   5.491   5.030 -0.1769  0.9669 -0.0718
   25MOL   H190 9358   1.429   5.582   4.965 -2.3062 -0.6587 -2.8458
   25MOL   H191 9359   1.435   5.417   4.956 -0.3523  0.4740 -0.9858
   25MOL   C192 9360   1.580   5.883   4.416 -0.4685 -0.1420 -0.1065
   25MOL   C193 9361   1.534   6.027   4.373 -0.4654  0.2224  0.4591
   25MOL   O194 9362   1.620   6.125   4.425  0.3952 -0.0973 -0.4844
   25MOL   C195 9363   1.587   6.178   4.553  0.3370  0.1992 -0.2104
   25MOL   C196 9364   1.618   6.327   4.558  0.2119  0.1213 -0.0899
   25MOL   C197 9365   1.566   6.395   4.694  0.2675 -0.0369  0.6027
   25MOL   C198 9366   1.581   6.545   4.691 -0.4551  0.2329 -0.0726
   25MOL   H199 9367   1.575   5.819   4.328 -0.9018 -0.5688  0.2265
   25MOL   H200 9368   1.686   5.901   4.434 -0.3626  1.5916 -2.2492
   25MOL   H201 9369   1.430   6.049   4.396 -0.2356  3.0433 -0.9267
   25MOL   H202 9370   1.640   6.119   4.628 -0.0431 -0.3354 -0.3588
   25MOL   H203 9371   1.481   6.162   4.571  0.2075  1.6848  0.4540
   25MOL   H204 9372   1.725   6.344   4.550  0.3589 -0.0653  1.3586
   25MOL   H205 9373   1.557   6.367   4.477 -0.7305  0.1966  0.6460
   25MOL   H206 9374   1.634   6.362   4.772  0.1607 -2.2130 -0.1714
   25MOL   H207 9375   1.465   6.370   4.727 -0.3221  1.4572 -0.0182
   25MOL   H208 9376   1.537   6.579   4.785 -0.3947 -0.7097  0.2968
   25MOL   H209 9377   1.685   6.576   4.681 -0.9466  2.1944  0.6327
   25MOL   H210 9378   1.518   6.593   4.615 -4.2973  0.5963  3.1694
   25MOL   C211 9379   1.548   6.036   4.219  0.2761 -0.5022  0.7770
   25MOL   C212 9380   1.524   6.177   4.162 -0.4921 -0.4876  0.5356
   25MOL   O213 9381   1.539   6.166   4.022  0.6023  0.0567  0.5397
   25MOL   C214 9382   1.669   6.192   3.972  0.2474  0.1882  0.4438
   25MOL   C215 9383   1.683   6.201   3.818 -0.7852  0.3421  0.2170
   25MOL   C216 9384   1.583   6.286   3.740 -0.9644  0.1144 -0.1859
   25MOL   C217 9385   1.430   6.258   3.749 -0.6366 -0.4129  0.4493
   25MOL   H218 9386   1.479   5.967   4.169  0.6534  1.0937 -2.0499
   25MOL   H219 9387   1.651   6.006   4.204  0.3727  0.5877 -0.8306
   25MOL   H220 9388   1.596   6.246   4.207  0.8378  0.4624 -2.9471
   25MOL   H221 9389   1.699   6.286   4.018  0.1140 -0.3090  1.5600
   25MOL   H222 9390   1.748   6.136   4.023  0.9452 -1.6692 -2.5602
   25MOL   H223 9391   1.771   6.260   3.793 -0.8357  0.9892  1.5487
   25MOL   H224 9392   1.696   6.098   3.785 -1.1134  0.4895 -0.3805
   25MOL   H225 9393   1.606   6.278   3.634 -1.6504  0.2080 -0.3476
   25MOL   H226 9394   1.602   6.389   3.771 -1.0857  0.0097  0.2370
   25MOL   H227 9395   1.382   6.293   3.658  0.8197 -0.7937 -0.4696
   25MOL   H228 9396   1.379   6.307   3.833  0.9801  0.5870  0.8746
   25MOL   H229 9397   1.413   6.150   3.749  1.4787 -0.7725  1.5243
   25MOL   C230 9398   1.386   6.238   4.205 -0.5969 -0.0183 -0.4570
   25MOL   C231 9399   1.356   6.374   4.151 -0.0538 -0.4797 -0.2260
   25MOL   O232 9400   1.223   6.400   4.197 -0.2596 -0.6170 -0.1057
   25MOL   C233 9401   1.119   6.365   4.102 -0.4242  0.2097  0.2631
   25MOL   C234 9402   1.002   6.424   4.168 -0.2124  0.1406 -0.0711
   25MOL   C235 9403   0.983   6.572   4.141  0.0094 -0.5200  0.4069
   25MOL   C236 9404   0.874   6.634   4.230 -0.0734 -0.6628  0.7541
   25MOL   H237 9405   1.378   6.255   4.312 -0.3005 -0.9055 -0.2908
   25MOL   H238 9406   1.314   6.169   4.161  0.4089 -0.3841 -1.5628
   25MOL   H239 9407   1.357   6.362   4.042  1.8145  0.9122 -0.3857
   25MOL   H240 9408   1.129   6.421   4.009  1.1860  0.0068  0.2876
   25MOL   H241 9409   1.121   6.257   4.087  2.0319  0.0602  1.2717
   25MOL   H242 9410   0.913   6.373   4.132 -0.4366  0.1349  0.4882
   25MOL   H243 9411   1.003   6.395   4.273  0.6051  0.4889  0.0241
   25MOL   H244 9412   0.945   6.578   4.039  1.1907 -1.1763 -0.0843
   25MOL   H245 9413   1.073   6.634   4.145 -0.8870  0.7890  0.6517
   25MOL   H246 9414   0.785   6.573   4.213 -1.1705  1.0075  0.3915
   25MOL   H247 9415   0.842   6.735   4.206  0.3534 -1.0722 -1.6834
   25MOL   H248 9416   0.901   6.640   4.336  0.5679  0.9384  0.5108
   25MOL   C249 9417   1.440   6.496   4.203  0.2221 -0.3041 -0.3115
   25MOL   C250 9418   1.421   6.621   4.113 -0.2997  0.6339  0.1150
   25MOL   O251 9419   1.486   6.590   3.988 -0.0031  0.3467 -0.6054
   25MOL   C252 9420   1.401   6.586   3.870 -0.1708 -0.0788 -0.5076
   25MOL   C253 9421   1.378   6.732   3.818  0.5873 -0.4815  0.0293
   25MOL   C254 9422   1.281   6.729   3.701  0.2720  0.1170 -0.0379
   25MOL   C255 9423   1.244   6.866   3.652  0.3857  0.2905  0.5075
   25MOL   H256 9424   1.545   6.468   4.206  0.4070  0.2009 -1.5284
   25MOL   H257 9425   1.404   6.514   4.305 -2.0688 -1.7235 -0.8191
   25MOL   H258 9426   1.314   6.640   4.103 -1.1922 -3.6402  0.4993
   25MOL   H259 9427   1.308   6.536   3.899  0.2860 -1.9086 -2.1510
   25MOL   H260 9428   1.451   6.531   3.791  1.0753  2.0923 -1.2997
   25MOL   H261 9429   1.339   6.797   3.896  2.0645 -0.2155  0.5814
   25MOL   H262 9430   1.476   6.769   3.786  0.2172  0.5548  0.0863
   25MOL   H263 9431   1.320   6.674   3.615 -1.0571  2.7854 -2.4365
   25MOL   H264 9432   1.187   6.676   3.715 -0.3972  1.7395  1.7252
   25MOL   H265 9433   1.181   6.848   3.564  1.6436  1.2984 -0.6198
   25MOL   H266 9434   1.331   6.921   3.618  0.2896  1.1472  1.6372
   25MOL   H267 9435   1.177   6.909   3.726  0.2668  1.6937 -0.3988
   25MOL   C268 9436   1.481   6.761   4.154 -0.5589  0.6163 -0.3687
   25MOL   C269 9437   1.385   6.844   4.239  0.7736 -0.3956 -0.3834
   25MOL   O270 9438   1.459   6.950   4.295  0.1121 -0.5810 -0.4308
   25MOL   C271 9439   1.511   6.915   4.423  0.3883 -0.6707  0.4532
   25MOL   C272 9440   1.619   7.012   4.452  0.0593 -0.6351 -0.5098
   25MOL   C273 9441   1.741   6.994   4.349 -0.1042 -0.0594 -0.0261
   25MOL   C274 9442   1.860   7.103   4.353  0.0801 -0.0778 -0.4173
   25MOL   H275 9443   1.575   6.742   4.207 -1.0935  0.1702  0.4255
   25MOL   H276 9444   1.509   6.808   4.060 -1.4063  1.0989 -0.3797
   25MOL   H277 9445   1.340   6.785   4.319  0.5448  3.2212  2.2895
   25MOL   H278 9446   1.431   6.913   4.497 -1.1976 -0.7368 -1.2034
   25MOL   H279 9447   1.573   6.826   4.430  0.5837 -0.5278  0.5221
   25MOL   H280 9448   1.580   7.114   4.453  0.2708 -0.5691  0.8520
   25MOL   H281 9449   1.661   7.004   4.552 -0.1513  1.1561 -0.2496
   25MOL   H282 9450   1.699   6.985   4.249  2.1180  1.2038 -1.1156
   25MOL   H283 9451   1.789   6.898   4.363  0.6863 -0.1698 -3.1738
   25MOL   H284 9452   1.911   7.086   4.448  0.4486 -2.4703 -1.0241
   25MOL   H285 9453   1.828   7.207   4.350 -1.6293 -0.6172 -2.5421
   25MOL   H286 9454   1.936   7.085   4.277  0.9276  1.1231  0.1202
   25MOL   C287 9455   1.260   6.904   4.170  0.3674 -0.2095 -0.2068
   25MOL   C288 9456   1.170   6.992   4.261  0.2529 -0.8559 -0.3585
   25MOL   O289 9457   1.118   6.908   4.362 -0.1408  0.0032 -0.8445
   25MOL   C290 9458   1.104   6.966   4.490  0.0912  0.2428 -0.9386
   25MOL   C291 9459   1.090   6.863   4.597  0.0570  0.0549 -0.3141
   25MOL   C292 9460   1.213   6.783   4.626 -0.3281 -0.0296 -0.4848
   25MOL   C293 9461   1.189   6.666   4.724 -0.1475 -0.4399 -0.3593
   25MOL   H294 9462   1.197   6.837   4.111 -0.0172  0.6155 -0.7336
   25MOL   H295 9463   1.286   6.966   4.084 -0.2186 -1.5615 -1.3868
   25MOL   H296 9464   1.224   7.071   4.313 -1.0916  0.1863 -0.5015
   25MOL   H297 9465   1.193   7.025   4.512 -0.1408  0.5808 -0.9061
   25MOL   H298 9466   1.023   7.036   4.503  0.3337  0.4556 -0.5741
   25MOL   H299 9467   0.998   6.808   4.577 -0.3536  0.4785  0.3587
   25MOL   H300 9468   1.064   6.913   4.690  0.0193  0.7665 -0.7036
   25MOL   H301 9469   1.285   6.850   4.672  0.1093 -1.0130  0.2922
   25MOL   H302 9470   1.247   6.738   4.533 -1.4384 -1.6110 -0.1637
   25MOL   H303 9471   1.279   6.604   4.726 -0.8704 -1.5630 -1.5981
   25MOL   H304 9472   1.167   6.691   4.827  0.7717  0.7879 -0.4496
   25MOL   H305 9473   1.103   6.602   4.700 -0.0171 -0.6642 -0.2297
   25MOL   C306 9474   1.053   7.064   4.191 -0.2443  0.7449  0.6045
   25MOL   C307 9475   1.009   7.202   4.251 -0.2002 -0.7229  0.7516
   25MOL   O308 9476   0.893   7.244   4.179  0.3320  0.0490 -0.4092
   25MOL   C309 9477   0.778   7.203   4.250  0.5626  0.0909 -0.0232
   25MOL   C310 9478   0.639   7.255   4.205 -0.1534 -0.1205 -0.1412
   25MOL   C311 9479   0.519   7.192   4.276 -0.0625 -0.3114  0.0837
   25MOL   C312 9480   0.385   7.250   4.213 -0.5487 -0.3134 -0.5567
   25MOL   H313 9481   1.079   7.079   4.086  0.5052 -0.3971  0.6100
   25MOL   H314 9482   0.964   7.001   4.196 -1.1057  1.8137 -1.0245
   25MOL   H315 9483   0.997   7.197   4.359  1.4232  0.1393  0.9891
   25MOL   H316 9484   0.791   7.225   4.356 -0.9817 -0.8285  0.3646
   25MOL   H317 9485   0.783   7.094   4.255  2.0438  0.1162 -0.5943
   25MOL   H318 9486   0.631   7.216   4.104 -0.0187  0.5209 -0.3991
   25MOL   H319 9487   0.632   7.363   4.201  1.4241 -0.0007  0.0717
   25MOL   H320 9488   0.504   7.085   4.262  0.2935 -0.6489  2.1895
   25MOL   H321 9489   0.517   7.215   4.382  1.1582  1.2277 -0.2049
   25MOL   H322 9490   0.374   7.216   4.111  3.7489  0.8849 -1.5337
   25MOL   H323 9491   0.381   7.359   4.214 -0.6587 -0.3194 -0.0348
   25MOL   H324 9492   0.315   7.206   4.284 -0.5095  0.1125 -0.2467
   25MOL   C325 9493   1.118   7.318   4.224 -0.3760  0.2400  0.5768
   25MOL   C326 9494   1.097   7.445   4.305 -0.7139 -0.1763  0.2797
   25MOL   O327 9495   1.215   7.532   4.295 -0.3283 -0.0167 -0.6070
   25MOL   C328 9496   1.332   7.488   4.366  0.5305 -0.3082 -0.7389
   25MOL   C329 9497   1.434   7.589   4.357  0.4254 -0.7805  0.0250
   25MOL   C330 9498   1.391   7.734   4.385  1.1919  0.2897 -1.0771
   25MOL   C331 9499   1.497   0.033   4.398 -0.0881  0.3054  0.5887
   25MOL   H332 9500   1.123   7.339   4.117 -0.3246 -1.9827  0.1154
   25MOL   H333 9501   1.214   7.274   4.253 -1.5151 -1.5709  1.6729
   25MOL   H334 9502   1.091   7.415   4.410 -0.3430 -0.7919  0.1271
   25MOL   H335 9503   1.359   7.388   4.334  1.6383 -0.3421  0.2446
   25MOL   H336 9504   1.309   7.479   4.472  2.4558 -0.6311 -0.3191
   25MOL   H337 9505   1.504   7.562   4.436  5.1835  0.6791 -3.4999
   25MOL   H338 9506   1.490   7.590   4.264  0.2431  2.0043 -0.1028
   25MOL   H339 9507   1.336   7.739   4.480  0.2401  2.0949 -1.7018
   25MOL   H340 9508   1.313   7.765   4.315 -3.0189 -0.7421  2.8580
   25MOL   H341 9509   1.559   0.038   4.309 -1.1070 -0.3367 -0.1661
   25MOL   H342 9510   1.574   0.001   4.468 -0.3933  4.1764  2.8108
   25MOL   H343 9511   1.459   0.134   4.412 -0.9335  0.3344 -1.7216
   25MOL   C344 9512   0.980   7.538   4.259  0.1289 -0.3365 -0.1502
   25MOL   C345 9513   0.938   7.635   4.373  0.4695 -0.3747 -0.4126
   25MOL   O346 9514   0.840   7.716   4.311  0.5993 -0.4587  0.0983
   25MOL   C347 9515   0.710   7.687   4.360 -0.6873  0.2415  0.4219
   25MOL   C348 9516   0.612   7.776   4.292  0.1670  0.6150 -0.3642
   25MOL   C349 9517   0.588   7.752   4.149  1.0516 -0.0905  0.0446
   25MOL   C350 9518   0.470   0.028   4.084 -0.2473 -0.2236 -0.0065
   25MOL   H351 9519   0.999   7.595   4.168  0.7716 -0.5201 -0.1332
   25MOL   H352 9520   0.892   7.482   4.226  1.1615 -2.8406  1.2183
   25MOL   H353 9521   0.904   7.581   4.462 -1.6877 -0.7300 -1.4195
   25MOL   H354 9522   0.707   7.716   4.465 -0.4737 -0.9133  0.7580
   25MOL   H355 9523   0.689   7.581   4.342  0.8608  0.0536 -0.3921
   25MOL   H356 9524   0.622   0.082   4.299 -1.6677  0.7239  1.1271
   25MOL   H357 9525   0.516   7.758   4.340  0.7526  2.9537  1.7999
   25MOL   H358 9526   0.679   7.778   4.095  1.9433 -2.4048  0.3879
   25MOL   H359 9527   0.577   7.648   4.118 -0.8860  0.4111 -1.0193
   25MOL   H360 9528   0.491   0.132   4.061 -1.2756  0.6082  2.6528
   25MOL   H361 9529   0.383   0.022   4.149  0.1244  0.6795  0.5782
   25MOL   H362 9530   0.441   7.786   3.988 -1.3149  0.5840 -0.0586
   25MOL   C363 9531   1.041   7.740   4.425  0.1622 -0.2174  0.4077
   25MOL   C364 9532   0.966   0.048   4.507 -0.7376  0.5079 -0.0240
   25MOL   O365 9533   1.059   0.128   4.576 -0.0842  0.1257 -0.4351
   25MOL   C366 9534   1.150   0.203   4.496 -0.1466 -0.2834 -0.1142
   25MOL   C367 9535   1.221   0.306   4.580 -0.5746  0.1620 -0.3967
   25MOL   C368 9536   1.147   0.433   4.613 -0.5792  0.1971  0.2359
   25MOL   C369 9537   1.238   0.540   4.669  0.3827 -0.6344  0.6306
   25MOL   H370 9538   1.089   7.790   4.341  0.3964 -0.5831  0.3224
   25MOL   H371 9539   1.124   7.697   4.482  0.6119 -2.1738 -1.6376
   25MOL   H372 9540   0.894   7.800   4.573 -0.4099  1.0657  0.7592
   25MOL   H373 9541   1.096   0.250   4.414  0.2054 -0.6175 -0.5380
   25MOL   H374 9542   1.224   0.149   4.437  1.6322  0.7401  1.1128
   25MOL   H375 9543   1.299   0.338   4.510  0.1978  0.7511  0.7052
   25MOL   H376 9544   1.273   0.257   4.663 -0.2991 -3.1302 -2.4489
   25MOL   H377 9545   1.077   0.407   4.693 -0.0365  1.3927  1.1218
   25MOL   H378 9546   1.083   0.472   4.534 -1.4235 -0.1187  0.7615
   25MOL   H379 9547   1.201   0.637   4.636 -0.1712 -1.6846 -1.9040
   25MOL   H380 9548   1.253   0.541   4.777  0.5893  1.4249  0.6178
   25MOL   H381 9549   1.340   0.527   4.631 -0.5239  0.1763 -2.1599
   25MOL   H382 9550   0.920   0.112   4.433  0.5360  0.6859 -0.6640
   26MOL     C1 9551   1.541   3.681   6.920  0.1835  0.3074  1.0471
   26MOL     C2 9552   1.669   3.604   6.933  0.0919  0.8023 -0.4104
   26MOL     O3 9553   1.758   3.696   6.864 -0.0785  0.2692  0.0802
   26MOL     C4 9554   1.828   3.638   6.754  0.4970  0.3884  0.0291
   26MOL     C5 9555   1.928   3.747   6.708  0.3671  0.3268 -0.2978
   26MOL     C6 9556   2.013   3.720   6.579 -0.6032 -0.0794  0.3693
   26MOL     C7 9557   2.103   3.835   6.552 -0.6127 -0.3216  0.7607
   26MOL     H8 9558   1.518   3.710   6.818  2.1230  0.2389  0.5827
   26MOL     H9 9559   1.460   3.619   6.961  0.4089 -1.4820 -1.1230
   26MOL    H10 9560   1.665   3.512   6.874  2.7742 -0.5748  1.4354
   26MOL    H11 9561   1.887   3.551   6.784  0.7172  1.4808  2.8765
   26MOL    H12 9562   1.769   3.610   6.666 -0.7585 -0.4144  1.0965
   26MOL    H13 9563   1.997   3.761   6.792  1.1971 -1.5617 -0.6410
   26MOL    H14 9564   1.864   3.836   6.702 -2.0282 -0.9783  3.5570
   26MOL    H15 9565   1.945   3.709   6.494  1.4755 -0.3937 -1.3072
   26MOL    H16 9566   2.070   3.628   6.585  1.6182  1.0190 -2.5960
   26MOL    H17 9567   2.188   3.856   6.618  0.2444  1.2734 -0.7999
   26MOL    H18 9568   2.045   3.927   6.550 -1.6484 -0.9745  0.7507
   26MOL    H19 9569   2.150   3.817   6.455  1.6281  0.6081  1.6420
   26MOL    H20 9570   1.546   3.776   6.973  0.7903  0.1457  1.2848
   26MOL    C21 9571   1.708   3.588   7.083 -0.0225 -0.4265 -0.4205
   26MOL    C22 9572   1.828   3.497   7.122  0.8401  0.3627  0.7661
   26MOL    O23 9573   1.858   3.487   7.261  0.3141 -0.3854 -0.0803
   26MOL    C24 9574   1.887   3.606   7.333  0.3599  0.1151  0.0656
   26MOL    C25 9575   1.930   3.566   7.475  0.5244 -1.0509 -0.0214
   26MOL    C26 9576   1.836   3.488   7.568 -0.2567  0.1736  0.0853
   26MOL    C27 9577   1.896   3.428   7.692 -0.3128  0.1797  0.4079
   26MOL    H28 9578   1.626   3.549   7.145  0.1239 -2.0471 -1.2188
   26MOL    H29 9579   1.729   3.686   7.124  0.1479 -0.6247 -0.0303
   26MOL    H30 9580   1.918   3.531   7.071  1.0974 -0.7569  0.4466
   26MOL    H31 9581   1.802   3.674   7.345  0.4906  0.2856  0.0318
   26MOL    H32 9582   1.972   3.654   7.284  2.0989 -0.7834  2.1160
   26MOL    H33 9583   2.015   3.498   7.463  1.2814 -0.8004  3.4523
   26MOL    H34 9584   1.964   3.652   7.532  0.1577 -1.4491  0.8060
   26MOL    H35 9585   1.759   3.560   7.596  0.8942  1.2327  0.5975
   26MOL    H36 9586   1.781   3.416   7.507  2.0183 -1.2330 -0.3590
   26MOL    H37 9587   1.935   3.506   7.757 -0.3443  2.9353 -2.7593
   26MOL    H38 9588   1.822   3.381   7.757 -0.0708 -1.0169 -0.1628
   26MOL    H39 9589   1.973   3.351   7.689  1.1555  1.5896  0.9259
   26MOL    C40 9590   1.815   3.344   7.081 -0.2285 -0.1010 -0.1948
   26MOL    C41 9591   1.947   3.270   7.074  0.2533 -0.3899  0.2685
   26MOL    O42 9592   1.994   3.292   6.941  0.0660 -0.0003 -0.1320
   26MOL    C43 9593   2.131   3.323   6.922  0.0442 -0.0768 -0.1540
   26MOL    C44 9594   2.167   3.466   6.959  0.8447  0.6012 -0.1344
   26MOL    C45 9595   2.302   3.500   6.910 -0.4184  0.2040 -0.1851
   26MOL    C46 9596   2.346   3.649   6.907  0.8515 -0.3099 -0.6266
   26MOL    H47 9597   1.764   3.347   6.984 -0.2115  0.7047 -0.1822
   26MOL    H48 9598   1.756   3.291   7.155  0.0844  0.8338  0.7254
   26MOL    H49 9599   2.015   3.302   7.153  0.7850 -0.1977 -0.2554
   26MOL    H50 9600   2.154   3.285   6.822 -0.2623  0.0248 -0.2621
   26MOL    H51 9601   2.198   3.257   6.977  0.7426  1.1853  0.5353
   26MOL    H52 9602   2.152   3.485   7.065 -0.7995  0.8739 -0.4029
   26MOL    H53 9603   2.097   3.526   6.901  0.9685  0.1820 -0.7212
   26MOL    H54 9604   2.316   3.454   6.812 -1.2533  1.1861 -0.7801
   26MOL    H55 9605   2.375   3.446   6.969  1.7128  1.7256 -1.3322
   26MOL    H56 9606   2.454   3.659   6.903  0.9789 -0.3777  1.9032
   26MOL    H57 9607   2.312   3.709   6.822  2.4377  1.7186  0.1433
   26MOL    H58 9608   2.317   3.715   6.989  1.1032  1.3140 -1.8176
   26MOL    C59 9609   1.923   3.125   7.089 -0.2529  0.1006  0.3128
   26MOL    C60 9610   2.040   3.036   7.046  0.6487  0.0973  0.2905
   26MOL    O61 9611   2.163   3.062   7.116 -0.1009 -0.3792  0.2947
   26MOL    C62 9612   2.143   3.066   7.253 -0.3344  0.2519  0.4497
   26MOL    C63 9613   2.277   3.041   7.311 -0.7192 -0.1881 -1.0246
   26MOL    C64 9614   2.274   3.004   7.464  0.2655  0.1434  0.1769
   26MOL    C65 9615   2.411   2.977   7.519  0.0800  0.0676 -0.6654
   26MOL    H66 9616   1.893   3.109   7.193 -0.5528 -0.2346  0.1716
   26MOL    H67 9617   1.838   3.101   7.025 -0.5481  0.1605  0.6770
   26MOL    H68 9618   2.057   3.055   6.940  0.6670  0.9253  0.4383
   26MOL    H69 9619   2.078   2.991   7.298 -0.7202 -1.1443 -2.3506
   26MOL    H70 9620   2.102   3.160   7.290 -0.5905  0.1609  0.3983
   26MOL    H71 9621   2.336   2.960   7.267  0.5577 -0.4616  1.0951
   26MOL    H72 9622   2.340   3.128   7.297 -1.3393  0.2422 -1.1324
   26MOL    H73 9623   2.236   3.085   7.525 -0.3498  0.2011 -0.2839
   26MOL    H74 9624   2.203   2.923   7.480  1.0150 -0.7658 -0.9528
   26MOL    H75 9625   2.482   2.908   7.473  0.1708  0.6234 -1.3585
   26MOL    H76 9626   2.465   3.070   7.532  1.7123 -0.7017 -1.7554
   26MOL    H77 9627   2.395   2.946   7.622 -1.1912 -0.8085 -1.1146
   26MOL    C78 9628   2.004   2.885   7.045 -0.2912  0.4920  0.4918
   26MOL    C79 9629   2.119   2.795   6.992 -0.8094  0.1019  0.3792
   26MOL    O80 9630   2.120   2.825   6.851 -0.3621  0.7969 -0.1039
   26MOL    C81 9631   2.236   2.787   6.787  0.1060  0.2070  0.2528
   26MOL    C82 9632   2.207   2.814   6.640 -0.2051 -0.1803 -0.0198
   26MOL    C83 9633   2.117   2.712   6.575  0.0329  0.6002 -0.3633
   26MOL    C84 9634   2.088   2.727   6.420 -0.4576  0.3279 -0.2371
   26MOL    H85 9635   1.909   2.869   6.994 -0.3510  3.6968 -0.5135
   26MOL    H86 9636   1.992   2.856   7.149 -1.2875  1.7401  0.7364
   26MOL    H87 9637   2.219   2.822   7.026 -0.6892 -0.1704  0.2412
   26MOL    H88 9638   2.266   2.684   6.806  0.5825  0.3602  0.3298
   26MOL    H89 9639   2.324   2.843   6.816 -0.5373  1.4049 -0.0663
   26MOL    H90 9640   2.175   2.917   6.624  0.7908  0.0077 -0.8592
   26MOL    H91 9641   2.300   2.819   6.584  0.9429 -1.1248  1.7637
   26MOL    H92 9642   2.019   2.725   6.622 -0.8130 -4.8139 -0.2057
   26MOL    H93 9643   2.160   2.612   6.585  1.6024  1.1113 -1.9845
   26MOL    H94 9644   2.056   2.827   6.388  0.7797  0.3562 -1.4084
   26MOL    H95 9645   2.171   2.701   6.355 -0.7496 -0.1522 -0.4183
   26MOL    H96 9646   2.018   2.651   6.385 -1.5149  0.3893  1.6940
   26MOL    C97 9647   2.095   2.646   7.009 -0.4807  0.3476  0.5619
   26MOL    C98 9648   2.128   2.609   7.150  0.4583 -0.4608 -0.0725
   26MOL    O99 9649   2.039   2.498   7.172  0.4307 -0.3446 -0.0978
   26MOL   C100 9650   1.912   2.530   7.220 -0.2722 -0.0773 -0.6216
   26MOL   C101 9651   1.828   2.398   7.217 -0.0703 -0.1437  0.6182
   26MOL   C102 9652   1.888   2.291   7.298  0.3983 -0.5089 -0.2056
   26MOL   C103 9653   1.807   2.160   7.319 -0.0457 -0.3053 -0.1402
   26MOL   H104 9654   2.152   2.582   6.943 -0.3507  2.4266 -1.4104
   26MOL   H105 9655   1.992   2.617   6.988  0.1905 -1.1922 -0.6828
   26MOL   H106 9656   2.126   2.684   7.230  1.3550  1.8253 -2.1250
   26MOL   H107 9657   1.859   2.608   7.166 -1.0379  0.0815  0.3366
   26MOL   H108 9658   1.920   2.570   7.321  0.3767  0.2314 -0.7943
   26MOL   H109 9659   1.820   2.354   7.118  0.3374 -0.3598  0.6800
   26MOL   H110 9660   1.730   2.419   7.260 -0.3266 -1.3050  0.6151
   26MOL   H111 9661   1.912   2.324   7.399  0.0361 -1.1006  0.0760
   26MOL   H112 9662   1.984   2.259   7.256  0.8921  1.0660 -0.3056
   26MOL   H113 9663   1.785   2.097   7.233 -0.7225 -0.9193  0.4707
   26MOL   H114 9664   1.862   2.101   7.392 -1.0432  1.6840  2.3010
   26MOL   H115 9665   1.711   2.181   7.367 -0.5976 -2.2371 -0.3631
   26MOL   C116 9666   2.273   2.540   7.161 -0.0760  0.1517 -0.3640
   26MOL   C117 9667   2.312   2.487   7.303  0.0929  0.4411  0.3635
   26MOL   O118 9668   2.415   2.394   7.288 -0.5731  0.4936  0.3848
   26MOL   C119 9669   2.376   2.263   7.248  0.1248  0.0089 -0.2228
   26MOL   C120 9670   2.500   2.175   7.245  0.2374  0.4975 -0.5514
   26MOL   C121 9671   2.465   2.027   7.212 -0.4576 -0.4264  0.0157
   26MOL   C122 9672   2.591   1.938   7.212  0.1134  0.2629 -0.4964
   26MOL   H123 9673   2.263   2.448   7.104  0.9918 -1.7596  2.3788
   26MOL   H124 9674   2.348   2.604   7.114 -0.8462  0.6773 -0.8909
   26MOL   H125 9675   2.226   2.448   7.357  0.3766  0.9786  1.2032
   26MOL   H126 9676   2.339   2.253   7.146  2.4062 -1.5017 -0.9669
   26MOL   H127 9677   2.313   2.221   7.326 -0.9030 -0.2995 -1.2125
   26MOL   H128 9678   2.555   2.189   7.338 -1.8607  0.2356  0.7767
   26MOL   H129 9679   2.571   2.203   7.167  1.3779 -0.8848 -0.0351
   26MOL   H130 9680   2.390   1.989   7.282 -0.8476 -0.4900 -0.4329
   26MOL   H131 9681   2.412   2.026   7.117 -0.2093 -1.0887 -0.1143
   26MOL   H132 9682   2.665   1.955   7.134 -1.0074  0.1447 -1.6024
   26MOL   H133 9683   2.567   1.831   7.216  0.5218  0.1941  0.2446
   26MOL   H134 9684   2.641   1.958   7.307 -3.0728  0.5905  1.1980
   26MOL   C135 9685   2.375   2.609   7.385  0.0157  0.2603 -0.1052
   26MOL   C136 9686   2.398   2.574   7.537 -0.0104  0.3777  0.7618
   26MOL   O137 9687   2.510   2.638   7.591  0.0699 -0.5338 -0.5267
   26MOL   C138 9688   2.634   2.607   7.534 -0.4291  0.0663  0.3408
   26MOL   C139 9689   2.738   2.590   7.647 -0.5038 -0.0549 -0.1047
   26MOL   C140 9690   2.702   2.465   7.729  0.3065 -0.0499  0.0556
   26MOL   C141 9691   2.786   2.452   0.050 -0.2598  0.2905 -1.0210
   26MOL   H142 9692   2.317   2.700   7.368  0.5080  0.7398  0.7483
   26MOL   H143 9693   2.467   2.632   7.333 -0.8558 -0.2088 -1.9138
   26MOL   H144 9694   2.415   2.467   7.540 -1.9984  0.0953  3.1626
   26MOL   H145 9695   2.651   2.681   7.457 -1.3624 -0.4044 -0.3281
   26MOL   H146 9696   2.639   2.514   7.477 -3.2979 -1.5301  2.5293
   26MOL   H147 9697   2.746   2.682   7.703  4.1838 -1.2547  1.3590
   26MOL   H148 9698   2.832   2.588   7.591 -0.6726  1.7798 -0.4941
   26MOL   H149 9699   2.595   2.469   7.750  0.3349  0.1105  0.1698
   26MOL   H150 9700   2.731   2.381   7.666  1.0945 -0.2574  0.6867
   26MOL   H151 9701   2.893   2.470   0.043 -0.2677  0.3236 -1.0467
   26MOL   H152 9702   2.729   2.499   0.130  0.1781  0.6905 -0.9469
   26MOL   H153 9703   2.781   2.347   0.080 -0.3703  0.0199 -1.9709
   26MOL   C154 9704   2.277   2.594   7.633  0.2195 -1.0488 -0.0948
   26MOL   C155 9705   2.277   2.487   7.745  0.4995 -0.0561 -0.0228
   26MOL   O156 9706   2.252   2.358   7.682 -0.5011 -0.3226 -0.0880
   26MOL   C157 9707   2.298   2.248   7.749 -0.9659 -0.0095  0.7421
   26MOL   C158 9708   2.291   2.126   7.664  0.8295  0.5186  0.2689
   26MOL   C159 9709   2.143   2.084   7.618 -0.3196 -0.8491  0.5151
   26MOL   C160 9710   2.136   1.957   7.543  0.5134 -0.0304 -0.9998
   26MOL   H161 9711   2.181   2.589   7.582 -0.6119  0.8286  1.2469
   26MOL   H162 9712   2.279   2.696   7.671  1.2582 -0.8499 -0.6538
   26MOL   H163 9713   2.371   2.498   7.798  1.2531 -4.5720 -0.2890
   26MOL   H164 9714   2.401   2.274   7.773 -1.2460  0.8547  1.0571
   26MOL   H165 9715   2.252   2.240   0.046 -1.8907 -0.9008  0.2396
   26MOL   H166 9716   2.320   2.049   7.735  0.2644 -0.6741 -0.7772
   26MOL   H167 9717   2.363   2.133   7.582  1.3694  1.1792  0.7934
   26MOL   H168 9718   2.078   2.077   7.705 -0.7197 -0.0434  0.2898
   26MOL   H169 9719   2.103   2.157   7.548 -0.2735 -0.9137  0.4212
   26MOL   H170 9720   2.188   1.958   7.448  1.0971 -0.0641 -0.6844
   26MOL   H171 9721   2.182   1.883   7.609  2.1741  2.3922  0.6434
   26MOL   H172 9722   2.030   1.941   7.525 -0.5939  3.3128  1.8718
   26MOL   C173 9723   2.156   2.507   0.044 -0.8658 -0.3102 -0.5624
   26MOL   C174 9724   2.187   2.509   0.196 -0.0774 -0.1588 -0.3787
   26MOL   O175 9725   2.257   2.630   0.230 -0.9583 -1.0697  0.4929
   26MOL   C176 9726   2.383   2.613   0.301 -0.4334 -0.6510  0.1037
   26MOL   C177 9727   2.481   2.727   0.273  0.0685  0.2834 -1.0100
   26MOL   C178 9728   2.538   2.739   0.134  0.3206  0.3441  0.4312
   26MOL   C179 9729   2.640   2.854   0.130 -0.0659  0.5681  0.7331
   26MOL   H180 9730   2.072   2.439   0.027 -1.3052  0.2661 -0.7358
   26MOL   H181 9731   2.119   2.606   0.017  0.7770  0.1567 -1.1383
   26MOL   H182 9732   2.252   2.426   0.221 -0.8017 -0.1880  1.5000
   26MOL   H183 9733   2.424   2.516   0.273 -0.3747 -0.9714  1.2380
   26MOL   H184 9734   2.373   2.602   0.409  0.2309 -2.0131  0.0273
   26MOL   H185 9735   2.568   2.714   0.338 -1.1740  2.0234  1.0550
   26MOL   H186 9736   2.428   2.810   0.318  2.1811  0.5491  1.0436
   26MOL   H187 9737   2.585   2.646   0.102 -0.4559  0.6996 -1.8705
   26MOL   H188 9738   2.455   2.757   0.066  1.4078  1.5953 -0.6207
   26MOL   H189 9739   2.686   2.849   0.031 -2.5634  1.6903 -0.5091
   26MOL   H190 9740   2.592   2.952   0.127 -0.8479  0.1729  0.0952
   26MOL   H191 9741   2.717   2.845   0.207  0.7101 -0.2892 -0.1234
   26MOL   C192 9742   2.062   2.496   0.285  0.9224  0.2862 -0.3870
   26MOL   C193 9743   1.955   2.606   0.273  0.2293 -0.0946 -0.0156
   26MOL   O194 9744   1.863   2.563   0.171 -0.0130 -0.0376  0.5600
   26MOL   C195 9745   1.793   2.659   0.090  0.0006  0.0195 -0.2135
   26MOL   C196 9746   1.716   2.599   7.772  0.0648  0.8929  0.5846
   26MOL   C197 9747   1.796   2.525   7.666  0.3845 -0.0970  0.9232
   26MOL   C198 9748   1.708   2.494   7.547 -0.0291  0.4506 -0.1945
   26MOL   H199 9749   2.083   2.496   0.392 -3.1880  2.7034  0.5001
   26MOL   H200 9750   2.015   2.398   0.278  1.8942 -0.1123 -1.4913
   26MOL   H201 9751   2.004   2.696   0.236 -0.8281  0.3591 -0.3574
   26MOL   H202 9752   1.863   2.733   0.052 -1.7280  0.6711 -2.2376
   26MOL   H203 9753   1.722   2.717   0.149  1.3904  0.1661  1.3294
   26MOL   H204 9754   1.634   2.543   0.015  1.4737 -0.4546  1.5068
   26MOL   H205 9755   1.667   2.682   7.720  0.7348  0.7490 -0.2660
   26MOL   H206 9756   1.841   2.434   7.707  0.7157 -0.9684 -1.2948
   26MOL   H207 9757   1.882   2.582   7.631  0.1811 -1.3861 -1.7672
   26MOL   H208 9758   1.725   2.390   7.518  0.0659  0.6136 -0.7262
   26MOL   H209 9759   1.601   2.507   7.561 -0.0814  0.4635 -0.6091
   26MOL   H210 9760   1.737   2.551   7.459 -1.5304  4.2156  1.6271
   26MOL   C211 9761   1.869   2.643   0.398  0.1400 -0.1711 -0.0423
   26MOL   C212 9762   1.944   2.732   0.503  0.2442  0.4825  0.2852
   26MOL   O213 9763   1.985   2.850   0.437 -0.1073  0.3648  0.3393
   26MOL   C214 9764   2.127   2.872   0.438  0.2886  0.5325 -0.0507
   26MOL   C215 9765   2.179   2.996   0.366  0.3488  0.9955 -0.1215
   26MOL   C216 9766   2.178   2.989   0.215  0.7317 -0.0951  0.1701
   26MOL   C217 9767   2.198   3.123   0.151  0.0607 -0.3374 -0.3257
   26MOL   H218 9768   1.843   2.556   0.457 -2.0982 -0.7016 -1.7362
   26MOL   H219 9769   1.777   2.692   0.366 -0.5432 -1.3202  0.1794
   26MOL   H220 9770   2.028   2.678   0.547 -0.3285 -1.3430 -0.7775
   26MOL   H221 9771   2.150   2.885   0.544  0.7539 -0.1916 -0.0566
   26MOL   H222 9772   2.179   2.783   0.401 -2.0724 -1.3711  1.0835
   26MOL   H223 9773   2.108   3.075   0.390 -0.4667  0.9296 -2.2773
   26MOL   H224 9774   2.281   3.017   0.398  0.2275  0.6077  0.5411
   26MOL   H225 9775   2.076   2.956   0.193  1.0993 -1.2566  0.1832
   26MOL   H226 9776   2.251   2.918   0.177  2.2693  1.3370  0.3702
   26MOL   H227 9777   2.147   3.205   0.202  0.4071 -0.2989 -0.0394
   26MOL   H228 9778   2.170   3.131   0.046 -0.8497 -0.6751 -0.1144
   26MOL   H229 9779   2.305   3.143   0.157  0.3293 -1.5019 -1.1054
   26MOL   C230 9780   1.854   2.779   0.620 -0.4754 -0.1454 -0.0344
   26MOL   C231 9781   1.821   2.678   0.733 -0.4065  0.0827  0.5413
   26MOL   O232 9782   1.933   2.678   0.815 -0.0649 -0.1176  0.1378
   26MOL   C233 9783   1.978   2.546   0.847  0.5670  0.3768  0.0253
   26MOL   C234 9784   2.117   2.558   0.914 -0.1092  0.2038  0.7357
   26MOL   C235 9785   2.109   2.638   1.047  0.4861  0.6924  0.3334
   26MOL   C236 9786   2.241   2.668   1.109 -0.5561  0.0040  0.0438
   26MOL   H237 9787   1.761   2.817   0.578 -0.2964  1.1351  0.7251
   26MOL   H238 9788   1.903   2.866   0.663  0.0736  0.2600 -1.4524
   26MOL   H239 9789   1.809   2.581   0.684  1.4384 -0.7009  1.5821
   26MOL   H240 9790   1.911   2.494   0.915  1.5996 -1.4254 -0.3084
   26MOL   H241 9791   1.992   2.496   0.751 -2.4202 -1.0866  0.2590
   26MOL   H242 9792   2.142   2.455   0.938 -0.7622 -0.3218 -0.7786
   26MOL   H243 9793   2.193   2.611   0.856 -1.0504 -0.9203 -1.5894
   26MOL   H244 9794   2.036   2.599   1.119  1.8510 -1.6358  0.5075
   26MOL   H245 9795   2.069   2.736   1.024 -0.5726  0.4452  1.0676
   26MOL   H246 9796   2.225   2.735   1.193 -0.6398 -1.2606  1.0560
   26MOL   H247 9797   2.312   2.721   1.045  0.3865  1.6119  2.3620
   26MOL   H248 9798   2.286   2.576   1.147  1.2661  0.9378  0.2322
   26MOL   C249 9799   1.699   2.727   0.814 -0.1139 -0.3285 -0.1577
   26MOL   C250 9800   1.623   2.611   0.894  0.0596  0.4971 -0.3987
   26MOL   O251 9801   1.559   2.533   0.796  0.1952  0.9243  0.1112
   26MOL   C252 9802   1.608   2.402   0.789  0.6680 -0.3749  0.7869
   26MOL   C253 9803   1.503   2.292   0.813 -0.2707  0.4155 -0.2959
   26MOL   C254 9804   1.546   2.151   0.768  0.1358  0.5912  0.4755
   26MOL   C255 9805   1.475   2.032   0.838  0.8532  0.6272  0.7917
   26MOL   H256 9806   1.614   2.756   0.753  0.7526  4.4235  0.6603
   26MOL   H257 9807   1.721   2.818   0.871  0.1205  0.1118 -0.9410
   26MOL   H258 9808   1.683   2.559   0.968 -1.7904  0.0726  0.8545
   26MOL   H259 9809   1.698   2.385   0.848 -1.1823  0.0561  3.8212
   26MOL   H260 9810   1.632   2.378   0.685  0.5279 -0.2346  0.7208
   26MOL   H261 9811   1.487   2.307   0.920 -0.4991  1.6871 -0.5053
   26MOL   H262 9812   1.421   2.327   0.751 -0.1372 -0.6127 -1.0793
   26MOL   H263 9813   1.516   2.131   0.665  0.2840  1.4853  0.2516
   26MOL   H264 9814   1.653   2.132   0.779 -0.4553 -1.6521  2.6870
   26MOL   H265 9815   1.519   1.933   0.824  1.4780  1.2911 -2.4328
   26MOL   H266 9816   1.382   2.024   0.783  0.4647  4.3405  0.7723
   26MOL   H267 9817   1.444   2.043   0.941 -0.8206 -1.4591  0.5548
   26MOL   C268 9818   1.503   2.655   0.971 -0.0781  0.6604  0.4532
   26MOL   C269 9819   1.543   2.751   1.094 -0.3779  0.1126  0.2453
   26MOL   O270 9820   1.436   2.837   1.125 -0.0823 -0.0887  0.2503
   26MOL   C271 9821   1.469   2.968   1.101  0.5584  0.0980  0.1946
   26MOL   C272 9822   1.356   3.067   1.083  0.7743 -0.6011  0.4688
   26MOL   C273 9823   1.262   3.073   1.210 -0.5480  0.1993 -0.0006
   26MOL   C274 9824   1.185   3.204   1.228 -0.2614 -0.1838 -0.8065
   26MOL   H275 9825   1.446   2.724   0.908  0.2672  1.0329  0.5536
   26MOL   H276 9826   1.438   2.572   1.001  0.5739  0.9010  2.5811
   26MOL   H277 9827   1.637   2.803   1.076  0.3765 -0.9479  1.0455
   26MOL   H278 9828   1.528   3.003   1.185 -2.4383  2.1365  1.5055
   26MOL   H279 9829   1.526   2.975   1.007 -2.2601  3.0504 -1.3900
   26MOL   H280 9830   1.400   3.166   1.079  0.9521 -0.4892  3.6903
   26MOL   H281 9831   1.304   3.044   0.990  1.4835 -2.1379  0.4312
   26MOL   H282 9832   1.330   3.072   1.295 -0.1923 -0.0113 -0.2887
   26MOL   H283 9833   1.193   2.989   1.217  0.5706 -0.5782  1.8982
   26MOL   H284 9834   1.156   3.215   1.332  0.7990  1.6388 -0.6848
   26MOL   H285 9835   1.099   3.218   1.162 -2.1145  2.0338  1.9810
   26MOL   H286 9836   1.246   3.292   1.208 -1.0923  0.6863  0.4394
   26MOL   C287 9837   1.572   2.663   1.224 -0.2123  0.2682  0.0816
   26MOL   C288 9838   1.454   2.579   1.268  0.4203 -0.9182 -0.1941
   26MOL   O289 9839   1.437   2.590   1.412  0.5686 -0.3270 -0.1907
   26MOL   C290 9840   1.370   2.705   1.464 -0.2690  0.4144 -0.6015
   26MOL   C291 9841   1.409   2.711   1.608  0.4486 -0.1306  0.4360
   26MOL   C292 9842   1.343   2.592   1.697  0.0926 -0.6510  0.0669
   26MOL   C293 9843   1.399   2.567   1.838  0.2128  0.5899  0.3875
   26MOL   H294 9844   1.584   2.739   1.301  0.0959 -0.2337  0.5279
   26MOL   H295 9845   1.662   2.603   1.231 -1.6194 -1.5350  5.3308
   26MOL   H296 9846   1.367   2.629   1.224  0.0358  0.0280  1.5863
   26MOL   H297 9847   1.404   2.804   1.434  0.4047  0.5712  0.6350
   26MOL   H298 9848   1.262   2.700   1.452 -0.3161 -2.2131  0.5168
   26MOL   H299 9849   1.383   2.807   1.653 -1.0805 -0.7967  1.0243
   26MOL   H300 9850   1.518   2.702   1.609  0.3699 -1.2709 -0.6853
   26MOL   H301 9851   1.363   2.496   1.650 -1.0466  0.3546 -2.6072
   26MOL   H302 9852   1.234   2.593   1.699  0.0885 -0.0217 -0.1934
   26MOL   H303 9853   1.366   2.470   1.876  1.3190 -1.5973 -3.9226
   26MOL   H304 9854   1.507   2.558   1.833  0.2551  0.9483  0.6878
   26MOL   H305 9855   1.364   2.650   1.899  0.6394  0.1133  1.2774
   26MOL   C306 9856   1.477   2.429   1.243  0.9665  0.3714  0.0534
   26MOL   C307 9857   1.359   2.336   1.264 -0.4347  0.3375  0.0303
   26MOL   O308 9858   1.395   2.198   1.229  0.4032  0.8449 -0.1242
   26MOL   C309 9859   1.484   2.130   1.319 -0.0908 -0.8046  0.4960
   26MOL   C310 9860   1.531   2.014   1.240  0.0809  0.8537  0.1524
   26MOL   C311 9861   1.627   1.914   1.304  0.5426  0.4559  0.5671
   26MOL   C312 9862   1.647   1.789   1.223 -0.0260 -0.1923  0.4716
   26MOL   H313 9863   1.496   2.411   1.137 -1.5681 -2.5720  0.0442
   26MOL   H314 9864   1.567   2.398   1.296  0.4215 -0.8394  0.2793
   26MOL   H315 9865   1.327   2.316   1.366  1.0928  0.1538  0.4833
   26MOL   H316 9866   1.431   2.093   1.407  0.8710  0.4803  1.6341
   26MOL   H317 9867   1.566   2.195   1.349  1.1184 -1.2073 -1.8917
   26MOL   H318 9868   1.576   2.040   1.144  0.0747 -0.8353 -0.3287
   26MOL   H319 9869   1.441   1.957   1.218  1.1368 -0.7721 -0.1438
   26MOL   H320 9870   1.725   1.960   1.311  0.5924  0.1497  1.9922
   26MOL   H321 9871   1.601   1.893   1.408  0.8288  1.2421  0.8000
   26MOL   H322 9872   1.678   1.815   1.122 -0.9421 -2.4700 -0.4279
   26MOL   H323 9873   1.558   1.726   1.223 -0.8388  0.9555 -0.8634
   26MOL   H324 9874   1.721   1.716   1.258  1.9586  1.1254 -0.8917
   26MOL   C325 9875   1.237   2.384   1.185  0.4635  0.8612 -0.1813
   26MOL   C326 9876   1.115   2.290   1.189 -0.2740  0.3225 -0.2164
   26MOL   O327 9877   1.076   2.271   1.323  0.5227  0.2169  1.0365
   26MOL   C328 9878   1.089   2.135   1.369  0.9013 -0.2609 -0.8070
   26MOL   C329 9879   1.059   2.136   1.524  0.8060 -0.2647 -0.2136
   26MOL   C330 9880   1.178   2.208   1.594 -0.0488  0.1512  0.2686
   26MOL   C331 9881   1.161   2.244   1.741 -0.4297  0.1511 -0.2686
   26MOL   H332 9882   1.259   2.398   1.079  2.6915 -1.2517 -0.0555
   26MOL   H333 9883   1.201   2.478   1.227 -2.4753 -0.0880 -0.4848
   26MOL   H334 9884   1.155   2.198   1.147  1.1613 -0.6839  3.1754
   26MOL   H335 9885   1.186   2.087   1.353  0.8441 -0.7751  0.2964
   26MOL   H336 9886   1.025   2.074   1.305 -1.1613 -0.3628  1.2765
   26MOL   H337 9887   0.965   2.186   1.546  0.0730 -0.2211 -3.1351
   26MOL   H338 9888   1.044   2.032   1.553  0.7681 -0.3265 -0.4499
   26MOL   H339 9889   1.207   2.301   1.546  2.6553  0.1560  1.8021
   26MOL   H340 9890   1.260   2.138   1.577 -0.0741  0.7381 -2.4199
   26MOL   H341 9891   1.255   2.283   1.780 -0.2378 -0.0967 -0.4775
   26MOL   H342 9892   1.124   2.164   1.806 -1.5046  0.4715 -0.4785
   26MOL   H343 9893   1.096   2.331   1.748  0.4962  0.7349  1.3985
   26MOL   C344 9894   0.998   2.338   1.102 -0.1934  0.3158 -0.1355
   26MOL   C345 9895   0.889   2.236   1.070  0.5169  0.0929 -0.5402
   26MOL   O346 9896   0.952   2.145   0.976  0.0105  0.4906 -0.2602
   26MOL   C347 9897   0.906   2.014   1.008 -0.2438  0.7375 -0.1176
   26MOL   C348 9898   0.976   1.921   0.902 -0.0049 -0.2455  0.8992
   26MOL   C349 9899   1.129   1.916   0.913  0.4589 -0.3423 -0.0679
   26MOL   C350 9900   1.180   1.858   1.045 -0.3464 -0.0230 -0.3763
   26MOL   H351 9901   0.945   2.416   1.156 -1.4448 -0.6604  0.0630
   26MOL   H352 9902   1.033   2.390   1.012  1.1786 -0.9580 -0.3559
   26MOL   H353 9903   0.862   2.194   1.166 -1.2624  0.5129 -0.8477
   26MOL   H354 9904   0.798   2.007   1.003 -0.1568 -0.1263 -1.0600
   26MOL   H355 9905   0.939   1.990   1.110 -0.8965  0.0807 -0.0564
   26MOL   H356 9906   0.945   1.958   0.804  0.7795  1.2736  1.2247
   26MOL   H357 9907   0.927   1.823   0.907  0.0653 -0.4518 -1.4688
   26MOL   H358 9908   1.160   1.850   0.832  2.2304  0.0005  0.3248
   26MOL   H359 9909   1.169   2.014   0.887  1.0358 -0.0650  1.8290
   26MOL   H360 9910   1.133   1.760   1.046  0.0488 -0.2026  1.3614
   26MOL   H361 9911   1.152   1.919   1.131 -0.0793  1.5793 -1.3858
   26MOL   H362 9912   1.288   1.844   1.040 -0.4685 -0.4042 -3.0084
   26MOL   C363 9913   0.767   2.290   0.989  0.0065  0.3798 -1.1728
   26MOL   C364 9914   0.691   2.404   1.063  0.0942  0.2233 -0.2291
   26MOL   O365 9915   0.770   2.520   1.031  0.0772  0.3703 -0.1995
   26MOL   C366 9916   0.736   2.635   1.106  0.1930  0.3522 -0.0026
   26MOL   C367 9917   0.815   2.758   1.054 -0.5274  0.0985  0.2652
   26MOL   C368 9918   0.966   2.738   1.062 -0.1301  0.6425 -0.0942
   26MOL   C369 9919   1.040   2.831   0.963  0.0080  0.6682 -0.2285
   26MOL   H370 9920   0.699   2.207   0.968  2.7038 -2.4126  0.7533
   26MOL   H371 9921   0.795   2.328   0.891  1.5462  0.8247 -0.5694
   26MOL   H372 9922   0.693   2.385   1.170  0.0022 -1.1462 -0.4593
   26MOL   H373 9923   0.743   2.621   1.214 -1.7924  0.1780  0.1231
   26MOL   H374 9924   0.629   2.653   1.095  0.1838  0.2332 -0.0982
   26MOL   H375 9925   0.791   2.850   1.108  2.6007  1.9160 -1.3298
   26MOL   H376 9926   0.781   2.780   0.953 -1.9101  2.6916  1.2483
   26MOL   H377 9927   0.989   2.633   1.049 -1.7663  0.2232  0.2889
   26MOL   H378 9928   1.006   2.756   1.162  0.2847 -2.7611  0.3878
   26MOL   H379 9929   1.021   2.937   0.980 -1.4441  0.2304  1.0009
   26MOL   H380 9930   1.147   2.818   0.980  0.1661  0.8150 -1.0856
   26MOL   H381 9931   1.033   2.803   0.858  1.7991  3.4214 -1.1267
   26MOL   H382 9932   0.585   2.415   1.037 -0.2954  0.5100  1.4164
   27MOL     C1 9933   4.914   6.875   5.312 -0.4624  0.3904 -0.1723
   27MOL     C2 9934   4.816   6.839   5.191 -0.1469  0.4214 -0.2518
   27MOL     O3 9935   4.859   6.919   5.090  0.0710 -0.2139 -0.2945
   27MOL     C4 9936   4.791   7.041   5.062  0.4272 -0.2931  0.2099
   27MOL     C5 9937   4.828   7.092   4.925  0.0939 -0.1454  0.4253
   27MOL     C6 9938   4.796   7.001   4.802 -0.3535  0.0946  0.2916
   27MOL     C7 9939   4.802   7.071   4.669 -0.0656  0.0947 -0.2087
   27MOL     H8 9940   4.914   6.979   5.344 -1.9860  0.3205  0.0916
   27MOL     H9 9941   4.888   6.808   5.394 -0.3874  0.7949  0.1865
   27MOL    H10 9942   4.714   6.864   5.219 -1.0618 -2.3574 -0.9486
   27MOL    H11 9943   4.683   7.025   5.061  0.4514 -0.4952  0.5349
   27MOL    H12 9944   4.817   7.116   5.138 -1.9672 -0.3546  1.1320
   27MOL    H13 9945   4.930   7.131   4.923 -0.9084  2.5559 -0.6816
   27MOL    H14 9946   4.766   7.182   4.926  0.2055 -0.0088 -1.9352
   27MOL    H15 9947   4.698   6.960   4.823  0.6941 -2.0517  1.1131
   27MOL    H16 9948   4.864   6.916   4.804 -0.4338  0.0444  1.4764
   27MOL    H17 9949   4.740   7.160   4.659  0.5001  0.5566  0.3223
   27MOL    H18 9950   4.755   7.009   4.593 -1.3608 -2.0727  2.2847
   27MOL    H19 9951   4.907   7.102   4.663  0.5640 -1.2685  2.6109
   27MOL    H20 9952   5.017   6.856   5.279 -0.0121  0.4546  1.1555
   27MOL    C21 9953   4.836   6.689   5.144  0.2295  0.3830  0.3231
   27MOL    C22 9954   4.750   6.656   5.013 -0.0381 -0.3992 -0.2472
   27MOL    O23 9955   4.786   6.522   4.974  0.2146 -0.1888  0.0925
   27MOL    C24 9956   4.904   6.505   4.891  0.6684 -0.2585 -0.6287
   27MOL    C25 9957   4.975   6.377   4.935  1.0303 -0.5138  0.1491
   27MOL    C26 9958   5.024   6.371   5.081 -0.5223  0.4576  0.8340
   27MOL    C27 9959   5.112   6.243   5.112  0.0127 -0.8745  0.0614
   27MOL    H28 9960   4.810   6.623   5.227  0.1735 -0.7658 -0.5966
   27MOL    H29 9961   4.942   6.668   5.130  0.5422  0.5507  2.2655
   27MOL    H30 9962   4.772   6.730   4.936 -0.4370  0.5459  0.5374
   27MOL    H31 9963   4.982   6.580   4.899 -0.6328  0.9218  1.3993
   27MOL    H32 9964   4.863   6.498   4.790 -0.6261 -1.2712 -0.0552
   27MOL    H33 9965   4.910   6.296   4.906 -0.6605  0.9322 -0.1602
   27MOL    H34 9966   5.063   6.376   4.870  1.6194 -2.6521  0.9228
   27MOL    H35 9967   5.075   6.468   5.085 -1.1200  0.8816 -1.2229
   27MOL    H36 9968   4.936   6.368   5.146  0.1395 -2.5557  1.6580
   27MOL    H37 9969   5.195   6.244   5.041  0.6910  1.1027  0.8386
   27MOL    H38 9970   5.136   6.245   5.219 -0.2166  0.5416  0.0905
   27MOL    H39 9971   5.042   6.160   5.101 -0.3364 -0.6415  0.4962
   27MOL    C40 9972   4.599   6.660   5.042  0.1136  0.1727  0.1058
   27MOL    C41 9973   4.502   6.637   4.928 -0.2497  0.9519  0.0968
   27MOL    O42 9974   4.493   6.765   4.862  0.2385 -0.1607 -0.0316
   27MOL    C43 9975   4.429   6.758   4.730 -0.3466  0.6746  0.7699
   27MOL    C44 9976   4.391   6.904   4.699 -0.7954 -0.2276 -0.2397
   27MOL    C45 9977   4.324   6.928   4.569 -0.2429  0.1626  0.0241
   27MOL    C46 9978   4.269   7.068   4.544  0.5149 -0.0316 -0.0651
   27MOL    H47 9979   4.583   6.749   5.102  1.6754  0.9869 -0.6507
   27MOL    H48 9980   4.584   6.582   5.117  1.4003  1.3503  1.6130
   27MOL    H49 9981   4.541   6.567   4.855 -0.3458 -0.7622  1.6469
   27MOL    H50 9982   4.334   6.705   4.740  0.4581 -0.7916  0.8490
   27MOL    H51 9983   4.480   6.707   4.648 -0.9163 -0.7583  1.2893
   27MOL    H52 9984   4.470   6.979   4.706 -1.0068 -0.1930  2.0143
   27MOL    H53 9985   4.330   6.929   4.786 -0.2839 -1.6604  0.5373
   27MOL    H54 9986   4.252   6.848   4.556 -0.3774 -0.0854  2.0825
   27MOL    H55 9987   4.404   6.917   4.496 -1.5030  0.9384 -1.4901
   27MOL    H56 9988   4.231   7.064   4.442  1.6134 -0.5172 -0.4623
   27MOL    H57 9989   4.195   7.113   4.610  0.9040 -1.3549  1.3111
   27MOL    H58 9990   4.352   7.139   4.540  0.2622  0.2562 -0.3002
   27MOL    C59 9991   4.360   6.594   4.981  0.0380  0.1609 -0.0236
   27MOL    C60 9992   4.297   6.457   4.959  0.3880  0.6801  0.7959
   27MOL    O61 9993   4.369   6.364   5.035 -0.4153 -0.2024 -0.1182
   27MOL    C62 9994   4.450   6.273   4.964 -0.1130  0.0187  0.1818
   27MOL    C63 9995   4.567   6.228   5.049 -0.1059  0.0167 -0.0454
   27MOL    C64 9996   4.636   6.108   4.993  0.7952  0.5505  0.5069
   27MOL    C65 9997   4.759   6.078   5.082 -0.1483  0.8327 -0.5704
   27MOL    H66 9998   4.361   6.619   5.087 -0.8061  1.0061 -0.2127
   27MOL    H67 9999   4.292   6.675   4.953 -0.5480 -0.4401 -0.3533
   27MOL    H6810000   4.299   6.444   4.851  0.2467 -1.5524  1.0347
   27MOL    H6910001   4.495   6.312   4.872 -0.5023  2.9868  1.2057
   27MOL    H7010002   4.391   6.188   4.928  0.2923 -0.3369  0.3531
   27MOL    H7110003   4.640   6.307   5.029 -1.4571  1.4652  0.6144
   27MOL    H7210004   4.539   6.228   5.154 -1.8517 -0.7910 -0.4817
   27MOL    H7310005   4.570   6.023   4.977  0.9004  0.3077  1.3301
   27MOL    H7410006   4.676   6.148   4.900  1.4218 -1.7970 -0.2453
   27MOL    H7510007   4.813   6.167   5.113  0.2802  0.4853 -0.3259
   27MOL    H7610008   4.726   6.031   5.175 -2.5623  1.5094 -1.0545
   27MOL    H7710009   4.827   6.011   5.030 -0.2460 -0.2007  0.6055
   27MOL    C7810010   4.148   6.448   4.998 -0.4752  0.9502 -0.6985
   27MOL    C7910011   4.074   6.323   4.953  0.1618 -0.5422 -0.5001
   27MOL    O8010012   3.981   6.356   4.848  0.1393  0.3070 -0.2480
   27MOL    C8110013   4.037   6.398   4.722 -0.0685  0.0518 -0.3966
   27MOL    C8210014   3.936   6.368   4.614  0.1316 -0.1474  0.3037
   27MOL    C8310015   3.911   6.226   4.575 -0.0907 -0.1458  0.5835
   27MOL    C8410016   3.851   6.214   4.440 -1.2716  0.3362  0.2367
   27MOL    H8510017   4.091   6.531   4.957  1.3551  1.7577 -1.7067
   27MOL    H8610018   4.157   6.468   5.104 -0.1693  0.5525 -0.6496
   27MOL    H8710019   4.148   6.258   4.905 -0.2172 -1.8533  0.6711
   27MOL    H8810020   4.124   6.342   4.688  0.5433  1.3154 -0.9200
   27MOL    H8910021   4.056   6.505   4.722 -1.6044  0.3377 -1.4441
   27MOL    H9010022   3.840   6.398   4.657  0.7327  0.5126  1.2114
   27MOL    H9110023   3.951   6.451   4.545 -0.7036 -0.0087  0.2840
   27MOL    H9210024   3.848   6.184   4.654 -2.2558 -2.6880 -2.3642
   27MOL    H9310025   4.004   6.169   4.576  1.1676  1.5861 -3.6352
   27MOL    H9410026   3.837   6.106   4.433  1.8794 -0.1117  0.1342
   27MOL    H9510027   3.756   6.261   4.415  0.0421  2.1041 -1.6053
   27MOL    H9610028   3.925   6.247   4.367  0.5439 -2.2030  0.8692
   27MOL    C9710029   3.992   6.274   5.078 -0.5495  0.1890  0.2097
   27MOL    C9810030   4.090   6.218   5.187 -0.7131 -0.3918  0.5529
   27MOL    O9910031   4.009   6.200   5.297  0.3151 -0.0266  0.3907
   27MOL   C10010032   4.018   6.297   5.395 -0.1970  0.1927 -0.1227
   27MOL   C10110033   3.898   6.272   5.487  0.5559 -0.5710 -0.9829
   27MOL   C10210034   3.916   6.141   5.571  0.1750 -0.3810  0.2404
   27MOL   C10310035   3.792   6.131   5.657  0.3899 -0.7665  0.1701
   27MOL   H10410036   3.901   6.225   5.044  0.5126 -1.9369  0.3112
   27MOL   H10510037   3.937   6.359   5.119 -0.8183 -1.7458  4.0862
   27MOL   H10610038   4.176   6.281   5.208 -0.3920 -1.4521  2.5230
   27MOL   H10710039   4.003   6.395   5.349 -2.8493 -1.9506 -4.1219
   27MOL   H10810040   4.113   6.289   5.448 -0.5033  0.9556  0.5509
   27MOL   H10910041   3.797   6.275   5.444  0.5921  1.1231 -0.9651
   27MOL   H11010042   3.903   6.347   5.565  1.0670  0.3577 -1.9029
   27MOL   H11110043   4.002   6.150   5.638 -0.0803 -0.7734  0.6252
   27MOL   H11210044   3.931   6.059   5.502  1.0022  0.6290 -0.7988
   27MOL   H11310045   3.782   6.222   5.717 -0.8703 -2.1662  2.1669
   27MOL   H11410046   3.697   6.118   5.605 -1.0237  4.0910  1.2330
   27MOL   H11510047   3.819   6.059   5.735  0.8241 -1.5403 -0.6897
   27MOL   C11610048   4.142   6.080   5.143  0.1019  0.3808 -0.2483
   27MOL   C11710049   4.218   6.005   5.252  0.5979 -0.2976 -0.1378
   27MOL   O11810050   4.270   5.889   5.182  0.3964  0.0940 -0.3832
   27MOL   C11910051   4.180   5.779   5.167  0.0302 -0.6990  0.3045
   27MOL   C12010052   4.265   5.675   5.093  0.7212  0.3121 -0.4402
   27MOL   C12110053   4.179   5.552   5.053  0.6295 -0.5611  1.0846
   27MOL   C12210054   4.231   5.472   4.938 -0.6904 -0.1716  0.0301
   27MOL   H12310055   4.060   6.011   5.129 -0.9614  1.5710  0.0290
   27MOL   H12410056   4.196   6.082   5.048  2.0036  1.4227  0.8218
   27MOL   H12510057   4.142   5.971   5.322  0.1514  0.0116 -0.4673
   27MOL   H12610058   4.094   5.807   5.106 -0.6393  0.6277  1.8371
   27MOL   H12710059   4.144   5.752   5.266 -0.5534  0.6773  0.4718
   27MOL   H12810060   4.350   5.651   5.157 -0.9504 -1.3307  1.2037
   27MOL   H12910061   4.304   5.733   5.009  2.2844 -0.1737 -0.0740
   27MOL   H13010062   4.156   5.485   5.135 -1.6685 -0.3959  0.5957
   27MOL   H13110063   4.077   5.581   5.029  0.9808  0.4867  0.8269
   27MOL   H13210064   4.250   5.540   4.854  0.7303  0.3021  0.7216
   27MOL   H13310065   4.171   5.388   4.904  0.4174 -0.8300 -0.2989
   27MOL   H13410066   4.334   5.436   4.940  0.2106  2.1455 -1.5988
   27MOL   C13510067   4.335   6.068   5.315  0.1891  0.5335  0.3339
   27MOL   C13610068   4.399   5.990   5.426  0.6846  0.3828  0.3979
   27MOL   O13710069   4.529   6.059   5.446 -0.6718 -0.4210  0.3763
   27MOL   C13810070   4.636   5.963   5.450 -0.0079  0.6438  0.1752
   27MOL   C13910071   4.751   6.021   5.535 -0.4237 -0.0171  0.1037
   27MOL   C14010072   4.851   6.102   5.459  0.0422 -0.3304 -0.9050
   27MOL   C14110073   4.988   6.134   5.521 -0.2209 -0.1227  0.4027
   27MOL   H14210074   4.325   6.172   5.345 -1.5968  0.7072 -0.8052
   27MOL   H14310075   4.418   6.077   5.244  2.0262  2.5589  2.6250
   27MOL   H14410076   4.407   5.887   5.389 -0.2092  1.2033 -2.2279
   27MOL   H14510077   4.674   5.920   5.358 -0.9375 -0.1230  0.1404
   27MOL   H14610078   4.603   5.872   5.501 -0.3006  0.7476  0.1719
   27MOL   H14710079   4.806   5.931   5.560 -0.7250 -0.7279 -1.7381
   27MOL   H14810080   4.720   6.067   5.629 -1.6244 -0.8453  0.1225
   27MOL   H14910081   4.864   6.057   5.361  2.6558  1.3123 -1.3328
   27MOL   H15010082   4.803   6.195   5.431 -4.1550 -1.4720  1.8345
   27MOL   H15110083   5.067   6.062   5.498  1.0252  1.4281 -0.3007
   27MOL   H15210084   5.022   6.229   5.478 -0.7375  0.6603  1.6798
   27MOL   H15310085   4.990   6.139   5.630  0.9127  1.1794  0.3441
   27MOL   C15410086   4.316   5.983   5.550  0.3642 -0.2790 -0.0231
   27MOL   C15510087   4.350   5.867   5.652 -0.4240  0.0752 -0.1304
   27MOL   O15610088   4.317   5.744   5.583  0.6280  0.6038  0.0823
   27MOL   C15710089   4.416   5.636   5.613 -0.2821 -0.3584 -1.1427
   27MOL   C15810090   4.364   5.498   5.575 -0.4264  0.1171 -0.3392
   27MOL   C15910091   4.352   5.486   5.424  0.2726 -0.1587 -0.0223
   27MOL   C16010092   4.332   5.343   5.386  0.0515 -0.0712  0.8675
   27MOL   H16110093   4.210   5.980   5.522  1.2204  0.0070 -3.5765
   27MOL   H16210094   4.322   6.078   5.604 -0.6644  0.1998 -0.7289
   27MOL   H16310095   4.455   5.859   5.680 -0.6889  0.0601  0.8924
   27MOL   H16410096   4.507   5.667   5.563  1.8315 -2.8700  0.9756
   27MOL   H16510097   4.439   5.630   5.719 -1.2820 -0.5559 -0.9230
   27MOL   H16610098   4.277   5.464   5.632 -1.0780 -1.2134 -2.0681
   27MOL   H16710099   4.433   5.425   5.616  1.3262  2.5025  1.0086
   27MOL   H16810100   4.265   5.546   5.397  0.2180  0.1785  0.8847
   27MOL   H16910101   4.435   5.540   5.380  0.0716 -1.5039 -2.0723
   27MOL   H17010102   4.400   5.270   5.428 -0.2793 -0.4253  0.7915
   27MOL   H17110103   4.239   5.308   5.431 -0.5740  0.3888 -0.0362
   27MOL   H17210104   4.327   5.326   5.278 -0.1759  1.0255  0.6978
   27MOL   C17310105   4.267   5.877   5.785  0.1734  0.8066  0.6650
   27MOL   C17410106   4.335   5.958   5.893 -0.5024 -0.1948 -0.7012
   27MOL   O17510107   4.332   6.097   5.860 -0.5152  0.0878  0.6629
   27MOL   C17610108   4.448   6.170   5.895  0.3483  0.3471  0.7854
   27MOL   C17710109   4.413   6.325   5.894  0.1851 -0.0137  0.9087
   27MOL   C17810110   4.374   6.376   5.753  0.5364  0.2513 -0.2854
   27MOL   C17910111   4.216   6.380   5.730  0.0064  0.4017  0.8488
   27MOL   H18010112   4.255   5.771   5.809  0.8835  0.6938  0.5214
   27MOL   H18110113   4.162   5.907   5.777 -0.6765 -1.3154  3.2418
   27MOL   H18210114   4.438   5.924   5.892 -0.5232 -0.2301 -1.8916
   27MOL   H18310115   4.533   6.138   5.833  0.1622  0.2482  0.5820
   27MOL   H18410116   4.459   6.149   6.001  0.5814  0.8958  0.8719
   27MOL   H18510117   4.505   6.378   5.921  0.3972 -1.1106  2.3901
   27MOL   H18610118   4.339   6.347   5.971 -1.1958 -0.0296 -0.4107
   27MOL   H18710119   4.406   6.480   5.754  0.0027  0.4427 -1.7388
   27MOL   H18810120   4.434   6.336   5.672  0.3906  2.7433 -1.6859
   27MOL   H18910121   4.179   6.285   5.693 -0.2048  0.1498  1.7069
   27MOL   H19010122   4.156   6.399   5.819 -2.1911 -1.8357 -0.1126
   27MOL   H19110123   4.197   6.452   5.651 -2.8443 -0.2668  0.8671
   27MOL   C19210124   4.273   5.934   6.034  0.3617  0.1490 -0.5951
   27MOL   C19310125   4.257   5.790   6.081  0.3289  0.0584  0.2961
   27MOL   O19410126   4.378   5.728   6.058 -0.3365  0.7368  0.4968
   27MOL   C19510127   4.378   5.584   6.057 -0.7490 -0.3629 -0.1004
   27MOL   C19610128   4.515   5.547   6.005  1.0357  0.5580  0.3999
   27MOL   C19710129   4.534   5.395   6.008 -0.4227 -0.5427 -0.0690
   27MOL   C19810130   4.659   5.361   5.936  0.3393 -0.0680  0.2378
   27MOL   H19910131   4.175   5.981   6.030  0.0704 -0.3152  0.8408
   27MOL   H20010132   4.328   5.988   6.111  1.6242 -0.0073 -1.3823
   27MOL   H20110133   4.184   5.735   6.022  0.8226  0.8933 -1.1041
   27MOL   H20210134   4.300   5.550   5.989 -1.0840 -0.7014  0.4554
   27MOL   H20310135   4.348   5.549   6.155 -0.6539 -0.1675 -0.0019
   27MOL   H20410136   4.527   5.588   5.904  1.9482 -1.0662 -0.1611
   27MOL   H20510137   4.592   5.602   6.057  1.1629  0.5068  0.2655
   27MOL   H20610138   4.453   5.353   5.948 -1.5401 -0.2338  1.1786
   27MOL   H20710139   4.517   5.351   6.106 -0.6374 -0.2397  0.0326
   27MOL   H20810140   4.654   5.256   5.906  0.4406  0.1898 -0.7126
   27MOL   H20910141   4.701   5.418   5.853  1.5681 -1.5895 -0.2169
   27MOL   H21010142   4.742   5.376   6.004  1.4930  3.6910 -1.8639
   27MOL   C21110143   4.213   5.784   6.227  0.0765 -0.1112  0.1832
   27MOL   C21210144   4.063   5.828   6.245 -0.0151  0.5372  0.1550
   27MOL   O21310145   3.980   5.747   6.167 -0.0325 -0.9083 -0.3362
   27MOL   C21410146   3.867   5.806   6.103  0.0382 -0.0615 -0.5285
   27MOL   C21510147   3.815   5.703   5.995  0.0007 -0.1875  1.0307
   27MOL   C21610148   3.735   5.588   6.060 -0.2666  0.2920  0.5754
   27MOL   C21710149   3.661   5.508   5.956  0.0018 -0.0641 -0.2948
   27MOL   H21810150   4.279   5.852   6.281  1.0709 -1.2612  0.4497
   27MOL   H21910151   4.228   5.687   6.275  0.0191  0.6557  1.7987
   27MOL   H22010152   4.053   5.934   6.223  0.7315  0.2469 -1.7542
   27MOL   H22110153   3.787   5.831   6.173  1.1853  0.5008  0.6075
   27MOL   H22210154   3.888   5.904   6.061  1.7737 -1.2747 -2.5825
   27MOL   H22310155   3.752   5.754   5.923  2.1272  0.7032 -0.2491
   27MOL   H22410156   3.901   5.657   5.945 -0.7850  0.7078 -1.2158
   27MOL   H22510157   3.662   5.634   6.126  0.5029  2.1049  0.2252
   27MOL   H22610158   3.799   5.522   6.118  0.1374 -0.0739 -0.2689
   27MOL   H22710159   3.577   5.457   6.002  2.6790 -3.1179  1.4007
   27MOL   H22810160   3.728   5.435   5.911  1.5638 -0.0759  1.9858
   27MOL   H22910161   3.618   5.572   5.878  0.0517  1.5423  0.9620
   27MOL   C23010162   4.030   5.819   6.391 -0.2762  0.4751 -1.1614
   27MOL   C23110163   3.886   5.860   6.422 -0.6513  0.1116  0.0985
   27MOL   O23210164   3.877   5.857   6.562 -0.4457 -0.0814  0.2169
   27MOL   C23310165   3.817   5.737   6.615  1.2184  0.6926  0.0413
   27MOL   C23410166   3.774   5.754   6.759  0.0459 -0.7833 -0.6151
   27MOL   C23510167   3.695   5.885   6.782  0.1034  1.1096  0.2651
   27MOL   C23610168   3.686   5.936   6.927  0.1164  0.0372  0.0376
   27MOL   H23710169   4.101   5.879   6.448 -0.4686  0.0604 -0.4709
   27MOL   H23810170   4.062   5.723   6.432 -0.4314  0.3178 -1.4083
   27MOL   H23910171   3.810   5.792   6.383  0.0145 -0.7576  0.2904
   27MOL   H24010172   3.717   5.723   6.574  0.8216  2.0941  0.5125
   27MOL   H24110173   3.884   5.652   6.603  0.0333 -0.1315 -0.8194
   27MOL   H24210174   3.717   5.667   6.790 -1.9990  0.3642 -1.0586
   27MOL   H24310175   3.867   5.760   6.815 -1.0989 -2.7848  1.5913
   27MOL   H24410176   3.600   5.868   6.730  0.2120 -1.6344  0.9273
   27MOL   H24510177   3.742   5.965   6.724  1.7479  1.5203  2.1357
   27MOL   H24610178   3.631   5.868   6.992  1.4598  1.0048  2.2733
   27MOL   H24710179   3.650   6.039   6.938  1.1670  0.6079 -1.6177
   27MOL   H24810180   3.782   5.945   6.979 -0.4952  1.5743  0.9289
   27MOL   C24910181   3.845   6.007   6.389 -0.3873  0.6310 -0.3079
   27MOL   C25010182   3.695   6.033   6.413  0.2288 -0.3310  0.4067
   27MOL   O25110183   3.610   5.954   6.329  0.2607  0.4409  0.4283
   27MOL   C25210184   3.492   5.901   6.391  1.0134  0.1003 -0.0265
   27MOL   C25310185   3.438   5.790   6.296 -0.1783 -0.0248 -0.0851
   27MOL   C25410186   3.310   5.718   6.345 -0.2474  0.0485  0.3052
   27MOL   C25510187   3.273   5.588   6.266  0.3580 -0.4006  0.0787
   27MOL   H25610188   3.855   6.012   6.281 -0.4474  0.5097 -0.3200
   27MOL   H25710189   3.900   6.082   6.445  1.1883  0.9750 -2.2601
   27MOL   H25810190   3.676   6.008   6.517  0.9265 -0.3159  0.5396
   27MOL   H25910191   3.423   5.986   6.390 -0.6858 -1.2636 -0.7460
   27MOL   H26010192   3.512   5.875   6.495 -1.8245  0.9031  0.7583
   27MOL   H26110193   3.439   5.826   6.193  2.2859 -0.2314 -0.1727
   27MOL   H26210194   3.514   5.711   6.289  0.3023  0.5423 -1.4840
   27MOL   H26310195   3.324   5.685   6.448  0.6823 -1.4557 -0.2872
   27MOL   H26410196   3.222   5.782   6.339 -2.0453 -2.0782  2.6689
   27MOL   H26510197   3.166   5.571   6.268  0.2529  0.2630  3.6438
   27MOL   H26610198   3.326   5.509   6.320 -0.0986 -1.1942 -0.6172
   27MOL   H26710199   3.311   5.578   6.164  0.8097 -3.2629  0.4690
   27MOL   C26810200   3.641   6.178   6.389 -0.1235 -0.1199  0.1457
   27MOL   C26910201   3.703   6.292   6.470  0.2711  0.5447 -0.4928
   27MOL   O27010202   3.645   6.405   6.406 -0.3138  0.0430 -0.0171
   27MOL   C27110203   3.726   6.521   6.433 -0.4009  0.8640  0.0753
   27MOL   C27210204   3.641   6.648   6.404 -0.2266  0.7156  0.0009
   27MOL   C27310205   3.608   6.685   6.257  0.8184  0.7945 -0.4448
   27MOL   C27410206   3.506   6.801   6.248  0.4530 -0.8859 -0.5621
   27MOL   H27510207   3.673   6.195   6.286 -1.7551  1.5708 -0.1111
   27MOL   H27610208   3.534   6.195   6.389 -0.1420 -0.1843 -0.8285
   27MOL   H27710209   3.811   6.286   6.458  0.3515 -0.9239  0.8771
   27MOL   H27810210   3.753   6.529   6.538  0.6148 -1.8693  0.0763
   27MOL   H27910211   3.816   6.522   6.372 -1.0450  2.5836 -0.8798
   27MOL   H28010212   3.547   6.642   6.458  0.9726  1.5268  2.2899
   27MOL   H28110213   3.684   6.733   6.457  1.8582 -0.4347  0.2112
   27MOL   H28210214   3.572   6.596   6.206 -1.7421  2.6885 -2.0322
   27MOL   H28310215   3.705   6.701   6.208  1.2245 -2.1674 -0.7116
   27MOL   H28410216   3.423   6.766   6.309 -0.0724  0.3431 -0.5541
   27MOL   H28510217   3.470   6.802   6.145  2.9611 -4.1019 -1.5823
   27MOL   H28610218   3.538   6.901   6.275 -1.0990 -0.3413 -0.6936
   27MOL   C28710219   3.666   6.279   6.622 -0.6618  0.6593  0.6695
   27MOL   C28810220   3.518   6.301   6.683 -0.6817 -0.5810  0.0461
   27MOL   O28910221   3.536   6.382   6.805 -0.0244  0.2319  0.1919
   27MOL   C29010222   3.594   6.313   6.917  0.3947  0.2016  0.5872
   27MOL   C29110223   3.661   6.397   7.029 -0.1715 -0.6409 -0.3914
   27MOL   C29210224   3.557   6.486   7.101  0.4015 -0.3879  0.5655
   27MOL   C29310225   3.622   6.582   7.205  0.1362 -0.1710 -0.0755
   27MOL   H29410226   3.728   6.350   6.676  2.6833  1.1765 -3.6186
   27MOL   H29510227   3.705   6.185   6.660 -3.8067 -1.1794 -0.4928
   27MOL   H29610228   3.472   6.357   6.603  0.8701  1.0663  0.2722
   27MOL   H29710229   3.508   6.255   6.952  0.2986 -0.5880 -0.8902
   27MOL   H29810230   3.659   6.234   6.879  1.1918  0.7464  0.8291
   27MOL   H29910231   3.743   6.458   6.989 -0.8231  0.9496  0.6394
   27MOL   H30010232   3.725   6.336   7.094  1.3344 -0.4593 -1.6671
   27MOL   H30110233   3.478   6.423   7.142  0.7596 -1.2324 -0.0304
   27MOL   H30210234   3.504   6.549   7.029  0.9609 -1.5892 -0.9170
   27MOL   H30310235   3.693   6.647   7.155 -1.1025  0.6752 -0.7616
   27MOL   H30410236   3.551   6.637   7.267  2.4506  0.7779  1.8393
   27MOL   H30510237   3.671   6.517   7.278 -0.4620  0.2673  0.7273
   27MOL   C30610238   3.432   6.171   6.692 -0.2675 -0.4552  0.1824
   27MOL   C30710239   3.282   6.189   6.680  0.7305  0.1428 -0.8371
   27MOL   O30810240   3.235   6.248   6.806  0.3912  0.0885  0.0032
   27MOL   C30910241   3.200   6.391   6.808  0.1368  0.4753  0.0130
   27MOL   C31010242   3.132   6.419   6.947  0.1168 -0.7527  0.2833
   27MOL   C31110243   2.995   6.350   6.973 -0.5474  0.4137 -0.1356
   27MOL   C31210244   2.966   6.332   7.124  0.2714  0.2056 -0.3294
   27MOL   H31310245   3.466   6.115   6.605  0.4362 -2.4819  1.7280
   27MOL   H31410246   3.449   6.106   6.778  2.0958 -1.2976 -0.8781
   27MOL   H31510247   3.256   6.250   6.593  2.3747  1.1650 -0.6327
   27MOL   H31610248   3.117   6.399   6.737 -1.2309 -0.6867  1.4488
   27MOL   H31710249   3.280   6.456   6.773  1.0003 -1.5308 -1.9485
   27MOL   H31810250   3.119   6.523   6.976  2.2958 -0.0854 -1.0295
   27MOL   H31910251   3.196   6.384   7.029  0.3812 -0.1420  0.3390
   27MOL   H32010252   2.919   6.415   6.930  0.2596  1.6831  0.3536
   27MOL   H32110253   2.986   6.258   6.915  0.8914 -0.4592  0.9773
   27MOL   H32210254   2.990   6.416   7.189  1.4354 -1.7496  1.8586
   27MOL   H32310255   3.025   6.253   7.172 -0.1543  0.5018  0.6877
   27MOL   H32410256   2.865   6.302   7.152  0.7156 -1.1283 -0.0877
   27MOL   C32510257   3.214   6.056   6.666 -0.8180  0.6728  0.1981
   27MOL   C32610258   3.061   6.057   6.679  0.6899  0.3956  0.8314
   27MOL   O32710259   3.001   6.131   6.572 -0.5342  0.7775 -0.1049
   27MOL   C32810260   2.884   6.202   6.614  0.6053  0.8339 -0.2833
   27MOL   C32910261   2.843   6.285   6.489  0.0965  0.0001 -0.0079
   27MOL   C33010262   2.729   6.383   6.502  0.0836 -0.4361 -0.7192
   27MOL   C33110263   2.758   6.501   6.597 -0.0563  0.5167  0.5844
   27MOL   H33210264   3.266   5.996   6.740  0.3314  1.6102  0.1561
   27MOL   H33310265   3.243   6.007   6.573 -2.9035 -1.7304  0.7430
   27MOL   H33410266   3.040   6.109   6.772  1.0787  1.1141  0.5189
   27MOL   H33510267   2.910   6.275   6.691 -0.4297 -1.5738  2.3975
   27MOL   H33610268   2.797   6.153   6.656  1.9092 -0.0719  1.4160
   27MOL   H33710269   2.927   6.339   6.444  1.3006 -1.0452  0.9432
   27MOL   H33810270   2.810   6.212   6.415 -0.1475  0.8180 -0.7187
   27MOL   H33910271   2.640   6.330   6.536 -0.0804 -0.5377 -1.3047
   27MOL   H34010272   2.700   6.425   6.406  1.6178 -0.1980 -1.0823
   27MOL   H34110273   2.832   6.564   6.550 -0.3670  0.0511 -0.5408
   27MOL   H34210274   2.786   6.474   6.699  3.3993 -1.3083 -0.7855
   27MOL   H34310275   2.670   6.566   6.604  0.6240  1.5381 -0.3494
   27MOL   C34410276   3.014   5.906   6.676 -0.4866 -0.0148  0.7780
   27MOL   C34510277   2.881   5.881   6.734  0.0139  0.9949  0.2172
   27MOL   O34610278   2.875   5.919   6.868 -0.3035 -0.3691  0.4866
   27MOL   C34710279   2.748   5.951   6.896 -0.3246  0.3378  0.0268
   27MOL   C34810280   2.736   5.990   7.045 -0.2658  0.0875  0.0489
   27MOL   C34910281   2.787   5.878   7.141 -0.0372 -0.3182 -0.1819
   27MOL   C35010282   2.717   5.738   7.114 -0.0336  0.4967 -0.1243
   27MOL   H35110283   3.017   5.874   6.572  0.3671  0.7296  0.5721
   27MOL   H35210284   3.089   5.849   6.730 -0.3577 -0.8751 -0.2884
   27MOL   H35310285   2.810   5.928   6.666  0.5466  1.0416 -0.3203
   27MOL   H35410286   2.677   5.869   6.893 -3.3190  2.8059  0.6990
   27MOL   H35510287   2.714   6.037   6.838 -2.0889  0.1601  0.7682
   27MOL   H35610288   2.630   6.000   7.068 -0.9238 -2.7602 -1.4998
   27MOL   H35710289   2.786   6.083   7.074  1.8673 -0.4875 -1.6676
   27MOL   H35810290   2.896   5.872   7.135  0.1217  1.3475  0.8472
   27MOL   H35910291   2.760   5.906   7.243 -2.0820 -2.8064  0.0248
   27MOL   H36010292   2.610   5.734   7.096 -0.1819 -2.4215  1.1334
   27MOL   H36110293   2.735   5.678   7.203  0.2858  1.4073  0.4283
   27MOL   H36210294   2.766   5.691   7.029 -1.4001  0.1395 -0.7191
   27MOL   C36310295   2.861   5.729   6.726 -0.2832 -0.3784  0.2234
   27MOL   C36410296   2.848   5.661   6.589  0.3434 -0.3875  0.1248
   27MOL   O36510297   2.733   5.699   6.516 -0.0759  0.1964  0.0238
   27MOL   C36610298   2.708   5.622   6.402 -0.5047 -0.3145  0.5590
   27MOL   C36710299   2.576   5.662   6.344 -0.3457  0.4540  0.2336
   27MOL   C36810300   2.547   5.570   6.221  0.8618  0.4869  0.4209
   27MOL   C36910301   2.393   5.552   6.199 -0.5063  0.2381  0.2125
   27MOL   H37010302   2.774   5.706   6.787 -0.6040  0.0763 -0.0562
   27MOL   H37110303   2.945   5.681   6.777 -2.8329 -2.5351  2.5406
   27MOL   H37210304   2.832   5.557   6.616 -1.4628 -0.5193 -1.3549
   27MOL   H37310305   2.695   5.518   6.434 -1.0097 -0.9366 -1.6267
   27MOL   H37410306   2.785   5.624   6.326 -2.0293  0.7470 -0.9929
   27MOL   H37510307   2.582   5.768   6.318 -0.1845  0.1537 -1.0203
   27MOL   H37610308   2.493   5.673   6.412  2.3602 -0.0655  3.7700
   27MOL   H37710309   2.583   5.468   6.237  1.2444  0.7733  1.3915
   27MOL   H37810310   2.593   5.608   6.130 -0.7483 -0.3835 -0.7709
   27MOL   H37910311   2.370   5.519   6.097  0.8930 -1.9206  0.5887
   27MOL   H38010312   2.363   5.477   6.272 -1.6915 -0.6068 -1.1036
   27MOL   H38110313   2.330   5.638   6.224 -0.0322 -0.2750  3.2553
   27MOL   H38210314   2.941   5.669   6.533  0.4426 -0.3360  0.2946
   28MOL     C110315   4.727   1.571   7.714  0.6530 -0.5100  0.0085
   28MOL     C210316   4.654   1.668   7.621  0.2362  0.2153  0.2295
   28MOL     O310317   4.515   1.673   7.649 -0.1544  0.1484 -0.4694
   28MOL     C410318   4.442   1.547   7.655 -0.1987  0.7742  0.2179
   28MOL     C510319   4.304   1.570   7.723  0.1287  0.5333 -0.1652
   28MOL     C610320   4.199   1.660   7.654 -0.2927 -0.4037  1.2652
   28MOL     C710321   4.057   1.642   7.719 -0.1516  0.2923  0.1680
   28MOL     H810322   4.701   1.469   7.683  1.6525 -0.8010  0.1092
   28MOL     H910323   4.833   1.591   7.704  0.3015  1.0091 -0.7642
   28MOL    H1010324   4.672   1.627   7.522  1.8715  1.6800 -0.1134
   28MOL    H1110325   4.415   1.505   7.557 -1.6441  1.6451  0.2308
   28MOL    H1210326   4.490   1.462   7.703 -0.4257  0.9056  0.6813
   28MOL    H1310327   4.323   1.611   0.020  1.2489 -1.5879  0.5392
   28MOL    H1410328   4.255   1.474   7.740  0.0533  0.1372 -2.3795
   28MOL    H1510329   4.201   1.645   7.546  0.9972  0.8514  1.0911
   28MOL    H1610330   4.221   1.765   7.672 -0.6107 -0.0716 -0.2286
   28MOL    H1710331   4.049   1.689   0.016  0.2939 -0.3493  0.5123
   28MOL    H1810332   4.036   1.536   7.728  2.5422 -0.1225  2.1518
   28MOL    H1910333   3.980   1.688   7.657 -0.4461 -0.8266 -0.2974
   28MOL    H2010334   4.716   1.593   0.018 -0.2528 -0.0138 -0.1878
   28MOL    C2110335   4.708   1.809   7.624  0.2573 -0.2803  0.2728
   28MOL    C2210336   4.841   1.829   7.544  0.8329 -0.5414 -0.8933
   28MOL    O2310337   4.802   1.821   7.403 -0.3262 -0.1813 -0.1905
   28MOL    C2410338   4.888   1.734   7.338 -0.6871  0.4884 -0.8365
   28MOL    C2510339   4.862   1.750   7.191  0.0776 -0.0150  0.2358
   28MOL    C2610340   4.939   1.642   7.101 -0.5159 -1.9418  0.5957
   28MOL    C2710341   4.878   1.504   7.097  0.0145  0.8457  0.2717
   28MOL    H2810342   4.723   1.842   7.726 -3.3045  0.9424  0.4831
   28MOL    H2910343   4.637   1.878   7.577  1.1801 -0.2737 -1.1480
   28MOL    H3010344   4.921   1.767   7.582  0.6002  0.5411  1.4820
   28MOL    H3110345   4.863   1.631   7.364  1.4532  0.4417  1.2372
   28MOL    H3210346   4.995   1.745   7.356 -0.5470 -1.4591 -0.3510
   28MOL    H3310347   4.756   1.749   7.164  0.3288 -1.2223 -0.7718
   28MOL    H3410348   4.891   1.851   7.161  1.1501 -0.2380  0.4982
   28MOL    H3510349   4.938   1.678   6.998 -0.3624  0.0212  1.2457
   28MOL    H3610350   5.040   1.616   7.133  0.4131  3.5716  2.7835
   28MOL    H3710351   4.770   1.505   7.079  0.0603 -1.2293 -0.2482
   28MOL    H3810352   4.925   1.435   7.027 -1.4177  0.9198 -0.7759
   28MOL    H3910353   4.897   1.453   7.191  2.3367  0.9727 -0.1036
   28MOL    C4010354   4.881   1.974   7.568  0.2025 -0.6481 -0.0828
   28MOL    C4110355   5.014   2.016   7.497  0.0056 -0.1484 -0.4328
   28MOL    O4210356   5.115   1.936   7.568  0.1106 -0.4084  0.1941
   28MOL    C4310357   5.223   1.900   7.482  0.1646  0.5989  0.0076
   28MOL    C4410358   5.338   1.844   7.573  0.3841  0.3812 -0.0893
   28MOL    C4510359   5.351   1.693   7.565  0.8885 -0.7979 -0.2683
   28MOL    C4610360   5.434   1.650   7.451  0.1150  0.1264  0.0440
   28MOL    H4710361   4.894   1.989   7.675  0.7874 -0.1413 -0.2268
   28MOL    H4810362   4.795   2.033   7.537 -0.8910 -1.6808  0.9267
   28MOL    H4910363   5.004   1.993   7.391 -2.5928  2.1977 -0.7445
   28MOL    H5010364   5.246   1.994   7.433 -2.0476  0.2696 -1.7424
   28MOL    H5110365   5.196   1.831   7.402  0.4604  0.1157  0.3209
   28MOL    H5210366   5.316   1.873   7.676 -0.0095 -3.5905  1.0186
   28MOL    H5310367   5.430   1.896   7.546  0.2571  0.7559  0.1973
   28MOL    H5410368   5.249   1.656   7.560  0.9338 -0.7679 -1.5853
   28MOL    H5510369   5.402   1.657   7.654  3.7375  1.8328 -0.7675
   28MOL    H5610370   5.534   1.686   7.475  0.4863 -0.7499 -0.1548
   28MOL    H5710371   5.442   1.545   7.423 -1.9033  0.2546 -1.1817
   28MOL    H5810372   5.404   1.699   7.358  2.1139  0.8586 -0.2323
   28MOL    C5910373   5.034   2.164   7.492  0.6985  0.3258  0.2125
   28MOL    C6010374   5.099   2.232   7.614  0.3032  0.5488 -0.2993
   28MOL    O6110375   5.131   2.363   7.581  0.8540 -0.3074 -0.0652
   28MOL    C6210376   5.025   2.452   7.543  0.2373  0.0816  0.5170
   28MOL    C6310377   5.092   2.585   7.499 -0.6173 -0.1544 -0.3836
   28MOL    C6410378   4.976   2.664   7.435 -0.1592 -0.7543 -0.0814
   28MOL    C6510379   5.033   2.797   7.365 -0.2984 -0.1323  0.3570
   28MOL    H6610380   5.105   2.193   7.414  0.7328 -1.2704 -0.3645
   28MOL    H6710381   4.935   2.208   7.483 -0.3224 -2.0676 -0.7197
   28MOL    H6810382   5.198   2.188   7.624  0.0511  0.2005  0.6756
   28MOL    H6910383   4.948   2.464   7.619  0.2579  1.8009  0.2916
   28MOL    H7010384   4.972   2.409   7.458  0.0523  0.2496  0.5453
   28MOL    H7110385   5.126   2.646   7.582  2.7951  0.3596 -2.0738
   28MOL    H7210386   5.175   2.564   7.432 -1.8466  0.7504 -2.2480
   28MOL    H7310387   4.921   2.601   7.365 -0.7525  2.3417 -2.4695
   28MOL    H7410388   4.908   2.698   7.513 -0.7355 -1.0439 -0.4540
   28MOL    H7510389   5.130   2.775   7.320 -0.3230 -3.1079  1.6224
   28MOL    H7610390   4.965   2.835   7.288 -0.8018  0.7666  1.2337
   28MOL    H7710391   5.053   2.875   7.438 -0.5501 -0.9282  1.2881
   28MOL    C7810392   5.019   2.215   7.746 -0.5442  0.4527  0.0256
   28MOL    C7910393   5.095   2.282   0.064 -0.0499 -0.0176  0.0645
   28MOL    O8010394   5.213   2.193   0.097 -0.1639  0.0706  0.6552
   28MOL    C8110395   5.340   2.242   0.072 -0.5269 -0.1390  0.2361
   28MOL    C8210396   5.434   2.121   0.040  0.1117 -0.9225  0.2130
   28MOL    C8310397   5.583   2.155   0.003  0.2704 -0.0524 -0.4269
   28MOL    C8410398   5.658   2.211   0.135 -0.2595  0.3473  0.5502
   28MOL    H8510399   5.012   2.107   7.761  1.5134 -0.0290 -2.0808
   28MOL    H8610400   4.922   2.262   7.729 -1.1313 -0.6656  0.2476
   28MOL    H8710401   5.116   2.386   0.039 -0.6352  0.0726 -0.0439
   28MOL    H8810402   5.372   2.307   0.154  2.3300 -1.6614  0.4016
   28MOL    H8910403   5.332   2.304   7.784 -1.7701 -0.4274  0.1425
   28MOL    H9010404   5.431   2.029   0.098  1.5936 -1.8669 -1.1517
   28MOL    H9110405   5.398   2.087   7.745 -0.4040  0.8532 -0.2396
   28MOL    H9210406   5.593   2.235   7.732 -2.6183 -0.2946 -1.1252
   28MOL    H9310407   5.637   2.064   7.775  1.1626  0.5427 -0.6635
   28MOL    H9410408   5.607   2.162   0.219 -0.7898  1.2577  0.7721
   28MOL    H9510409   5.765   2.197   0.143 -0.3358 -0.1205  0.7762
   28MOL    H9610410   5.654   2.320   0.139  0.3685  0.3627  0.7280
   28MOL    C9710411   5.003   2.281   0.188 -0.5224 -0.7519  0.1711
   28MOL    C9810412   4.868   2.359   0.173  0.2356 -0.2227  0.3915
   28MOL    O9910413   4.775   2.267   0.117  0.2341  0.4095  0.6227
   28MOL   C10010414   4.660   2.318   0.062 -0.4474  0.0776 -0.3719
   28MOL   C10110415   4.619   2.216   7.752  0.3657 -0.2762  0.2143
   28MOL   C10210416   4.517   2.269   7.649 -0.5903 -0.8624  0.5381
   28MOL   C10310417   4.467   2.158   7.556  0.0967  0.6342  0.4033
   28MOL   H10410418   5.057   2.319   0.275 -1.1447 -1.3225  0.8084
   28MOL   H10510419   4.997   2.174   0.206  0.7584 -0.7682  0.5676
   28MOL   H10610420   4.884   2.447   0.110  1.6123  0.1726  1.2832
   28MOL   H10710421   4.676   2.420   0.027  0.2314 -0.6001 -2.0638
   28MOL   H10810422   4.578   2.330   0.134  0.0233 -2.5526  0.6585
   28MOL   H10910423   4.568   2.138   0.007  0.0693 -0.4766 -0.3328
   28MOL   H11010424   4.704   2.174   7.699  0.5458  0.2915  0.0416
   28MOL   H11110425   4.546   2.363   7.601 -0.8800 -1.2314 -0.3645
   28MOL   H11210426   4.434   2.297   7.713  0.9511  1.1676  1.7103
   28MOL   H11310427   4.378   2.188   7.501 -1.5554 -0.3396  2.4527
   28MOL   H11410428   4.546   2.121   7.491 -1.7561  1.1805 -2.2551
   28MOL   H11510429   4.424   2.076   7.614 -1.6676  0.3766 -1.1927
   28MOL   C11610430   4.793   2.405   0.309  0.0945 -0.2365  0.7231
   28MOL   C11710431   4.875   2.511   0.383  0.3067  0.3959 -0.2785
   28MOL   O11810432   4.901   2.621   0.299 -0.3226 -0.2580 -0.0740
   28MOL   C11910433   5.043   2.663   0.300  0.6553 -0.7584  0.5197
   28MOL   C12010434   5.073   2.783   0.199  0.3831 -0.1643 -0.1254
   28MOL   C12110435   5.086   2.745   0.052 -0.0729 -0.3525  0.1386
   28MOL   C12210436   5.087   2.863   7.756  0.1201 -0.0229  0.2485
   28MOL   H12310437   4.691   2.436   0.287  0.7008  0.6599 -0.9804
   28MOL   H12410438   4.781   2.324   0.381 -0.8670  0.0805  0.9279
   28MOL   H12510439   4.964   2.467   0.428 -0.6945 -0.5705  0.8027
   28MOL   H12610440   5.103   2.574   0.281  2.3001  0.8104 -1.8852
   28MOL   H12710441   5.064   2.712   0.396 -4.5273  0.7773  1.0494
   28MOL   H12810442   5.161   2.840   0.227  0.3634 -0.8939  1.5015
   28MOL   H12910443   4.988   2.851   0.201  0.3062 -0.2977  2.0476
   28MOL   H13010444   5.180   2.690   0.045  0.0335 -0.0864 -0.6943
   28MOL   H13110445   5.011   2.670   0.027  0.0555 -0.4836  0.1457
   28MOL   H13210446   5.170   2.932   7.770 -1.0927  1.2474  1.2535
   28MOL   H13310447   4.998   2.925   7.769  0.3435 -0.1794  2.8121
   28MOL   H13410448   5.080   2.838   7.650 -0.5611  1.8337 -0.1598
   28MOL   C13510449   4.780   2.559   0.508 -0.3967  0.5103 -0.0954
   28MOL   C13610450   4.837   2.646   0.620  0.1692  0.6001 -0.0075
   28MOL   O13710451   4.729   2.679   0.717 -0.0321 -0.2705  0.2311
   28MOL   C13810452   4.706   2.815   0.720 -0.2092 -0.7229 -0.1635
   28MOL   C13910453   4.611   2.848   0.834  0.4224 -0.1249  0.7777
   28MOL   C14010454   4.574   3.004   0.844 -0.3092 -0.0700 -0.6318
   28MOL   C14110455   4.467   3.033   0.948  1.0086  0.0429  0.1749
   28MOL   H14210456   4.725   2.473   0.547 -1.9347  2.0403  1.2126
   28MOL   H14310457   4.701   2.619   0.463  0.5519 -0.6589 -3.4502
   28MOL   H14410458   4.873   2.737   0.571  0.2349  0.6411  0.1162
   28MOL   H14510459   4.657   2.855   0.631  0.7192 -0.4015 -0.5381
   28MOL   H14610460   4.798   2.874   0.719 -0.9349  0.4423 -1.5625
   28MOL   H14710461   4.667   2.821   0.923 -0.3768 -1.1943  0.9685
   28MOL   H14810462   4.530   2.775   0.839  0.4381 -0.2125 -0.1125
   28MOL   H14910463   4.667   3.058   0.859  0.0294 -1.4244  2.5613
   28MOL   H15010464   4.535   3.036   0.747 -2.0831  2.3907  0.8423
   28MOL   H15110465   4.392   2.954   0.953  0.3221  0.8045  2.4297
   28MOL   H15210466   4.503   3.029   1.051 -0.8955 -0.7275  0.8352
   28MOL   H15310467   4.426   3.130   0.919 -2.0662 -1.7130 -1.6528
   28MOL   C15410468   4.948   2.580   0.700 -0.3894 -0.2439 -0.2929
   28MOL   C15510469   5.036   2.673   0.797  0.2452 -0.0593 -0.3748
   28MOL   O15610470   4.961   2.708   0.919  0.0840 -0.0263 -0.4398
   28MOL   C15710471   4.893   2.605   0.986  0.6657 -0.6667 -0.1073
   28MOL   C15810472   4.902   2.615   1.139 -0.1499 -0.3794 -0.0097
   28MOL   C15910473   4.810   2.712   1.201  0.1403  0.0486 -0.0456
   28MOL   C16010474   4.793   2.707   1.350  0.3713 -0.1825 -0.0134
   28MOL   H16110475   5.026   2.537   0.637 -3.4680 -2.6766 -2.6106
   28MOL   H16210476   4.907   2.490   0.744 -1.5589  0.0087 -0.8432
   28MOL   H16310477   5.123   2.612   0.822 -1.0628 -0.6183  3.2081
   28MOL   H16410478   4.789   2.611   0.954  0.3815 -0.2557  0.8493
   28MOL   H16510479   4.936   2.508   0.963  1.2146  0.2921 -3.3158
   28MOL   H16610480   5.001   2.653   1.163 -1.2783  1.4820  1.9846
   28MOL   H16710481   4.895   2.520   1.191 -2.4197  0.4716  1.2975
   28MOL   H16810482   4.849   2.810   1.173 -0.9494  0.0758 -1.5656
   28MOL   H16910483   4.712   2.709   1.153 -0.2761  0.3052  0.7830
   28MOL   H17010484   4.722   2.779   1.390 -0.1493 -1.0655  0.6601
   28MOL   H17110485   4.763   2.611   1.390  3.0560 -0.9433  0.2602
   28MOL   H17210486   4.885   2.730   1.404 -0.1950  0.2729  0.7655
   28MOL   C17310487   5.089   2.805   0.730 -0.0433  0.3700  0.0445
   28MOL   C17410488   5.193   2.877   0.815  0.0142 -0.1086  0.4786
   28MOL   O17510489   5.292   2.782   0.851  0.0280  0.4106 -0.3344
   28MOL   C17610490   5.324   2.767   0.986 -0.5991 -0.4131  0.9941
   28MOL   C17710491   5.403   2.635   0.995 -0.5675 -0.4323 -0.2006
   28MOL   C17810492   5.447   2.595   1.139 -0.5909 -0.1311 -0.5049
   28MOL   C17910493   5.542   2.684   1.214 -0.1759  0.0247 -0.0303
   28MOL   H18010494   5.017   2.885   0.712  0.5384  0.8989  0.0432
   28MOL   H18110495   5.134   2.775   0.635 -1.2868 -0.2629 -0.3651
   28MOL   H18210496   5.149   2.921   0.905 -0.9644 -1.9933  0.9572
   28MOL   H18310497   5.239   2.751   1.053 -0.3398 -0.7138  1.2502
   28MOL   H18410498   5.378   2.850   1.029  1.5164 -1.2761  0.0727
   28MOL   H18510499   5.476   2.622   0.915 -2.6193 -3.0963 -1.7351
   28MOL   H18610500   5.337   2.550   0.977  1.0918 -1.7138 -0.4441
   28MOL   H18710501   5.353   2.602   1.195  0.6342 -1.0927  1.7481
   28MOL   H18810502   5.479   2.493   1.157  0.5271  0.6110  2.1092
   28MOL   H18910503   5.556   2.664   1.320  0.9740 -1.5008 -0.4427
   28MOL   H19010504   5.644   2.679   1.176  0.0493  0.8020  0.4713
   28MOL   H19110505   5.499   2.784   1.201 -0.8598 -0.1175  1.0834
   28MOL   C19210506   5.264   2.989   0.738  0.9026 -0.0443  0.3563
   28MOL   C19310507   5.169   3.095   0.670  0.3454  0.2471 -0.0855
   28MOL   O19410508   5.076   3.150   0.765 -0.3199 -0.6339  0.0614
   28MOL   C19510509   4.963   3.202   0.709 -0.3427  0.0731  0.3893
   28MOL   C19610510   4.885   3.271   0.818  0.9156 -0.4262  0.3940
   28MOL   C19710511   4.946   3.400   0.877 -0.7937 -0.2079 -0.3615
   28MOL   C19810512   4.867   3.459   0.991 -0.7031 -0.1174  0.1921
   28MOL   H19910513   5.332   2.948   0.664 -1.1021 -1.8941 -0.5281
   28MOL   H20010514   5.320   3.037   0.818 -0.7693  1.4093  0.7063
   28MOL   H20110515   5.114   3.051   0.586 -1.3304 -0.6181  1.4308
   28MOL   H20210516   4.899   3.130   0.657  0.2119  0.7242 -1.2245
   28MOL   H20310517   4.998   3.275   0.636 -0.2074 -1.1091 -0.7561
   28MOL   H20410518   4.791   3.306   0.774  1.3215 -1.7412 -1.5869
   28MOL   H20510519   4.849   3.204   0.896 -0.3339  1.0520  1.1149
   28MOL   H20610520   4.971   3.477   0.804  2.6481  1.8524  2.7936
   28MOL   H20710521   5.045   3.372   0.912 -1.2132 -0.3287  0.7669
   28MOL   H20810522   4.761   3.472   0.969 -0.3595  3.0325  0.1711
   28MOL   H20910523   4.886   3.411   1.087  0.3070 -0.0916  0.0043
   28MOL   H21010524   4.908   3.559   1.001  1.1397 -1.2852  6.5165
   28MOL   C21110525   5.261   3.212   0.608  0.0743  0.7684 -0.4048
   28MOL   C21210526   5.336   3.303   0.715  0.1749 -0.0923 -0.0512
   28MOL   O21310527   5.472   3.267   0.748  0.6693 -0.2145 -0.3321
   28MOL   C21410528   5.557   3.303   0.645 -0.3514  0.0165  0.9067
   28MOL   C21510529   5.693   3.232   0.663  0.1101 -0.8921  0.3037
   28MOL   C21610530   5.802   3.240   0.549 -0.0568 -0.7949  0.1726
   28MOL   C21710531   5.742   3.236   0.412  0.2010  0.6082 -0.5549
   28MOL   H21810532   5.197   3.277   0.549  0.9010  2.7482  0.8237
   28MOL   H21910533   5.333   3.168   0.538  0.5929 -0.1190  0.6572
   28MOL   H22010534   5.286   3.270   0.807  1.2227 -1.5897 -0.0088
   28MOL   H22110535   5.516   3.273   0.548  4.2765 -1.9972 -0.5763
   28MOL   H22210536   5.561   3.411   0.655 -1.1630  0.3223 -1.6414
   28MOL   H22310537   5.745   3.275   0.748  0.5288  1.4113 -1.0674
   28MOL   H22410538   5.674   3.130   0.695  0.8379 -0.5442  1.8597
   28MOL   H22510539   5.878   3.162   0.558  0.6385 -0.4326 -2.1510
   28MOL   H22610540   5.856   3.334   0.562  1.4452 -1.9467  2.6966
   28MOL   H22710541   5.697   3.334   0.392  1.1710  1.3013  0.6214
   28MOL   H22810542   5.650   3.177   0.408  1.0672 -0.9502  1.4678
   28MOL   H22910543   5.814   3.204   0.337  0.0892  1.4190 -1.0157
   28MOL   C23010544   5.307   3.451   0.686 -0.1323 -0.0742  0.2037
   28MOL   C23110545   5.365   3.548   0.785  0.2181 -0.5564 -0.6000
   28MOL   O23210546   5.339   3.674   0.726  0.8169 -0.4699  0.3850
   28MOL   C23310547   5.439   3.766   0.718 -0.0539  0.7454  1.2773
   28MOL   C23410548   5.370   3.900   0.737  1.0234 -0.0389  0.9940
   28MOL   C23510549   5.442   4.017   0.684  0.3992  0.0731 -0.2098
   28MOL   C23610550   5.423   4.050   0.536 -0.4000  0.3674 -0.5492
   28MOL   H23710551   5.200   3.472   0.689  0.1194  1.3215 -0.5706
   28MOL   H23810552   5.328   3.484   0.585  2.4275  2.3295  1.4478
   28MOL   H23910553   5.472   3.529   0.789  0.3159  0.4141  2.4513
   28MOL   H24010554   5.517   3.756   0.794  0.3301  0.8537  0.8967
   28MOL   H24110555   5.483   3.757   0.619  0.8611  0.4510  1.7058
   28MOL   H24210556   5.269   3.903   0.694  1.1062 -2.0784  0.5809
   28MOL   H24310557   5.351   3.915   0.843  0.4230 -1.3836  1.0857
   28MOL   H24410558   5.542   3.981   0.710  0.2193 -1.6534 -1.8178
   28MOL   H24510559   5.414   4.109   0.735 -1.3895 -1.4280  1.6082
   28MOL   H24610560   5.421   3.965   0.468  0.4898 -2.1780  2.4953
   28MOL   H24710561   5.502   4.119   0.506  0.2654  0.7496  1.9372
   28MOL   H24810562   5.335   4.113   0.521 -2.5386 -2.4364 -0.2361
   28MOL   C24910563   5.302   3.548   0.935 -0.1608 -0.5001  0.5883
   28MOL   C25010564   5.385   3.630   1.044  0.5869  0.1527  0.2059
   28MOL   O25110565   5.513   3.567   1.059 -0.2024 -0.2058 -0.0941
   28MOL   C25210566   5.610   3.638   1.118 -0.0145 -0.1618 -0.1387
   28MOL   C25310567   5.731   3.566   1.137 -0.6446  0.0829 -0.3443
   28MOL   C25410568   5.841   3.659   1.191  0.0878  0.0579  0.1860
   28MOL   C25510569   5.954   3.570   1.233  0.1824  0.3967 -0.0522
   28MOL   H25610570   5.312   3.446   0.972 -1.3017 -0.1022  1.9888
   28MOL   H25710571   5.197   3.575   0.929 -0.4556 -1.5714  0.8858
   28MOL   H25810572   5.403   3.729   1.002  0.4783 -0.2356 -0.7619
   28MOL   H25910573   5.573   3.681   1.211  0.6470  1.3780 -0.5705
   28MOL   H26010574   5.628   3.730   1.063 -0.5525  0.8256  1.3222
   28MOL   H26110575   5.705   3.494   1.215  1.2402 -0.0184  0.2340
   28MOL   H26210576   5.756   3.512   1.046  1.2705 -1.2095  0.9122
   28MOL   H26310577   5.865   3.731   1.112 -0.8382 -0.0681 -0.2203
   28MOL   H26410578   5.799   3.710   1.278 -1.8927 -0.0892 -0.6576
   28MOL   H26510579   5.995   3.504   1.156  2.5315  2.6876 -0.8534
   28MOL   H26610580   5.924   3.490   1.300  0.4219 -0.2215 -0.6700
   28MOL   H26710581   6.028   3.632   1.284 -1.0742  3.0842 -1.3625
   28MOL   C26810582   5.299   3.647   1.177  0.4882  0.2928 -0.3620
   28MOL   C26910583   5.184   3.746   1.170 -0.2185  0.5741  0.2039
   28MOL   O27010584   5.111   3.736   1.288 -0.2943  0.0526  0.5218
   28MOL   C27110585   4.993   3.667   1.291 -1.1632  0.0496  0.0198
   28MOL   C27210586   4.957   3.631   1.436 -0.1504  0.0062 -0.2503
   28MOL   C27310587   4.848   3.533   1.463  0.6162 -0.1876 -0.3829
   28MOL   C27410588   4.890   3.386   1.472  0.3631  0.1608 -0.3184
   28MOL   H27510589   5.271   3.546   1.208  1.9034 -0.2392 -0.7335
   28MOL   H27610590   5.370   3.670   1.257 -0.2335  0.8372  0.1199
   28MOL   H27710591   5.123   3.713   1.086 -0.1952  0.2239  0.3258
   28MOL   H27810592   4.911   3.712   1.234 -1.9690 -0.4240  0.7840
   28MOL   H27910593   5.029   3.578   1.241 -2.1924  0.0134 -0.6741
   28MOL   H28010594   5.044   3.584   1.482 -0.3512 -0.8056 -0.6908
   28MOL   H28110595   4.930   3.728   1.479  0.1051  0.0337 -0.1533
   28MOL   H28210596   4.778   3.533   1.379  1.0734 -0.5280 -0.7672
   28MOL   H28310597   4.788   3.570   1.546 -0.3427  0.9741 -1.5845
   28MOL   H28410598   4.971   3.371   1.544  0.0946  0.3657  0.0266
   28MOL   H28510599   4.926   3.339   1.380  0.3521 -2.1242  0.8118
   28MOL   H28610600   4.804   3.326   1.501 -0.1337  0.2866 -1.5101
   28MOL   C28710601   5.226   3.893   1.162  0.1647 -0.8322  0.0812
   28MOL   C28810602   5.109   3.989   1.142 -0.7560 -0.4475 -0.3378
   28MOL   O28910603   5.083   3.987   1.003 -0.3548  0.0352 -0.3881
   28MOL   C29010604   4.966   4.041   0.955  0.3376 -0.0836 -0.2871
   28MOL   C29110605   4.954   3.985   0.807 -0.3091 -0.0485  0.9498
   28MOL   C29210606   4.911   3.838   0.809  0.4729  0.5198  0.3703
   28MOL   C29310607   4.940   3.771   0.675 -0.0676  0.1926  0.1694
   28MOL   H29410608   5.306   3.909   1.090 -1.4619  1.6730 -1.2100
   28MOL   H29510609   5.272   3.916   1.258  0.0554 -0.1896 -0.0228
   28MOL   H29610610   5.025   3.939   1.189 -1.3322  0.2211 -0.6477
   28MOL   H29710611   4.884   4.000   1.014  1.0267 -0.9903  0.0525
   28MOL   H29810612   4.962   4.150   0.963  1.6460  0.0799 -1.6953
   28MOL   H29910613   5.048   4.009   0.759  0.8032 -0.7148  2.7382
   28MOL   H30010614   4.867   4.039   0.770 -0.3596 -1.2807 -0.7882
   28MOL   H30110615   4.803   3.829   0.815  0.2049  1.0093 -2.8756
   28MOL   H30210616   4.964   3.785   0.888  1.8068  2.7422  1.0193
   28MOL   H30310617   4.893   3.672   0.676 -1.0315  0.6354  1.6412
   28MOL   H30410618   4.892   3.830   0.597 -0.4232  2.4482  2.0473
   28MOL   H30510619   5.045   3.763   0.649 -0.5542 -2.0174 -1.3097
   28MOL   C30610620   5.141   4.124   1.202  0.2736 -0.3109  0.5739
   28MOL   C30710621   5.099   4.139   1.353 -0.4411  0.2888  0.7969
   28MOL   O30810622   4.954   4.148   1.342 -0.3814 -0.8656  0.2624
   28MOL   C30910623   4.884   4.079   1.448  0.3889 -0.0373 -0.3250
   28MOL   C31010624   4.736   4.079   1.414 -0.5812 -0.3288  0.0850
   28MOL   C31110625   4.658   3.975   1.495 -0.3199  0.1875 -1.2394
   28MOL   C31210626   4.515   4.006   1.512  0.1246 -0.0778  0.0300
   28MOL   H31310627   5.241   4.148   1.166 -0.4978 -0.6885 -1.9993
   28MOL   H31410628   5.087   4.206   1.153  1.7990 -0.1221 -0.8468
   28MOL   H31510629   5.132   4.053   1.411  0.5268  0.5899  0.6933
   28MOL   H31610630   4.909   4.127   1.542 -1.5489 -0.3736  0.3899
   28MOL   H31710631   4.923   3.977   1.447  0.6492  0.0596 -0.0641
   28MOL   H31810632   4.710   4.061   1.310  0.0710 -1.6644  0.1416
   28MOL   H31910633   4.693   4.178   1.431 -0.3008  0.0004 -1.0869
   28MOL   H32010634   4.677   3.879   1.445 -1.3558 -0.1763 -0.9433
   28MOL   H32110635   4.701   3.951   1.592 -0.1630  1.8872 -0.8797
   28MOL   H32210636   4.472   3.916   1.556 -2.0578  0.9123 -0.0144
   28MOL   H32310637   4.475   4.035   1.415 -0.0184  2.5280  0.8207
   28MOL   H32410638   4.509   4.100   1.567 -0.5695  1.1447 -2.0853
   28MOL   C32510639   5.137   4.274   1.408 -0.1724 -0.0184 -0.1237
   28MOL   C32610640   5.289   4.300   1.431 -0.3869 -0.6875 -0.2717
   28MOL   O32710641   5.311   4.440   1.441 -0.3012 -0.4173 -0.0377
   28MOL   C32810642   5.333   4.514   1.319  0.9675 -0.2621 -0.0114
   28MOL   C32910643   5.322   4.661   1.338  0.5630 -0.2536 -0.0687
   28MOL   C33010644   5.389   4.705   1.471  0.1030 -0.2112 -0.0410
   28MOL   C33110645   5.394   4.852   1.510 -0.5293 -0.2646 -0.5625
   28MOL   H33210646   5.091   4.286   1.506 -2.2320  1.1526 -1.2008
   28MOL   H33310647   5.098   4.355   1.346  0.4739  0.2555 -0.1767
   28MOL   H33410648   5.360   4.254   1.362  1.7827 -0.5869  1.8284
   28MOL   H33510649   5.282   4.482   1.228 -0.4912  0.5293  0.5051
   28MOL   H33610650   5.439   4.490   1.305  0.8739 -2.0081  1.9631
   28MOL   H33710651   5.378   4.716   1.263 -1.2172  0.8101 -0.6525
   28MOL   H33810652   5.223   4.707   1.337 -1.0834 -3.6716  0.7579
   28MOL   H33910653   5.494   4.676   1.479 -0.1590 -1.2872 -0.4173
   28MOL   H34010654   5.334   4.658   1.552 -0.7759 -0.7753 -0.9490
   28MOL   H34110655   5.295   4.886   1.541 -0.6382 -1.5565  0.5399
   28MOL   H34210656   5.440   4.908   1.428 -1.4116  0.6216 -0.4616
   28MOL   H34310657   5.459   4.865   1.597  0.5129  1.1278 -1.5356
   28MOL   C34410658   5.339   4.228   1.564 -0.0308  0.5652 -0.4166
   28MOL   C34510659   5.488   4.202   1.566 -0.4514 -0.5468 -0.0407
   28MOL   O34610660   5.538   4.091   1.500 -0.0253  1.0869  0.1107
   28MOL   C34710661   5.652   4.107   1.421  0.2741  0.3043 -0.2625
   28MOL   C34810662   5.614   4.137   1.276 -0.2759 -0.5876  0.0028
   28MOL   C34910663   5.584   4.009   1.191  1.0548 -0.3753 -0.3028
   28MOL   C35010664   5.570   4.053   1.041 -0.7143  0.4299  1.0151
   28MOL   H35110665   5.295   4.269   1.655 -0.3813 -1.3956  0.3253
   28MOL   H35210666   5.296   4.129   1.552  0.0523  0.7676 -2.6421
   28MOL   H35310667   5.531   4.291   1.521  1.5619 -0.4361  1.9990
   28MOL   H35410668   5.718   4.020   1.418  2.3023  1.8191 -0.5200
   28MOL   H35510669   5.714   4.183   1.468  2.7491 -2.4665  1.1004
   28MOL   H35610670   5.692   4.192   1.225 -0.8107  2.2789  2.1614
   28MOL   H35710671   5.523   4.195   1.259 -0.7751 -1.4275 -0.2319
   28MOL   H35810672   5.660   3.932   1.205  0.9044 -0.8351 -1.8493
   28MOL   H35910673   5.486   3.980   1.228  1.2302  0.4967  0.8798
   28MOL   H36010674   5.671   4.080   1.011  0.1011 -1.4498  1.9355
   28MOL   H36110675   5.515   4.147   1.044 -0.7934  0.4157  0.1117
   28MOL   H36210676   5.514   3.983   0.979 -0.7907  1.6650 -0.3367
   28MOL   C36310677   5.541   4.220   1.708  0.3354  0.1857  0.3813
   28MOL   C36410678   5.530   4.365   1.760 -0.3502  0.0399 -0.1370
   28MOL   O36510679   5.539   4.369   1.900  0.1418  0.1221  0.1180
   28MOL   C36610680   5.564   4.495   1.959  0.2798 -0.7300 -0.2080
   28MOL   C36710681   5.620   4.464   2.093 -0.0072 -0.1178  0.1992
   28MOL   C36810682   5.700   4.579   2.157  0.2192 -0.1650  0.2646
   28MOL   C36910683   5.797   4.532   2.271  0.0391 -0.4582  0.0429
   28MOL   H37010684   5.646   4.189   1.709 -0.4579 -2.7246 -1.3333
   28MOL   H37110685   5.496   4.148   1.776 -2.1670  1.5989  0.2698
   28MOL   H37210686   5.435   4.411   1.732  0.2311  0.0281 -2.1889
   28MOL   H37310687   5.469   4.549   1.962 -0.0847 -1.4095  0.5340
   28MOL   H37410688   5.634   4.553   1.898  0.1026 -2.1957 -1.8222
   28MOL   H37510689   5.689   4.381   2.080 -0.3174 -0.0944 -1.6486
   28MOL   H37610690   5.544   4.435   2.165 -0.2606  0.1032  0.0186
   28MOL   H37710691   5.625   4.647   2.198 -0.8345 -1.3362  0.3073
   28MOL   H37810692   5.767   4.632   2.089  0.2232  0.2572  0.5976
   28MOL   H37910693   5.888   4.491   2.226 -0.3824 -3.0988  1.4478
   28MOL   H38010694   5.841   4.608   2.335 -1.9638  1.1306 -0.4336
   28MOL   H38110695   5.761   4.457   2.342 -1.9197 -1.8638 -2.3797
   28MOL   H38210696   5.603   4.430   1.711 -0.8634  0.1637 -0.7475
   29MOL     C110697   0.918   4.310   6.373 -0.3478 -0.0448  0.1482
   29MOL     C210698   0.834   4.403   6.290 -0.0003  0.7587  0.0141
   29MOL     O310699   0.925   4.503   6.260 -0.1724  0.0453 -0.4957
   29MOL     C410700   0.927   4.615   6.353  0.0880 -0.1667  0.4239
   29MOL     C510701   1.028   4.719   6.303 -0.4585 -0.2521 -0.0234
   29MOL     C610702   0.986   4.787   6.167  0.0403  0.7046 -1.1777
   29MOL     C710703   1.091   4.890   6.129 -0.3681 -0.4948  0.1899
   29MOL     H810704   0.860   4.244   6.437 -0.5661  0.6715  0.7021
   29MOL     H910705   0.974   4.246   6.305 -2.7691 -1.3280 -0.6840
   29MOL    H1010706   0.748   4.438   6.348  1.5358  0.9155  2.2351
   29MOL    H1110707   0.826   4.654   6.345 -0.4524 -1.5046  0.6138
   29MOL    H1210708   0.955   4.588   6.455 -1.9244  2.3710  1.6781
   29MOL    H1310709   1.131   4.683   6.304 -0.5642 -0.5894  2.7928
   29MOL    H1410710   1.030   4.795   6.382  1.2508 -0.0622 -0.2343
   29MOL    H1510711   0.897   4.848   6.180  0.5370  1.5602 -1.7540
   29MOL    H1610712   0.983   4.708   6.092  0.1044 -1.2663  0.8541
   29MOL    H1710713   1.121   4.943   6.219 -0.0388  0.7821 -0.6448
   29MOL    H1810714   1.059   4.967   6.059 -1.8656 -2.0029 -0.8051
   29MOL    H1910715   1.170   4.838   6.074  1.9486  0.6420  2.3395
   29MOL    H2010716   0.977   4.369   6.442  1.2226 -1.0556 -0.3042
   29MOL    C2110717   0.787   4.342   6.159 -0.3528 -0.0152 -0.5276
   29MOL    C2210718   0.671   4.425   6.087  0.2495  0.7384  0.4912
   29MOL    O2310719   0.566   4.437   6.184 -0.5952  0.1349 -0.5405
   29MOL    C2410720   0.453   4.351   6.169 -0.8301 -0.0957 -0.6216
   29MOL    C2510721   0.394   4.317   6.302 -0.2462  0.0577 -0.1059
   29MOL    C2610722   0.492   4.245   6.393 -0.3056  0.0182 -0.6484
   29MOL    C2710723   0.444   4.225   6.537  0.0061 -0.4062 -0.6095
   29MOL    H2810724   0.744   4.243   6.175  0.0543 -0.0824  0.2069
   29MOL    H2910725   0.876   4.325   6.099  0.4353 -4.1280  1.6134
   29MOL    H3010726   0.644   4.363   6.002  0.0708 -0.2056  1.2284
   29MOL    H3110727   0.478   4.262   6.112 -3.0295 -1.8413  1.0711
   29MOL    H3210728   0.376   4.398   6.107 -0.2676  2.6241  0.6597
   29MOL    H3310729   0.356   4.402   6.359  0.4223  0.7887 -0.7348
   29MOL    H3410730   0.312   4.246   6.296 -2.0805  1.8809  2.2975
   29MOL    H3510731   0.528   4.152   6.349  0.4114  0.5872 -1.2816
   29MOL    H3610732   0.585   4.301   6.383  0.9042 -1.8765 -0.1210
   29MOL    H3710733   0.378   4.138   6.542 -0.2962 -0.3763 -3.5866
   29MOL    H3810734   0.527   4.197   6.603 -1.5604 -4.7195 -0.3213
   29MOL    H3910735   0.385   4.302   6.586  0.0428 -1.0274  0.4383
   29MOL    C4010736   0.717   4.560   6.044 -0.6836 -0.0850  0.1703
   29MOL    C4110737   0.629   4.636   5.939 -0.1194  0.2193 -0.9216
   29MOL    O4210738   0.688   4.601   5.807  0.1480  0.1140  0.5239
   29MOL    C4310739   0.598   4.622   5.704 -0.7533 -0.0432  0.1514
   29MOL    C4410740   0.561   4.486   5.654  0.3916  0.1942  0.4584
   29MOL    C4510741   0.481   4.409   5.753  0.2720 -0.2771 -0.0650
   29MOL    C4610742   0.440   4.272   5.694 -0.2225 -0.1943  0.5861
   29MOL    H4710743   0.821   4.546   6.013 -1.1106  1.7939 -2.2932
   29MOL    H4810744   0.727   4.617   6.136 -0.7472 -0.5572  0.4683
   29MOL    H4910745   0.529   4.595   5.950  0.0792  0.2472  1.2439
   29MOL    H5010746   0.654   4.673   5.625 -0.9670 -3.4161 -2.3092
   29MOL    H5110747   0.510   4.684   5.721 -1.6052 -2.4519  5.7436
   29MOL    H5210748   0.648   4.428   5.621 -0.3173 -0.4871 -0.2292
   29MOL    H5310749   0.504   4.501   5.563 -0.8389 -2.0543  0.8227
   29MOL    H5410750   0.392   4.472   5.761  0.2201 -0.3957  0.2910
   29MOL    H5510751   0.541   4.390   5.842  1.5434  0.1552 -0.8227
   29MOL    H5610752   0.380   4.289   5.604  1.2250  2.2549  0.0362
   29MOL    H5710753   0.525   4.208   5.674  0.3074 -0.1304  2.5654
   29MOL    H5810754   0.382   4.223   5.771 -1.9272  0.4447 -0.2599
   29MOL    C5910755   0.632   4.785   5.956 -0.8142 -0.6627  0.3250
   29MOL    C6010756   0.580   4.841   6.087 -0.8774 -1.4525  0.5044
   29MOL    O6110757   0.580   4.989   6.078 -0.4554 -0.0491 -0.5201
   29MOL    C6210758   0.699   5.049   6.117  0.7563  0.0401 -0.0739
   29MOL    C6310759   0.722   5.168   6.025 -0.3246  0.2163 -0.4580
   29MOL    C6410760   0.856   5.245   6.058  0.9686 -0.6325 -0.3975
   29MOL    C6510761   0.865   5.370   5.965  0.6302 -0.0362 -0.5403
   29MOL    H6610762   0.736   4.818   5.948 -0.9361 -0.6051 -1.1310
   29MOL    H6710763   0.565   4.837   5.888  0.1083  1.4143  0.9446
   29MOL    H6810764   0.648   4.822   6.170 -0.7971  1.2264  1.1043
   29MOL    H6910765   0.787   4.986   6.110 -1.0794 -2.8391  1.7717
   29MOL    H7010766   0.694   5.079   6.222  3.8900  2.5935 -0.5677
   29MOL    H7110767   0.741   5.125   5.927 -3.0885 -3.3105  0.4538
   29MOL    H7210768   0.637   5.237   6.016 -1.4984 -0.9190  1.6264
   29MOL    H7310769   0.867   5.274   6.162 -0.4287 -0.0534 -0.4056
   29MOL    H7410770   0.932   5.172   6.032 -0.3642 -2.3397  0.4364
   29MOL    H7510771   0.859   5.335   5.862  1.4454  0.1909 -0.6629
   29MOL    H7610772   0.773   5.428   5.979 -0.2133 -1.1123 -1.5080
   29MOL    H7710773   0.947   5.438   5.986  0.1329  0.5032 -0.3089
   29MOL    C7810774   0.436   4.802   6.118 -0.0040 -0.3140 -0.1015
   29MOL    C7910775   0.373   4.870   6.244 -0.0463  0.2273 -0.4071
   29MOL    O8010776   0.380   4.773   6.351  0.1466  0.0373 -0.5184
   29MOL    C8110777   0.494   4.789   6.439 -0.3080 -0.1508  0.2753
   29MOL    C8210778   0.536   4.653   6.503 -0.2035  0.6604  0.8543
   29MOL    C8310779   0.636   4.678   6.620  0.3142  0.0226  0.6544
   29MOL    C8410780   0.688   4.545   6.696 -0.0845 -0.2567 -0.5353
   29MOL    H8510781   0.441   4.696   6.145 -1.4968 -0.6884 -1.2445
   29MOL    H8610782   0.364   4.794   6.036  1.1684 -0.0335 -1.1768
   29MOL    H8710783   0.416   4.967   6.271  0.9788 -0.4701  0.4997
   29MOL    H8810784   0.484   4.847   6.531  2.2552 -2.3001  1.9852
   29MOL    H8910785   0.577   4.832   6.382  1.0936 -1.6069  1.1571
   29MOL    H9010786   0.452   4.591   6.535  0.6810 -0.1909  1.5265
   29MOL    H9110787   0.587   4.600   6.423 -1.3227 -0.0267  0.5799
   29MOL    H9210788   0.576   4.732   6.692 -1.1333  1.3355 -1.4930
   29MOL    H9310789   0.721   4.741   6.594  0.6952 -0.7369  0.0220
   29MOL    H9410790   0.606   4.494   6.745 -0.1195  0.1800 -0.1473
   29MOL    H9510791   0.738   4.478   6.625 -0.6327 -1.3293  0.0884
   29MOL    H9610792   0.759   4.577   6.772 -1.1245  0.1820  0.2556
   29MOL    C9710793   0.225   4.904   6.228 -0.2784  1.0297  0.0593
   29MOL    C9810794   0.185   5.037   6.159  0.0163 -0.1139 -0.3245
   29MOL    O9910795   0.230   5.020   6.027 -0.5719  0.2613  0.1280
   29MOL   C10010796   0.311   5.123   5.985 -0.1013 -0.1140 -0.3073
   29MOL   C10110797   0.343   5.104   5.844 -0.3045  0.8058  0.1019
   29MOL   C10210798   0.440   5.204   5.780  0.3391  0.4117 -0.2002
   29MOL   C10310799   0.405   5.351   5.787  0.1764 -0.6963 -0.0749
   29MOL   H10410800   0.180   4.895   6.327 -1.3950 -0.8466 -0.5971
   29MOL   H10510801   0.177   4.817   6.182 -0.0532  1.4186 -0.9313
   29MOL   H10610802   0.259   5.101   6.208  3.2123 -4.4185  0.8305
   29MOL   H10710803   0.402   5.127   6.045  0.3094 -2.1212 -0.7492
   29MOL   H10810804   0.256   5.217   5.991  0.4771  0.2737 -1.0370
   29MOL   H10910805   0.245   5.113   5.798 -0.1922 -1.6968 -0.6838
   29MOL   H11010806   0.374   5.005   5.812  1.0817  2.6543 -4.8536
   29MOL   H11110807   0.450   5.183   5.673  3.9208 -0.7650  0.2813
   29MOL   H11210808   0.541   5.200   5.821  0.9385  0.9872 -1.5830
   29MOL   H11310809   0.335   5.391   5.715  0.4780  1.6712  0.9144
   29MOL   H11410810   0.380   5.371   5.891 -0.9225 -2.3034 -0.0059
   29MOL   H11510811   0.487   5.421   5.771 -0.2587  0.0899  1.0770
   29MOL   C11610812   0.043   5.090   6.159 -0.4449 -0.1557  0.1914
   29MOL   C11710813   7.774   5.115   6.296 -0.3049 -0.1911 -0.2916
   29MOL   O11810814   0.039   5.233   6.352 -0.3348  0.4226 -0.5013
   29MOL   C11910815   0.059   5.244   6.498 -0.3807 -0.2510  0.2560
   29MOL   C12010816   0.194   5.177   6.532 -0.4201  0.4048  0.3413
   29MOL   C12110817   0.314   5.269   6.484 -0.2521 -0.0702 -0.4592
   29MOL   C12210818   0.451   5.227   6.533  0.0607 -0.5275 -0.2766
   29MOL   H12310819   0.023   5.177   6.097 -0.5369  1.3728  2.3166
   29MOL   H12410820   7.777   5.016   6.116 -1.5213  1.5818 -1.1791
   29MOL   H12510821   7.781   5.027   6.359  1.7352  1.5733  2.0483
   29MOL   H12610822   7.783   5.184   6.545 -0.4469  0.2373  0.7664
   29MOL   H12710823   0.053   5.351   6.519 -0.6593 -0.4833  1.3950
   29MOL   H12810824   0.197   5.073   6.499 -2.9266  1.2518 -2.9090
   29MOL   H12910825   0.200   5.185   6.640  2.9473 -0.9445  0.3332
   29MOL   H13010826   0.325   5.270   6.375 -0.0746  0.4779 -0.4383
   29MOL   H13110827   0.305   5.371   6.522  2.0662 -0.9809  2.7140
   29MOL   H13210828   0.485   5.132   6.491 -0.0935 -0.8147  0.2502
   29MOL   H13310829   0.448   5.215   6.641 -1.3129  2.4308  0.0604
   29MOL   H13410830   0.522   5.307   6.510  0.5928 -0.8840  0.1227
   29MOL   C13510831   7.627   5.157   6.290 -0.3389 -0.4529 -0.1867
   29MOL   C13610832   7.539   5.028   6.282 -0.6057  0.3546 -0.3234
   29MOL   O13710833   7.504   5.002   6.414 -0.1279  0.0829 -0.1379
   29MOL   C13810834   7.501   4.868   6.449 -0.0392 -0.2555  0.1137
   29MOL   C13910835   7.493   4.864   6.606  0.0121 -0.5806  0.5103
   29MOL   C14010836   7.610   4.937   6.673  0.0667 -0.2000  0.4770
   29MOL   C14110837   7.601   4.908   6.827  0.8229  0.2380  0.0096
   29MOL   H14210838   7.618   5.214   6.197 -0.3370 -0.3996 -0.1549
   29MOL   H14310839   7.606   5.208   6.384 -1.3080  0.1855 -0.7360
   29MOL   H14410840   7.578   4.948   6.219  1.5648  1.4705 -0.4399
   29MOL   H14510841   7.595   4.818   6.427  1.3959  1.7905  1.5463
   29MOL   H14610842   7.416   4.814   6.405  0.4881  0.9170 -2.3930
   29MOL   H14710843   7.495   4.764   6.648 -1.7425  0.0034  2.0354
   29MOL   H14810844   7.399   4.909   6.640 -0.7407 -0.3495 -1.8293
   29MOL   H14910845   7.707   4.904   6.635 -0.8918 -1.2737 -1.0401
   29MOL   H15010846   7.597   5.045   6.662 -0.7749 -0.4093 -0.6435
   29MOL   H15110847   7.599   4.799   6.841  3.6899  0.1340 -0.1571
   29MOL   H15210848   7.693   4.943   6.872  1.2399 -0.6829 -0.1036
   29MOL   H15310849   7.523   4.962   6.881 -0.0153 -0.4542 -0.4881
   29MOL   C15410850   7.400   5.049   6.223 -0.4352 -0.2454  0.1999
   29MOL   C15510851   7.389   5.083   6.074  0.3326 -0.1289  0.0893
   29MOL   O15610852   7.448   5.209   6.054  0.0031 -0.2958 -0.0700
   29MOL   C15710853   7.505   5.227   5.924  0.3024  1.0034 -0.6844
   29MOL   C15810854   7.604   5.345   5.930 -0.3686 -0.7990  0.0949
   29MOL   C15910855   7.626   5.416   5.803 -0.2802 -0.7988  0.1497
   29MOL   C16010856   7.758   5.501   5.798 -0.5967  0.4542  0.0736
   29MOL   H16110857   7.365   5.139   6.274  0.5514  0.4398 -0.3279
   29MOL   H16210858   7.329   4.973   6.256  0.9140 -1.2981  0.6750
   29MOL   H16310859   7.445   5.001   6.029  1.0617 -0.5356  1.6840
   29MOL   H16410860   7.559   5.140   5.889 -1.5873 -1.2404  1.7859
   29MOL   H16510861   7.421   5.245   5.856 -0.0664 -0.6533 -0.6749
   29MOL   H16610862   7.695   5.319   5.984 -2.0260 -1.9041  2.4562
   29MOL   H16710863   7.571   5.426   5.995 -1.5242 -2.0453  1.0864
   29MOL   H16810864   7.632   5.344   5.721  2.1474 -0.4469 -0.0348
   29MOL   H16910865   7.542   5.483   5.785 -0.1540 -0.8603 -0.6660
   29MOL   H17010866   7.745   5.595   5.852  0.5155  1.3568 -1.1891
   29MOL   H17110867   0.051   5.455   5.825 -0.7076  0.2769  0.1612
   29MOL   H17210868   7.774   5.530   5.694  0.8435 -0.2489  0.0993
   29MOL   C17310869   7.240   5.086   6.025 -0.0255  0.2595 -0.4966
   29MOL   C17410870   7.205   4.954   5.961  0.5542  0.0686  0.1468
   29MOL   O17510871   7.207   4.867   6.071 -0.1687 -0.5279  0.2695
   29MOL   C17610872   7.243   4.735   6.030 -0.9445  0.9833 -0.0628
   29MOL   C17710873   7.340   4.681   6.142  0.8924 -0.3075  0.9740
   29MOL   C17810874   7.386   4.539   6.104 -0.2165  0.0248 -0.0144
   29MOL   C17910875   7.493   4.536   5.992 -0.1322 -0.4603  0.1787
   29MOL   H18010876   7.233   5.159   5.944 -0.0483  0.0045 -0.7227
   29MOL   H18110877   7.174   5.115   6.107  0.7264  0.5902 -0.0020
   29MOL   H18210878   7.279   4.921   5.888 -1.1014 -2.7821 -0.2938
   29MOL   H18310879   7.296   4.727   5.935 -0.3052 -1.6833  0.4950
   29MOL   H18410880   7.158   4.670   6.013  0.0167 -1.1577  2.9323
   29MOL   H18510881   7.277   4.682   6.231  1.0466  1.6780  1.0943
   29MOL   H18610882   7.427   4.746   6.154  0.5314  0.2123  0.8141
   29MOL   H18710883   7.432   4.513   6.200 -1.3095  2.1616  1.1304
   29MOL   H18810884   7.300   4.472   6.095 -0.0139 -0.1373 -0.7770
   29MOL   H18910885   7.535   4.439   5.964  1.8025  0.2882  0.3877
   29MOL   H19010886   7.458   4.584   5.901 -0.8498 -1.6871 -0.2045
   29MOL   H19110887   7.570   4.601   6.032  0.9110 -1.6489  0.1398
   29MOL   C19210888   7.072   4.949   5.888 -0.0478 -0.2730  0.5452
   29MOL   C19310889   7.055   5.045   5.765  0.3133 -0.2199 -0.6966
   29MOL   O19410890   7.139   5.004   5.660  0.6604 -0.3524  0.3148
   29MOL   C19510891   7.248   5.087   5.625  0.1656  0.0791 -0.1238
   29MOL   C19610892   7.303   5.048   5.480  0.4338 -0.2314 -0.7089
   29MOL   C19710893   7.386   5.158   5.419 -0.0488 -0.3708  0.0226
   29MOL   C19810894   7.391   5.147   5.269  0.4650  1.1645  0.2970
   29MOL   H19910895   6.994   4.976   5.959 -0.2268 -2.1029  1.0698
   29MOL   H20010896   7.052   4.844   5.866 -0.2801 -0.1782  0.2831
   29MOL   H20110897   7.080   5.148   5.793  0.9854 -1.0442  1.8084
   29MOL   H20210898   7.325   5.070   5.700  0.0051  0.6243  0.1717
   29MOL   H20310899   7.214   5.190   5.639 -0.8184 -0.3312  0.5340
   29MOL   H20410900   7.358   4.955   5.497 -1.5757 -1.0068  1.8660
   29MOL   H20510901   7.219   5.024   5.414  1.0563  1.5842 -2.1851
   29MOL   H20610902   7.486   5.164   5.462 -0.8163  1.6816  1.6154
   29MOL   H20710903   7.341   5.255   5.440 -0.0697  0.0990 -2.1169
   29MOL   H20810904   7.425   5.050   5.232 -2.2533  0.5662 -0.7807
   29MOL   H20910905   7.291   5.151   5.227  0.5401  1.4707  0.1446
   29MOL   H21010906   7.449   5.228   5.224  0.5261 -1.1611 -4.2096
   29MOL   C21110907   6.914   5.046   5.712  0.0416  0.4160  0.0041
   29MOL   C21210908   6.882   5.148   5.603  0.5910  0.4361  0.9584
   29MOL   O21310909   6.750   5.133   5.559 -0.2639  0.7531  0.0317
   29MOL   C21410910   6.725   5.021   5.471 -0.3463  0.0314 -0.3427
   29MOL   C21510911   6.793   5.038   5.336  0.3386 -0.2417 -0.0484
   29MOL   C21610912   6.767   5.162   5.243 -0.0636 -0.2737  0.1096
   29MOL   C21710913   6.852   5.192   5.119  0.6767  0.6334  0.0006
   29MOL   H21810914   6.848   5.047   5.799 -0.2028 -1.3547 -0.1574
   29MOL   H21910915   6.893   4.953   5.661 -0.5532  0.9410 -0.7142
   29MOL   H22010916   6.955   5.141   5.522 -1.4532  0.8105 -0.9519
   29MOL   H22110917   6.762   4.927   5.513  0.4063  1.6319  2.7390
   29MOL   H22210918   6.616   5.025   5.465 -0.1515  1.7514 -3.5096
   29MOL   H22310919   6.902   5.031   5.346  0.4269  1.1701  0.1059
   29MOL   H22410920   6.772   4.953   5.271 -0.3568  0.8282 -1.2326
   29MOL   H22510921   6.798   5.254   5.292  2.1368 -0.2408 -1.2731
   29MOL   H22610922   6.659   5.168   5.228 -0.2081  0.5336  1.3217
   29MOL   H22710923   6.953   5.224   5.144  1.0063  0.6971 -1.3924
   29MOL   H22810924   6.823   5.283   5.067  1.8963  0.4627 -0.9958
   29MOL   H22910925   6.849   5.107   5.051  1.6989 -1.2198  2.1908
   29MOL   C23010926   6.867   5.289   5.662  0.3924 -0.4804  1.2084
   29MOL   C23110927   6.875   5.403   5.561 -0.1841 -0.4670  0.1517
   29MOL   O23210928   6.874   5.525   5.631  0.4791  0.3260 -0.6111
   29MOL   C23310929   6.758   5.576   5.700  0.4712 -0.2893 -0.0224
   29MOL   C23410930   6.785   5.717   5.755  0.8933  0.4945  0.1207
   29MOL   C23510931   6.658   5.776   5.814  1.0034 -0.1226 -0.7981
   29MOL   C23610932   6.674   5.921   5.862 -0.4000  0.1418  0.2970
   29MOL   H23710933   6.943   5.303   5.739  1.4797  0.4953 -0.0178
   29MOL   H23810934   6.773   5.305   5.713 -0.6740 -1.2071 -0.4824
   29MOL   H23910935   6.793   5.392   5.490  0.4804  0.5002 -0.7891
   29MOL   H24010936   6.668   5.563   5.640 -0.7063 -0.6401  1.7727
   29MOL   H24110937   6.742   5.519   5.792  0.5396  2.1401  1.5181
   29MOL   H24210938   6.864   5.726   5.829 -0.9879  2.5270  1.9373
   29MOL   H24310939   6.821   5.795   5.688  0.1482 -0.6077 -1.5944
   29MOL   H24410940   6.627   5.722   5.904  1.1339 -0.2547 -0.8329
   29MOL   H24510941   6.576   5.763   5.743 -1.6786 -0.4011  2.2093
   29MOL   H24610942   6.686   5.985   5.775  1.4697 -1.5886 -0.7524
   29MOL   H24710943   6.740   5.950   5.944 -2.2303  1.4363  1.3547
   29MOL   H24810944   6.578   5.961   5.897  0.2827  1.7780  0.3551
   29MOL   C24910945   7.013   5.401   5.492  0.0658 -0.4788  0.1053
   29MOL   C25010946   7.017   5.511   5.383 -0.1607 -0.0990  0.0999
   29MOL   O25110947   6.924   5.489   5.274 -0.0717 -0.8111 -0.3935
   29MOL   C25210948   6.873   5.615   5.229 -0.1879 -0.7250  0.3438
   29MOL   C25310949   6.800   5.586   5.097  0.5725  0.4524  0.4966
   29MOL   C25410950   6.815   5.700   4.989 -0.7111 -0.0539 -0.1577
   29MOL   C25510951   6.948   5.671   4.906 -0.6016  0.6561  0.2748
   29MOL   H25610952   7.019   5.310   5.432  0.8513 -0.9460  0.8754
   29MOL   H25710953   7.096   5.414   5.562  0.0873 -2.2210  0.4174
   29MOL   H25810954   7.001   5.606   5.435  2.3082  0.5547 -0.2482
   29MOL   H25910955   6.965   5.664   5.198 -1.1340 -0.3411 -1.9965
   29MOL   H26010956   6.814   5.678   5.296  0.4731 -0.7989  0.9976
   29MOL   H26110957   6.836   5.491   5.058 -1.3266  0.6065 -1.6748
   29MOL   H26210958   6.699   5.564   5.130  0.4356 -0.6289 -0.6495
   29MOL   H26310959   6.746   5.693   4.905 -1.4547  2.8196  0.1629
   29MOL   H26410960   6.811   5.798   5.036  0.0039 -0.4466  0.7426
   29MOL   H26510961   6.945   5.572   4.860 -1.8348  0.2404  1.2338
   29MOL   H26610962   7.034   5.672   4.973 -0.1387  0.6233 -0.3073
   29MOL   H26710963   6.969   5.741   4.825 -0.1514  1.1454  0.8165
   29MOL   C26810964   7.159   5.514   5.313 -0.0072  0.5999  0.2825
   29MOL   C26910965   7.249   5.621   5.362 -0.2391 -1.0615 -0.0750
   29MOL   O27010966   7.250   5.605   5.504 -0.1334  0.6120  0.7574
   29MOL   C27110967   7.264   5.724   5.580  0.5921  0.2663 -0.7540
   29MOL   C27210968   7.319   5.678   5.717  0.3317 -0.2595 -0.4093
   29MOL   C27310969   7.282   5.778   5.828  0.5108  0.6258 -0.6077
   29MOL   C27410970   7.343   5.734   5.965  0.1835  0.1763 -0.0588
   29MOL   H27510971   7.201   5.418   5.340  1.4599  0.5638 -1.9866
   29MOL   H27610972   7.157   5.528   5.205  1.6297 -0.4973  0.1033
   29MOL   H27710973   7.210   5.719   5.333  1.9341 -0.6463 -1.7348
   29MOL   H27810974   7.343   5.791   5.548 -0.5228  2.1118  0.2647
   29MOL   H27910975   7.175   5.786   5.592  0.0973 -0.6112  0.2661
   29MOL   H28010976   7.260   5.588   5.734  0.2298 -0.0151  0.5177
   29MOL   H28110977   7.426   5.658   5.719  0.3138 -0.3596 -0.4166
   29MOL   H28210978   7.173   5.781   5.833  0.4649 -0.3936 -0.7448
   29MOL   H28310979   7.317   5.879   5.809  0.6224  0.8829  0.8918
   29MOL   H28410980   7.450   5.754   5.965  0.3337 -0.5777 -0.6126
   29MOL   H28510981   7.328   5.628   5.982 -1.1297  0.5065  0.9323
   29MOL   H28610982   7.298   5.785   6.051 -1.8095 -3.7120  1.3175
   29MOL   C28710983   7.398   5.597   5.313 -0.3857  0.4563 -0.9268
   29MOL   C28810984   7.429   5.629   5.168 -0.2792  0.0112 -0.4913
   29MOL   O28910985   7.398   5.512   5.093 -0.7603  0.1287  0.3501
   29MOL   C29010986   7.350   5.546   4.967 -0.6501 -0.0386 -0.4590
   29MOL   C29110987   7.375   5.426   4.867  0.0207  0.4122 -0.7067
   29MOL   C29210988   7.305   5.286   4.893 -0.0648 -0.4004  0.5096
   29MOL   C29310989   7.158   5.299   4.871 -0.6392  0.0420  0.6251
   29MOL   H29410990   7.414   5.490   5.326 -1.2848  0.3978 -0.2794
   29MOL   H29510991   7.472   5.644   5.378  0.6789 -3.2694  0.6491
   29MOL   H29610992   7.374   5.715   5.129 -0.8188  0.6219  1.5565
   29MOL   H29710993   7.242   5.549   4.982 -0.4063 -0.1999  1.5746
   29MOL   H29810994   7.381   5.639   4.920 -2.4785  1.2154  0.7246
   29MOL   H29910995   7.483   5.411   4.875 -0.3011 -2.7251 -1.4423
   29MOL   H30010996   7.358   5.466   4.767 -3.3931  1.3511  0.1701
   29MOL   H30110997   7.317   5.247   4.994  1.5974 -1.3370 -0.0275
   29MOL   H30210998   7.341   5.213   4.820  0.0072  0.8367 -0.7025
   29MOL   H30310999   7.103   5.373   4.929  0.8388  1.9051 -0.3272
   29MOL   H30411000   7.132   5.316   4.767 -0.1219  1.1079  0.6675
   29MOL   H30511001   7.100   5.212   4.902 -0.3404  0.0688  1.2762
   29MOL   C30611002   7.574   5.658   5.139  0.2744 -0.6014 -0.9364
   29MOL   C30711003   7.619   5.799   5.167  0.0278 -0.3246  0.6453
   29MOL   O30811004   7.543   5.892   5.090  0.3049  0.2094 -0.2966
   29MOL   C30911005   7.506   6.008   5.151 -0.5071  0.6032  0.0522
   29MOL   C31011006   7.439   6.109   5.060  0.2187 -0.2547  0.0843
   29MOL   C31111007   7.353   6.211   5.130  0.1349 -0.7790 -0.1360
   29MOL   C31211008   7.290   6.317   5.043 -0.7494  0.0450  0.4286
   29MOL   H31311009   7.636   5.584   5.190  0.1662  0.0426  0.1366
   29MOL   H31411010   7.586   5.637   5.033 -0.8863  1.2043 -1.4437
   29MOL   H31511011   7.604   5.815   5.273  1.2665  1.7000  0.5440
   29MOL   H31611012   7.594   6.055   5.196  0.9406 -1.7186 -0.2498
   29MOL   H31711013   7.449   5.979   5.239  1.1992 -1.3630  0.5457
   29MOL   H31811014   7.381   6.049   4.990  0.0008 -1.3123  1.1538
   29MOL   H31911015   7.512   6.158   4.995  1.1503 -0.1230  1.2190
   29MOL   H32011016   7.268   6.158   5.174  0.2791  0.3758  1.5875
   29MOL   H32111017   7.415   6.252   5.210 -2.5042  2.8340  0.1141
   29MOL   H32211018   7.207   6.264   4.996 -0.8583  1.8498 -1.4943
   29MOL   H32311019   7.353   6.357   4.964 -2.5026 -0.1966 -1.1170
   29MOL   H32411020   7.257   6.399   5.107  3.3537  2.2889 -0.1475
   29MOL   C32511021   7.774   5.811   5.144 -0.0891  0.1513 -0.2112
   29MOL   C32611022   0.070   5.757   5.253  0.7306  0.2379  0.5455
   29MOL   O32711023   0.200   5.757   5.195  0.2514  0.1035  0.5856
   29MOL   C32811024   0.250   5.625   5.171 -0.3383  0.9321 -0.3472
   29MOL   C32911025   0.380   5.629   5.094 -0.4170  0.1045  0.7773
   29MOL   C33011026   0.374   5.714   4.968 -0.6293  0.3852  0.0218
   29MOL   C33111027   0.349   5.859   4.975 -0.1169 -0.3127  0.9574
   29MOL   H33211028   7.774   5.920   5.132 -0.9725  0.1843  0.0355
   29MOL   H33311029   7.800   5.765   5.049  0.3070  1.2071 -0.6280
   29MOL   H33411030   0.034   5.657   5.276  0.0165 -0.5376 -3.5142
   29MOL   H33511031   0.181   5.573   5.106  0.3388  0.5656 -0.7767
   29MOL   H33611032   0.271   5.572   5.264 -0.1242 -1.2077 -1.5840
   29MOL   H33711033   0.462   5.644   5.164 -2.4179 -1.6595  3.5641
   29MOL   H33811034   0.410   5.533   5.052 -0.6735 -0.1180  1.0980
   29MOL   H33911035   0.289   5.667   4.918 -0.0143  0.1569 -0.8292
   29MOL   H34011036   0.450   5.694   4.892 -0.9485  0.8928 -0.4354
   29MOL   H34111037   0.443   5.913   4.958 -1.1039  1.1085 -0.0592
   29MOL   H34211038   0.321   5.898   5.073 -1.2646  0.2460  0.4176
   29MOL   H34311039   0.269   5.892   4.910  0.7215  2.1355  1.1116
   29MOL   C34411040   0.075   5.851   5.378 -0.0536 -0.2186  0.7742
   29MOL   C34511041   0.153   5.799   5.496  0.6748 -0.5596  0.5893
   29MOL   O34611042   0.123   5.887   5.606 -0.2524 -0.4285 -0.3855
   29MOL   C34711043   0.047   5.842   5.710  0.0912  0.1341 -0.3299
   29MOL   C34811044   7.699   5.847   5.664  0.3469  0.0700 -0.6973
   29MOL   C34911045   7.647   5.998   5.652  0.2366 -0.1375  0.0560
   29MOL   C35011046   7.508   6.013   5.579  0.1857  0.0150 -0.6588
   29MOL   H35111047   0.108   5.950   5.347  0.6932 -0.5703  0.4208
   29MOL   H35211048   7.774   5.864   5.410 -0.4010  0.7762 -0.6776
   29MOL   H35311049   0.120   5.699   5.523  0.6786 -0.3329  1.4661
   29MOL   H35411050   0.060   5.906   5.796 -0.9216 -0.9968  0.6911
   29MOL   H35511051   0.072   5.743   5.750 -1.5275 -0.0391  0.3068
   29MOL   H35611052   7.635   5.801   5.739  2.0763 -1.2120  0.0272
   29MOL   H35711053   7.676   5.798   5.569 -3.2134  0.8175 -0.2709
   29MOL   H35811054   7.655   6.044   5.751  0.7930 -0.7219  0.2881
   29MOL   H35911055   7.718   6.068   5.609 -0.0875  1.1730  1.5726
   29MOL   H36011056   7.498   5.950   5.491  2.3987  1.1181 -1.7375
   29MOL   H36111057   7.510   6.111   5.531  1.9569  0.7355  0.8351
   29MOL   H36211058   7.420   6.008   5.643  0.5412  0.4018 -0.1328
   29MOL   C36311059   0.310   5.803   5.478 -0.1445  0.4830  0.2277
   29MOL   C36411060   0.389   5.758   5.595 -0.8171  0.1768  1.0321
   29MOL   O36511061   0.527   5.756   5.553 -0.2789 -0.1024  0.4912
   29MOL   C36611062   0.605   5.728   5.666  0.0952 -0.4773  0.4483
   29MOL   C36711063   0.747   5.700   5.626 -0.7649 -0.3874  0.5815
   29MOL   C36811064   0.841   5.704   5.745  0.2507 -0.2010  0.1363
   29MOL   C36911065   0.985   5.649   5.709  0.0188 -0.0867  0.8798
   29MOL   H37011066   0.339   5.904   5.448 -1.0325  0.2599 -1.4556
   29MOL   H37111067   0.342   5.731   5.402 -0.5718  2.4733 -1.9178
   29MOL   H37211068   0.366   5.656   5.626  0.8285 -0.2272  0.9577
   29MOL   H37311069   0.577   5.642   5.726  0.0158  0.3036  1.5363
   29MOL   H37411070   0.601   5.813   5.733  2.6916  0.3664 -0.4010
   29MOL   H37511071   0.785   5.776   5.558 -0.6547 -1.3922 -0.4959
   29MOL   H37611072   0.761   5.604   5.576 -2.6569 -1.4761  2.0743
   29MOL   H37711073   0.810   5.639   5.827  3.6303 -0.5263  1.2583
   29MOL   H37811074   0.853   5.806   5.780 -1.4867  0.3436 -0.8027
   29MOL   H37911075   1.055   5.640   5.792  2.5772  1.2674 -1.0815
   29MOL   H38011076   0.988   5.550   5.664 -0.2126  0.7338 -0.9739
   29MOL   H38111077   1.027   5.721   5.639 -0.8387 -0.4006  0.0299
   29MOL   H38211078   0.377   5.818   5.685  0.1329  0.8170  0.7389
   30MOL     C111079   5.791   5.743   1.744  0.2344  0.1533  0.4782
   30MOL     C211080   5.857   5.639   1.658 -0.7011  0.0252 -0.2945
   30MOL     O311081   5.917   5.552   1.755  0.1536 -0.4671 -0.4926
   30MOL     C411082   5.998   5.450   1.697  0.1457  0.6631 -0.3863
   30MOL     C511083   6.083   5.374   1.804 -0.1773  0.3007 -0.0639
   30MOL     C611084   6.168   5.263   1.742  0.1946  0.7388 -0.1009
   30MOL     C711085   6.243   5.185   1.853 -0.3396 -0.0489  0.8536
   30MOL     H811086   5.860   5.777   1.822  1.5950  1.1088 -1.1074
   30MOL     H911087   5.738   5.831   1.710  1.5115 -0.0867 -2.2496
   30MOL    H1011088   5.933   5.686   1.595  0.4295  1.1449  1.8439
   30MOL    H1111089   5.937   5.383   1.636 -0.1950  1.8629 -1.3810
   30MOL    H1211090   6.074   5.490   1.630 -1.3382  2.2575 -1.1370
   30MOL    H1311091   6.012   5.325   1.871 -1.1277  1.2777 -0.3455
   30MOL    H1411092   6.139   5.445   1.864 -1.2101  2.0166 -1.0920
   30MOL    H1511093   6.241   5.315   1.680  1.0342 -2.6614 -2.1035
   30MOL    H1611094   6.108   5.198   1.679  1.1062  1.4863 -1.7576
   30MOL    H1711095   6.168   5.149   1.925 -0.4508 -2.4946 -0.4507
   30MOL    H1811096   6.320   5.246   1.900  0.9748 -0.7080 -0.4425
   30MOL    H1911097   6.299   5.102   1.812 -0.2002  1.3436 -1.9189
   30MOL    H2011098   5.712   5.685   1.792  0.0567 -0.6294 -0.7307
   30MOL    C2111099   5.754   5.561   1.573 -0.2471  0.8611  0.2534
   30MOL    C2211100   5.712   5.661   1.459 -0.3806  0.9030 -0.3496
   30MOL    O2311101   5.820   5.682   1.370 -0.3228 -0.1357 -0.3147
   30MOL    C2411102   5.839   5.818   1.346 -0.2425 -0.5878  0.2011
   30MOL    C2511103   5.974   5.852   1.290 -0.0393  0.1024 -0.1758
   30MOL    C2611104   6.094   5.816   1.373 -0.1086  1.1208 -0.5138
   30MOL    C2711105   6.229   5.874   1.328 -0.6749  0.4868  0.4675
   30MOL    H2811106   5.670   5.530   1.635  1.8958 -1.5046  2.1130
   30MOL    H2911107   5.799   5.476   1.521  0.0501  0.2631  1.4639
   30MOL    H3011108   5.670   5.748   1.508 -0.3854 -0.2441  1.7393
   30MOL    H3111109   5.820   5.874   1.437 -0.4604 -0.0539 -0.1749
   30MOL    H3211110   5.760   5.855   1.281 -0.5028 -0.6418  0.4864
   30MOL    H3311111   5.970   5.795   1.197  0.3103  0.1988 -0.2488
   30MOL    H3411112   5.978   5.957   1.261  0.2304 -0.0115 -0.5556
   30MOL    H3511113   6.073   5.854   1.473 -3.7992 -0.6275 -0.5474
   30MOL    H3611114   6.099   5.708   1.378 -2.2768  1.0436  0.8384
   30MOL    H3711115   6.222   5.982   1.324 -2.1707  0.3548 -1.1504
   30MOL    H3811116   6.305   5.841   1.399  0.3628 -1.0720 -1.3471
   30MOL    H3911117   6.258   5.840   1.229  1.1529  0.5721  0.9567
   30MOL    C4011118   5.597   5.597   1.377 -0.3128 -0.3247 -0.0316
   30MOL    C4111119   5.537   5.688   1.275 -0.4129 -0.8441 -0.5909
   30MOL    O4211120   5.473   5.794   1.346 -0.1392 -0.7562 -0.2489
   30MOL    C4311121   5.462   5.911   1.281 -0.8605 -0.2244  0.0092
   30MOL    C4411122   5.398   6.017   1.371  0.2828 -0.0285 -0.0933
   30MOL    C4511123   5.493   6.072   1.479  0.0843  0.2115  0.4214
   30MOL    C4611124   5.420   6.177   1.562  0.9197 -0.0676  0.1022
   30MOL    H4711125   5.522   5.568   1.450 -0.9732  0.0297 -0.5714
   30MOL    H4811126   5.641   5.515   1.320 -2.3966 -1.6604  0.2445
   30MOL    H4911127   5.624   5.721   1.218 -0.3007 -0.9161 -0.4620
   30MOL    H5011128   5.389   5.901   1.202 -0.3332 -0.2213 -0.4830
   30MOL    H5111129   5.556   5.949   1.241 -0.8443 -2.9283 -2.6445
   30MOL    H5211130   5.312   5.972   1.420 -1.2253  1.3507 -1.3912
   30MOL    H5311131   5.359   6.097   1.308 -2.3006 -0.5037  0.8488
   30MOL    H5411132   5.566   6.120   1.413  2.6830 -1.6627  1.8467
   30MOL    H5511133   5.546   6.002   1.543 -1.6678 -0.7770  0.8175
   30MOL    H5611134   5.478   6.216   1.646 -1.6598  0.7738  1.5589
   30MOL    H5711135   5.387   6.257   1.496 -3.6957 -2.2474 -0.4633
   30MOL    H5811136   5.328   6.135   1.604  0.8032  1.8312  1.8200
   30MOL    C5911137   5.424   5.625   1.189  0.4245 -0.4510  0.4938
   30MOL    C6011138   5.472   5.516   1.086 -0.0216 -0.2145 -0.1948
   30MOL    O6111139   5.363   5.481   1.004 -0.2069  0.1753  0.6159
   30MOL    C6211140   5.276   5.389   1.062  0.3184  0.2761 -0.1422
   30MOL    C6311141   5.177   5.329   0.960  0.5258 -0.0751  0.1552
   30MOL    C6411142   5.075   5.434   0.916 -0.0450 -0.1784  0.3682
   30MOL    C6511143   5.009   5.391   0.787  0.2079 -0.4245 -0.4471
   30MOL    H6611144   5.338   5.608   1.255  0.4577  0.7511  0.8513
   30MOL    H6711145   5.387   5.709   1.129  0.6679  0.2191  1.2842
   30MOL    H6811146   5.518   5.427   1.130  1.2713  0.6137  0.1536
   30MOL    H6911147   5.222   5.452   1.134 -1.7944 -1.1254 -0.4644
   30MOL    H7011148   5.328   5.310   1.116 -0.7449  0.5900  1.3893
   30MOL    H7111149   5.228   5.272   0.882  0.4761 -0.3599  0.3307
   30MOL    H7211150   5.120   5.252   1.010 -0.3247  0.4632  0.0233
   30MOL    H7311151   5.004   5.470   0.991  0.2874  2.6489 -0.6237
   30MOL    H7411152   5.137   5.518   0.886 -1.1302  0.3836 -0.3318
   30MOL    H7511153   4.960   5.477   0.742 -0.1079  0.0313  0.7463
   30MOL    H7611154   5.079   5.361   0.709 -0.6804 -2.8904 -0.3562
   30MOL    H7711155   4.930   5.318   0.810 -2.1072  1.6989 -1.3899
   30MOL    C7811156   5.575   5.580   0.995 -0.2256 -0.4554  0.2171
   30MOL    C7911157   5.637   5.482   0.890 -0.2357 -0.3662  0.1439
   30MOL    O8011158   5.749   5.539   0.828 -0.1673 -0.3511  0.0715
   30MOL    C8111159   5.866   5.524   0.901  0.1606 -0.5783  0.0249
   30MOL    C8211160   5.992   5.574   0.835 -0.2223 -0.6005  0.0871
   30MOL    C8311161   5.976   5.724   0.810  0.5334 -0.2462  0.3173
   30MOL    C8411162   6.107   5.789   0.779 -0.5041  0.8633  0.5316
   30MOL    H8511163   5.654   5.627   1.054 -2.1610  0.2750  2.3225
   30MOL    H8611164   5.519   5.663   0.951 -1.0272 -0.4383  1.2469
   30MOL    H8711165   5.667   5.389   0.937 -1.2058 -0.5541  0.4016
   30MOL    H8811166   5.891   5.420   0.922  2.1897  0.1658  1.5461
   30MOL    H8911167   5.856   5.574   0.997 -1.3702  0.3513 -0.6028
   30MOL    H9011168   6.081   5.557   0.896 -0.0969  1.8441  0.6393
   30MOL    H9111169   5.999   5.521   0.740  2.0870 -1.6246  0.8022
   30MOL    H9211170   5.932   5.767   0.900  0.9345 -1.2730  1.0173
   30MOL    H9311171   5.905   5.733   0.729  1.4513  1.0293 -0.3454
   30MOL    H9411172   6.088   5.895   0.763 -1.9496  0.8608  2.0516
   30MOL    H9511173   6.171   5.784   0.867 -0.3241  0.4010  0.3729
   30MOL    H9611174   6.157   5.746   0.693 -0.1072  1.7720  0.3056
   30MOL    C9711175   5.547   5.425   0.775 -0.3698  0.3500 -0.7701
   30MOL    C9811176   5.465   5.535   0.711 -0.2220 -0.2627  0.2993
   30MOL    O9911177   5.557   5.598   0.621  0.3108  0.3236 -1.0313
   30MOL   C10011178   5.589   5.731   0.643  0.2061 -0.3493 -0.4393
   30MOL   C10111179   5.696   5.774   0.549 -0.3050 -0.1727 -0.1612
   30MOL   C10211180   5.633   5.819   0.419  0.3563 -0.5434  0.1140
   30MOL   C10311181   5.735   5.852   0.310 -0.5854 -0.2491  0.4213
   30MOL   H10411182   5.479   5.349   0.813 -2.6050  2.8213  0.3635
   30MOL   H10511183   5.611   5.382   0.697  0.9551  2.4306 -0.8788
   30MOL   H10611184   5.429   5.607   0.785  3.4677  1.6408  0.3753
   30MOL   H10711185   5.625   5.750   0.744  0.7280 -1.5901 -0.3761
   30MOL   H10811186   5.507   5.802   0.636  0.0536 -0.4320  0.4804
   30MOL   H10911187   5.770   5.698   0.525 -0.2251  0.6058 -2.4835
   30MOL   H11011188   5.754   5.858   0.588 -2.5390  1.7542 -0.8155
   30MOL   H11111189   5.557   5.897   0.429 -0.5378 -1.5207  0.9897
   30MOL   H11211190   5.575   5.738   0.375 -2.6452  1.8005 -0.4906
   30MOL   H11311191   5.780   5.758   0.279 -0.2965  0.7719 -2.4484
   30MOL   H11411192   5.697   5.887   0.214 -1.1438 -1.3704  0.2224
   30MOL   H11511193   5.809   5.922   0.351 -0.5671 -0.1792  0.2691
   30MOL   C11611194   5.355   5.482   0.631 -0.2245 -0.0208  0.0373
   30MOL   C11711195   5.272   5.584   0.548 -0.0747 -0.1493 -0.6042
   30MOL   O11811196   5.172   5.526   0.470  0.1029  0.1782  0.4267
   30MOL   C11911197   5.207   5.486   0.337 -0.0763 -0.5117 -0.5292
   30MOL   C12011198   5.164   5.345   0.308 -0.0286  0.3282 -0.1735
   30MOL   C12111199   5.265   5.235   0.351  0.1742 -1.0041  0.4383
   30MOL   C12211200   5.209   5.093   0.333 -0.3342  0.0268  0.0503
   30MOL   H12311201   5.391   5.407   0.561 -1.5324  0.1261 -0.8007
   30MOL   H12411202   5.291   5.430   0.702 -0.5364 -0.0068 -0.2352
   30MOL   H12511203   5.345   5.634   0.484 -0.4297  0.4257 -0.5667
   30MOL   H12611204   5.312   5.508   0.318 -0.0400  1.0951  1.2953
   30MOL   H12711205   5.151   5.561   0.282 -2.0427  0.5060  2.7402
   30MOL   H12811206   5.136   5.326   0.205  0.5116  2.3210 -0.7065
   30MOL   H12911207   5.064   5.334   0.352  0.8511 -0.7818  1.6377
   30MOL   H13011208   5.365   5.237   0.306  0.3824 -0.1983  0.9360
   30MOL   H13111209   5.290   5.252   0.456 -0.6363  0.8314  0.3331
   30MOL   H13211210   5.119   5.062   0.385 -0.1657 -3.7836 -1.7554
   30MOL   H13311211   5.293   5.030   0.362 -0.0788  0.4856  0.3286
   30MOL   H13411212   5.207   5.070   0.226  0.6376 -0.6092  0.1615
   30MOL   C13511213   5.201   5.696   0.630 -0.2244  0.3560  0.1259
   30MOL   C13611214   5.138   5.827   0.572 -0.4160  0.4005 -0.5791
   30MOL   O13711215   5.122   5.900   0.698 -0.6321  0.1234 -0.2007
   30MOL   C13811216   4.992   5.934   0.713 -0.6333 -0.7224  0.4081
   30MOL   C13911217   4.976   5.994   0.860 -0.2644  1.0506 -0.6041
   30MOL   C14011218   5.005   5.888   0.977 -0.7623 -0.1610  0.0341
   30MOL   C14111219   4.943   5.936   1.110 -0.1918 -0.0442  0.0960
   30MOL   H14211220   5.274   5.735   0.700 -0.7292  0.9739  0.3124
   30MOL   H14311221   5.116   5.660   0.689  0.7301  0.7565  1.7626
   30MOL   H14411222   5.046   5.804   0.518 -0.8627 -1.1373  0.7932
   30MOL   H14511223   4.929   5.850   0.683  0.5131 -1.3439 -0.2991
   30MOL   H14611224   4.965   6.017   0.648 -0.0151  0.2600  1.3889
   30MOL   H14711225   4.880   6.045   0.862 -0.4848  0.6447 -1.0658
   30MOL   H14811226   5.037   6.082   0.880 -0.5734  0.8462  1.3396
   30MOL   H14911227   4.960   5.793   0.948 -1.6788 -0.0619  1.1207
   30MOL   H15011228   5.111   5.866   0.982 -1.0774 -1.5250  1.1225
   30MOL   H15111229   4.958   5.876   1.200  0.1262  0.7974  0.6179
   30MOL   H15211230   4.952   6.042   1.136 -0.3643 -0.0063  0.0040
   30MOL   H15311231   4.837   5.931   1.084 -0.2015 -0.0061  0.1278
   30MOL   C15411232   5.246   5.911   0.497 -0.0486  0.5653 -0.5723
   30MOL   C15511233   5.191   6.051   0.453  0.5484 -0.0169 -0.3693
   30MOL   O15611234   5.155   6.032   0.320 -0.0689  0.2085 -0.3569
   30MOL   C15711235   5.042   5.947   0.288  0.0296 -0.0019  0.1921
   30MOL   C15811236   4.992   5.969   0.143  0.1303  0.5326  0.1430
   30MOL   C15911237   4.932   6.108   0.116  0.1427 -0.4953 -1.0868
   30MOL   C16011238   4.891   6.122   7.771 -0.2656 -0.3163 -0.1556
   30MOL   H16111239   5.281   5.855   0.410  3.8832 -1.1377  1.9600
   30MOL   H16211240   5.335   5.910   0.560 -0.5447  1.4438  0.1508
   30MOL   H16311241   5.101   6.076   0.509  0.2606 -1.6820 -0.0408
   30MOL   H16411242   5.055   5.839   0.294 -1.3490 -0.2537 -1.0301
   30MOL   H16511243   4.966   5.972   0.362 -0.6619 -2.7153  0.4367
   30MOL   H16611244   4.910   5.903   0.117  1.5629 -1.1201 -0.2244
   30MOL   H16711245   5.080   5.950   0.081 -0.0353 -1.4591  0.4946
   30MOL   H16811246   4.854   6.129   0.189  1.2438  0.6712 -0.2232
   30MOL   H16911247   5.005   6.185   0.144 -2.4228  1.1098  1.4536
   30MOL   H17011248   4.973   6.091   7.706  0.0048  0.4551 -0.1947
   30MOL   H17111249   4.815   6.050   7.741 -1.9397  0.5459  1.8948
   30MOL   H17211250   4.854   6.224   7.761  1.6422  0.4413  0.2323
   30MOL   C17311251   5.294   6.159   0.455 -1.1166 -0.4670 -0.2816
   30MOL   C17411252   5.324   6.207   0.596  0.1576 -0.3675  0.0689
   30MOL   O17511253   5.401   6.113   0.669  0.5050 -0.0536  0.2889
   30MOL   C17611254   5.372   6.111   0.808 -0.2031  0.8307 -0.1323
   30MOL   C17711255   5.478   6.031   0.881 -0.0075 -0.4449  0.1327
   30MOL   C17811256   5.627   6.059   0.843 -0.2049 -0.6972  0.4362
   30MOL   C17911257   5.729   6.002   0.945 -0.0878 -0.0294  0.6579
   30MOL   H18011258   5.248   6.243   0.402  3.4264  2.6283  0.3701
   30MOL   H18111259   5.388   6.133   0.407 -0.3739  3.5411 -1.1948
   30MOL   H18211260   5.227   6.217   0.644 -1.0742  1.1309 -2.5837
   30MOL   H18311261   5.285   6.057   0.844  0.8907 -0.8409  0.0646
   30MOL   H18411262   5.368   6.214   0.844 -0.2329  0.8964 -0.3192
   30MOL   H18511263   5.454   5.926   0.869  0.0869 -0.5220  0.6189
   30MOL   H18611264   5.464   6.056   0.986  0.2267 -3.0501  0.8157
   30MOL   H18711265   5.648   6.024   0.741  0.5862 -1.6951  0.9306
   30MOL   H18811266   5.640   6.167   0.832  1.0874 -0.9091 -0.2742
   30MOL   H18911267   5.736   5.895   0.966 -0.4672 -0.6827 -2.4043
   30MOL   H19011268   5.830   6.016   0.906  0.3303  1.4109  2.1683
   30MOL   H19111269   5.728   6.063   1.036  0.2298 -0.9980  1.3194
   30MOL   C19211270   5.388   6.346   0.577 -0.7200  0.0499  0.3289
   30MOL   C19311271   5.302   6.465   0.529 -0.1013 -0.1039  1.3184
   30MOL   O19411272   5.171   6.454   0.576  0.5603  0.2752  0.2828
   30MOL   C19511273   5.063   6.449   0.482 -0.4474  0.6637 -0.2793
   30MOL   C19611274   4.936   6.442   0.564  0.2782  0.2195  0.2192
   30MOL   C19711275   4.849   6.561   0.534  0.6654 -0.3192  0.6965
   30MOL   C19811276   4.712   6.565   0.594 -0.2714  0.1130  0.0167
   30MOL   H19911277   5.477   6.338   0.515 -2.5047  0.2607 -2.3197
   30MOL   H20011278   5.429   6.367   0.676 -0.5081  0.7687  0.0875
   30MOL   H20111279   5.300   6.450   0.421 -2.2788  1.8657  1.0610
   30MOL   H20211280   5.071   6.367   0.411 -1.2464  1.1022 -0.8808
   30MOL   H20311281   5.068   6.537   0.418 -3.0078  1.0598  0.0008
   30MOL   H20411282   4.888   6.346   0.546  0.3712 -0.0433  1.3678
   30MOL   H20511283   4.953   6.448   0.671  1.6343  0.3782  0.0072
   30MOL   H20611284   4.833   6.581   0.428  0.9126  1.1320  0.9292
   30MOL   H20711285   4.904   6.648   0.569 -0.1702 -0.1523  1.6364
   30MOL   H20811286   4.652   6.648   0.554 -3.0444 -1.6673  0.3316
   30MOL   H20911287   4.659   6.482   0.548  1.3985  0.8041 -3.2295
   30MOL   H21011288   4.710   6.570   0.703  1.8641  1.2749  0.0298
   30MOL   C21111289   5.374   6.605   0.557 -0.0935  0.2423  0.2217
   30MOL   C21211290   5.279   6.723   0.521  0.1132  0.1475  0.0880
   30MOL   O21311291   5.351   6.837   0.571  0.1847 -0.1224  0.5597
   30MOL   C21411292   5.284   6.952   0.593 -0.0366  0.1277 -0.9245
   30MOL   C21511293   5.379   7.062   0.637  0.3888 -0.2055 -0.0142
   30MOL   C21611294   5.325   7.210   0.647  0.4892  0.5765  0.0645
   30MOL   C21711295   5.248   7.252   0.521  0.5615  0.2727  0.2755
   30MOL   H21811296   5.475   6.613   0.518 -0.4044 -2.4888 -1.2347
   30MOL   H21911297   5.398   6.611   0.663  2.5215  0.3445 -0.3437
   30MOL   H22011298   5.180   6.715   0.566  0.3919 -0.2702  0.6274
   30MOL   H22111299   5.245   6.991   0.498  1.4869  1.3837 -1.0740
   30MOL   H22211300   5.205   6.946   0.667  0.7259  1.4146  0.0130
   30MOL   H22311301   5.425   7.032   0.731 -1.4336  1.3898  1.4210
   30MOL   H22411302   5.463   7.058   0.568  1.4646 -1.4056  1.3476
   30MOL   H22511303   5.404   7.283   0.668 -0.9067  1.2451  3.3512
   30MOL   H22611304   5.262   7.214   0.736 -0.1505 -1.2244 -0.2782
   30MOL   H22711305   5.219   7.357   0.515  0.3093  0.3762  2.9440
   30MOL   H22811306   5.159   7.192   0.501  0.6901  0.6652 -1.6009
   30MOL   H22911307   5.316   7.227   0.440 -0.0234  0.2040 -0.1959
   30MOL   C23011308   5.265   6.741   0.361 -0.3386 -1.4110  0.6695
   30MOL   C23111309   5.397   6.763   0.280  0.3465  0.1190 -0.4050
   30MOL   O23211310   5.458   6.635   0.248  0.0168 -0.2680  0.7854
   30MOL   C23311311   5.398   6.557   0.152 -0.2004 -0.3535 -0.0148
   30MOL   C23411312   5.477   6.424   0.169 -0.4508 -0.7077 -0.3222
   30MOL   C23511313   5.428   6.306   0.075  0.1286 -0.2836 -0.1494
   30MOL   C23611314   5.508   6.181   0.106 -0.2930  0.5178  0.1503
   30MOL   H23711315   5.192   6.818   0.336  2.0552  0.3903 -1.0254
   30MOL   H23811316   5.209   6.658   0.318 -0.7164 -1.0286  0.4213
   30MOL   H23911317   5.464   6.806   0.354  1.3972 -0.9537 -0.7304
   30MOL   H24011318   5.290   6.543   0.158 -0.2712  0.7724  1.8360
   30MOL   H24111319   5.425   6.599   0.056 -0.7036 -1.3924 -0.6158
   30MOL   H24211320   5.580   6.452   0.148 -0.3694 -0.8181 -0.0680
   30MOL   H24311321   5.463   6.394   0.272  0.0246 -0.8653 -0.3011
   30MOL   H24411322   5.451   6.333   7.773 -1.8781  0.0634 -0.5196
   30MOL   H24511323   5.324   6.277   0.084  0.6157 -2.3669 -1.0347
   30MOL   H24611324   5.613   6.209   0.097  0.4246 -2.1093 -0.0058
   30MOL   H24711325   5.489   6.105   0.030  2.4730  0.9792 -1.0837
   30MOL   H24811326   5.482   6.144   0.205 -1.5677 -0.8522 -0.6848
   30MOL   C24911327   5.379   6.856   0.158 -0.2494  0.2762 -0.3757
   30MOL   C25011328   5.507   6.917   0.106  0.4565  0.3526  0.1340
   30MOL   O25111329   5.539   7.040   0.175  0.2508 -0.3349 -0.3186
   30MOL   C25211330   5.622   7.030   0.289  0.6158  0.3456  1.0253
   30MOL   C25311331   5.702   7.162   0.311 -0.3722  0.2892 -0.3441
   30MOL   C25411332   5.790   7.198   0.191  0.1946  0.1917  0.2353
   30MOL   C25511333   5.904   7.097   0.180  0.8920 -0.0241  0.3758
   30MOL   H25611334   5.309   6.937   0.182 -2.2122 -1.7495  0.9107
   30MOL   H25711335   5.332   6.802   0.076  1.6075 -0.3131 -1.0761
   30MOL   H25811336   5.592   6.849   0.106  2.0391  2.2742 -2.1479
   30MOL   H25911337   5.689   6.944   0.295  1.5583  1.1831  2.9612
   30MOL   H26011338   5.547   7.008   0.366 -0.7260 -1.5601 -0.7397
   30MOL   H26111339   5.627   7.237   0.338 -1.4570 -0.3818 -1.4467
   30MOL   H26211340   5.756   7.148   0.405  1.1401 -2.6801 -1.5810
   30MOL   H26311341   5.734   7.210   0.098 -2.2664 -1.6571  1.4045
   30MOL   H26411342   5.838   7.293   0.213 -0.9343  0.6502  0.7796
   30MOL   H26511343   5.863   7.000   0.154  0.7738  0.0020  0.4641
   30MOL   H26611344   5.958   7.091   0.274  2.1118  0.9582 -0.2470
   30MOL   H26711345   5.975   7.127   0.103  1.0950 -2.1854 -0.3158
   30MOL   C26811346   5.498   6.958   7.762 -0.5280 -0.2963  0.1742
   30MOL   C26911347   5.626   6.994   7.684  0.4014  0.0129 -0.1922
   30MOL   O27011348   5.679   6.880   7.625  0.3900 -0.3853 -0.1606
   30MOL   C27111349   5.814   6.846   7.646  0.5684 -0.2782 -0.0848
   30MOL   C27211350   5.844   6.701   7.615 -0.1416  0.4932  0.0191
   30MOL   C27311351   5.782   6.604   7.715  0.8924  0.3346  0.2041
   30MOL   C27411352   5.800   6.458   7.655  0.2415  0.2921 -0.4832
   30MOL   H27511353   5.435   6.891   7.703 -1.2133 -0.1346  0.7273
   30MOL   H27611354   5.435   7.046   7.757  1.2005  0.9294 -0.6715
   30MOL   H27711355   5.704   7.035   7.748  0.4600 -3.9490  2.4819
   30MOL   H27811356   5.873   6.923   7.596 -0.1422  0.0248 -0.4506
   30MOL   H27911357   5.841   6.871   7.749 -1.7451  2.7950 -0.1691
   30MOL   H28011358   5.820   6.682   7.511 -0.1019  3.2913 -0.5335
   30MOL   H28111359   5.953   6.695   7.621 -0.2396 -0.8961  0.5165
   30MOL   H28211360   5.680   6.629   7.745  0.2253  0.4473 -2.1041
   30MOL   H28311361   5.828   6.609   0.012  0.5483  1.3602  0.3219
   30MOL   H28411362   5.778   6.386   7.733 -0.4910  2.8442  1.7318
   30MOL   H28511363   5.897   6.448   7.606 -0.6875  0.3107 -2.4004
   30MOL   H28611364   5.733   6.436   7.572  1.9298 -1.1685 -1.4869
   30MOL   C28711365   5.603   7.104   7.571 -0.3325 -0.5931 -0.0272
   30MOL   C28811366   5.506   7.072   7.455 -0.0697 -0.3881 -0.5292
   30MOL   O28911367   5.376   7.026   7.500  0.4783  0.1556  0.4110
   30MOL   C29011368   5.292   7.131   7.538  0.0238  0.4837 -0.0724
   30MOL   C29111369   5.144   7.086   7.546  0.8668 -0.1043  0.4587
   30MOL   C29211370   5.114   6.971   7.646 -0.5448 -0.6324 -0.8492
   30MOL   C29311371   4.970   6.913   7.634 -0.0104  0.0810  0.0946
   30MOL   H29411372   5.698   7.136   7.531 -0.3704  0.1395  0.4511
   30MOL   H29511373   5.568   7.197   7.617  1.6663 -0.5242  1.4516
   30MOL   H29611374   5.490   7.169   7.407  0.8023 -0.5227 -1.0957
   30MOL   H29711375   5.325   7.184   7.627 -2.2116  2.6645 -0.4978
   30MOL   H29811376   5.280   7.211   7.466 -2.3304  0.8389  0.6455
   30MOL   H29911377   5.112   7.057   7.446 -1.1953 -2.4211  1.7558
   30MOL   H30011378   5.082   7.173   7.566  1.6941  0.2540  1.5387
   30MOL   H30111379   5.146   7.008   7.743 -1.8468 -0.3832 -0.5093
   30MOL   H30211380   5.172   6.882   7.623  0.1412 -0.1796 -0.8683
   30MOL   H30311381   4.958   6.862   7.539 -0.1177 -0.0101  0.1564
   30MOL   H30411382   4.947   6.835   7.706  0.3714 -0.9581 -0.8983
   30MOL   H30511383   4.887   6.981   7.656 -1.1106 -0.9167 -0.9001
   30MOL   C30611384   5.556   6.971   7.356 -0.1711 -0.1586 -0.9392
   30MOL   C30711385   5.685   7.008   7.278 -0.1924  0.0291  0.2525
   30MOL   O30811386   5.660   7.107   7.173 -0.5597  0.1102 -0.1919
   30MOL   C30911387   5.732   7.227   7.190 -0.1018 -0.4885  0.4017
   30MOL   C31011388   5.700   7.312   7.069  0.3379 -0.8448 -0.4146
   30MOL   C31111389   5.746   7.249   6.937  0.1573 -0.2806  0.1548
   30MOL   C31211390   5.735   7.342   6.810  0.3945  0.5573 -0.8872
   30MOL   H31311391   5.582   6.883   7.415 -0.7791  0.6242  0.5275
   30MOL   H31411392   5.471   6.950   7.291 -1.3584 -0.6558  0.7339
   30MOL   H31511393   5.755   7.042   7.355 -0.7900 -1.4191  1.4372
   30MOL   H31611394   5.837   7.199   7.197  0.4814  1.3629 -0.7019
   30MOL   H31711395   5.696   7.276   7.281  0.3293  0.9013 -0.1780
   30MOL   H31811396   5.751   7.407   7.082  0.1344 -0.7236 -0.5133
   30MOL   H31911397   5.595   7.336   7.056  0.3552  0.7414  2.2072
   30MOL   H32011398   5.853   7.232   6.949  0.8090  2.9493 -0.8102
   30MOL   H32111399   5.692   7.154   6.930 -1.6987  0.5535  2.2970
   30MOL   H32211400   5.636   7.382   6.792 -0.1643  0.1352  1.0817
   30MOL   H32311401   5.767   7.285   6.723  0.8228  2.3559 -1.9104
   30MOL   H32411402   5.801   7.428   6.822 -1.1166  1.5305  0.6084
   30MOL   C32511403   5.749   6.890   7.204 -0.3025  0.1457  0.1161
   30MOL   C32611404   5.904   6.893   7.169  0.2470 -0.2114 -0.0600
   30MOL   O32711405   5.978   6.901   7.290  0.5185 -0.0744 -0.0359
   30MOL   C32811406   6.088   6.985   7.290 -0.3417  0.0133 -0.1372
   30MOL   C32911407   6.182   6.927   7.395 -0.4505  0.0599 -0.4244
   30MOL   C33011408   6.311   7.005   7.425  0.7791 -0.6608 -0.3386
   30MOL   C33111409   6.396   6.926   7.523 -0.8043 -0.6096 -0.0195
   30MOL   H33211410   5.703   6.883   7.105 -1.7535  2.1680  0.6216
   30MOL   H33311411   5.731   6.795   7.254  0.6478 -0.3454 -0.4529
   30MOL   H33411412   5.923   6.984   7.112 -0.3901  1.9841  3.1144
   30MOL   H33511413   6.068   7.089   7.317 -1.2547 -0.6793  1.9496
   30MOL   H33611414   6.143   6.984   7.196  2.0901 -1.4715  1.2236
   30MOL   H33711415   6.138   6.892   7.488 -0.6766 -1.2115 -0.9990
   30MOL   H33811416   6.213   6.834   7.346 -0.9126 -0.9470  1.1758
   30MOL   H33911417   6.268   7.096   7.467  0.8335 -0.5794 -0.4599
   30MOL   H34011418   6.366   7.030   7.334  2.0753 -0.7035  0.4173
   30MOL   H34111419   6.431   6.830   7.484 -2.2670 -0.8168 -0.8897
   30MOL   H34211420   6.355   6.902   7.621  2.5339 -0.7855  1.3931
   30MOL   H34311421   6.486   6.982   7.548 -1.0611  0.3014 -1.1337
   30MOL   C34411422   5.966   6.778   7.080 -0.6318 -0.5351 -0.5694
   30MOL   C34511423   5.905   6.757   6.940  0.3430 -0.2982 -0.1938
   30MOL   O34611424   5.976   6.656   6.873  0.2214 -0.2403  0.3097
   30MOL   C34711425   5.903   6.533   6.864  0.6534 -0.3687 -0.5246
   30MOL   C34811426   5.974   6.447   6.763 -0.1432 -0.0025  0.6720
   30MOL   C34911427   5.930   6.298   6.754 -0.1520  0.2965 -0.7680
   30MOL   C35011428   6.011   6.235   6.647  0.2630  0.5885 -0.0940
   30MOL   H35111429   6.071   6.800   7.063 -0.3618 -0.3409  1.2781
   30MOL   H35211430   5.958   6.684   7.135 -0.3150 -0.6834 -0.7739
   30MOL   H35311431   5.801   6.724   6.946 -0.5843  2.3711 -1.0197
   30MOL   H35411432   5.799   6.546   6.836  1.1031  0.5330 -1.7899
   30MOL   H35511433   5.896   6.480   6.959 -2.9181 -0.2329 -0.6447
   30MOL   H35611434   6.079   6.449   6.792  0.1226  1.3302 -0.3569
   30MOL   H35711435   5.961   6.494   6.666  1.9725 -0.8335 -0.0463
   30MOL   H35811436   5.952   6.238   6.842  1.4560  0.2865 -1.1505
   30MOL   H35911437   5.823   6.295   6.735 -0.5229  0.7566  1.1462
   30MOL   H36011438   6.109   6.207   6.686  0.5022 -0.8239 -1.6989
   30MOL   H36111439   6.019   6.301   6.561 -0.9960  2.1960  0.9914
   30MOL   H36211440   5.966   6.139   6.623 -0.0961  0.6482  0.3298
   30MOL   C36311441   5.900   6.882   6.851 -0.0209  0.5293 -0.6147
   30MOL   C36411442   5.858   6.838   6.715 -0.3799  0.5316  0.2686
   30MOL   O36511443   5.831   6.954   6.640  0.1905 -0.0089  0.1532
   30MOL   C36611444   5.807   6.925   6.501  0.4019  0.2001 -0.4696
   30MOL   C36711445   5.820   7.057   6.424  0.0520 -0.1674  0.0406
   30MOL   C36811446   5.957   7.138   6.438 -0.5863  0.0837 -0.3989
   30MOL   C36911447   6.073   7.072   6.371  0.6562  0.3766 -0.2520
   30MOL   H37011448   6.003   6.918   6.847  0.2531 -0.1979 -0.1793
   30MOL   H37111449   5.841   6.966   6.886 -2.0826 -0.6877 -1.0655
   30MOL   H37211450   5.778   6.764   6.720 -0.0630 -0.0178 -2.4474
   30MOL   H37311451   5.709   6.884   6.477  0.4205 -0.3280  0.3528
   30MOL   H37411452   5.879   6.849   6.472 -0.0306 -0.1762 -0.5538
   30MOL   H37511453   5.734   7.118   6.452  0.9969  1.2734 -0.1072
   30MOL   H37611454   5.807   7.040   6.317  1.5974 -0.5294 -0.1080
   30MOL   H37711455   5.973   7.146   6.546 -0.2485 -0.3518 -0.4118
   30MOL   H37811456   5.943   7.238   6.398  1.4205  1.0722  1.2745
   30MOL   H37911457   6.164   7.129   6.390  0.3867  0.9854 -0.7470
   30MOL   H38011458   6.088   6.971   6.407 -0.3201  0.3628  0.1193
   30MOL   H38111459   6.056   7.066   6.264  2.2324 -2.2513 -0.3972
   30MOL   H38211460   5.947   6.790   6.674 -1.2647 -0.4074 -0.5880
   31MOL     C111461   6.082   4.513   0.973  0.0103 -0.0801 -0.2997
   31MOL     C211462   6.037   4.531   0.823 -0.0713 -0.3016 -0.2547
   31MOL     O311463   5.959   4.414   0.783 -0.3662 -0.0011 -0.2210
   31MOL     C411464   6.032   4.299   0.752 -0.9510  0.3279  0.2042
   31MOL     C511465   5.945   4.174   0.732  0.2748  0.0870  1.1910
   31MOL     C611466   5.865   4.191   0.601  0.3095  0.1991 -0.9337
   31MOL     C711467   5.806   4.058   0.549 -0.4912 -0.2475  0.2271
   31MOL     H811468   5.994   4.486   1.032  0.0014  2.4561  0.9254
   31MOL     H911469   6.159   4.436   0.978  0.4547  0.3856  0.1819
   31MOL    H1011470   6.133   4.541   0.772 -0.0630 -2.0114 -0.6210
   31MOL    H1111471   6.081   4.298   0.655  3.5565  0.7035  2.3471
   31MOL    H1211472   6.115   4.288   0.822 -0.3782 -1.2251 -0.6793
   31MOL    H1311473   5.877   4.170   0.817  0.8619  5.0839  2.0178
   31MOL    H1411474   6.016   4.092   0.738  1.3818  0.8919 -0.4827
   31MOL    H1511475   5.926   4.243   0.527  0.5666  1.9629  0.4675
   31MOL    H1611476   5.785   4.260   0.627  1.3603  1.0203  0.2386
   31MOL    H1711477   5.756   4.008   0.632  0.5959 -3.9612 -1.2656
   31MOL    H1811478   5.900   4.006   0.531  1.5500  3.3764 -0.1241
   31MOL    H1911479   5.741   4.071   0.463 -1.8091  1.6299  1.4469
   31MOL    H2011480   6.123   4.602   1.020 -2.1909  1.1539 -0.6300
   31MOL    C2111481   5.960   4.666   0.806  0.2376 -0.4924  0.1650
   31MOL    C2211482   5.912   4.712   0.666 -0.2435 -0.1937  0.3153
   31MOL    O2311483   6.023   4.710   0.585 -0.3401  0.1333  0.3612
   31MOL    C2411484   6.088   4.840   0.576  0.2664  0.4158  0.1847
   31MOL    C2511485   6.220   4.826   0.503  0.1071 -0.3800 -0.1810
   31MOL    C2611486   6.219   4.751   0.362  0.4620 -0.9180  0.1254
   31MOL    C2711487   6.359   4.750   0.297 -0.2895  0.2680 -0.1547
   31MOL    H2811488   6.033   4.741   0.837  1.5405 -1.6790  0.0734
   31MOL    H2911489   5.875   4.663   0.874  0.7164 -1.9397  0.7340
   31MOL    H3011490   5.870   4.812   0.674  0.2423  0.1598 -1.4462
   31MOL    H3111491   6.113   4.869   0.678 -1.8916  0.5949  0.6994
   31MOL    H3211492   6.021   4.914   0.531 -0.7267 -1.0482 -0.8254
   31MOL    H3311493   6.267   4.923   0.484 -0.9532 -0.0908 -1.3848
   31MOL    H3411494   6.288   4.786   0.578  1.1482  0.8625 -0.4337
   31MOL    H3511495   6.185   4.649   0.382 -0.8503 -0.5882 -0.4307
   31MOL    H3611496   6.143   4.786   0.293 -0.2792 -0.6199  1.0773
   31MOL    H3711497   6.352   4.704   0.198 -0.9694 -0.1818  0.0941
   31MOL    H3811498   6.399   4.849   0.277  2.3446 -1.0247 -1.5549
   31MOL    H3911499   6.420   4.684   0.358 -1.4806 -3.0206 -2.3487
   31MOL    C4011500   5.794   4.637   0.607  0.3233  1.2583 -0.3781
   31MOL    C4111501   5.753   4.670   0.463  0.2961 -0.2276 -0.0509
   31MOL    O4211502   5.686   4.797   0.466 -0.1790  0.2426  0.1045
   31MOL    C4311503   5.734   4.900   0.388 -0.3064  0.3044  0.1154
   31MOL    C4411504   5.624   5.003   0.386  0.5318 -0.5948 -0.0095
   31MOL    C4511505   5.603   5.074   0.524  0.7776 -0.5586 -0.1292
   31MOL    C4611506   5.518   4.985   0.623 -0.0409 -0.2052 -0.2399
   31MOL    H4711507   5.709   4.664   0.670  0.5337 -0.7810  0.8470
   31MOL    H4811508   5.814   4.529   0.607 -0.7960  1.0275  1.0924
   31MOL    H4911509   5.841   4.670   0.399  0.6224 -1.3277  0.3980
   31MOL    H5011510   5.761   4.880   0.284 -1.0713  2.4266 -0.5038
   31MOL    H5111511   5.829   4.937   0.426 -0.7905  0.3446  1.3094
   31MOL    H5211512   5.538   4.956   0.338  1.0873 -2.2968  0.6062
   31MOL    H5311513   5.647   5.080   0.313  1.3771 -1.3402 -0.5344
   31MOL    H5411514   5.536   5.160   0.521  0.2608 -1.0014 -2.4877
   31MOL    H5511515   5.698   5.103   0.569  0.7060  0.1437 -0.4155
   31MOL    H5611516   5.512   5.028   0.723 -1.5601  0.7257 -0.7202
   31MOL    H5711517   5.419   4.964   0.583  1.2599 -1.4171 -3.0106
   31MOL    H5811518   5.562   4.886   0.637 -1.8504 -0.9701  0.2378
   31MOL    C5911519   5.650   4.570   0.407  0.3861  0.5276  0.9536
   31MOL    C6011520   5.604   4.604   0.262  0.5702  0.0919  0.1283
   31MOL    O6111521   5.632   4.490   0.178  0.1370 -0.1627  0.3980
   31MOL    C6211522   5.743   4.507   0.088  0.3184  0.6114 -0.2705
   31MOL    C6311523   5.883   4.480   0.162  0.0360  0.3240 -1.0439
   31MOL    C6411524   5.897   4.338   0.197  0.4379 -0.2707 -0.1204
   31MOL    C6511525   6.039   4.319   0.262 -0.6467 -0.2420  0.1823
   31MOL    H6611526   5.695   4.472   0.393 -0.5829  0.3706 -1.1895
   31MOL    H6711527   5.566   4.552   0.474  0.3410  0.1222  0.7916
   31MOL    H6811528   5.656   4.686   0.212 -0.3330 -0.7311 -2.2282
   31MOL    H6911529   5.744   4.610   0.052 -1.9419  1.1376  1.0746
   31MOL    H7011530   5.716   4.435   0.011  0.9831  1.2976 -1.1365
   31MOL    H7111531   5.964   4.511   0.097  2.4156 -0.9560  1.2339
   31MOL    H7211532   5.893   4.543   0.251 -2.5157  1.0955 -1.2524
   31MOL    H7311533   5.824   4.318   0.276  1.9944 -0.2160  1.3761
   31MOL    H7411534   5.879   4.279   0.108  0.5716  1.3672 -1.2582
   31MOL    H7511535   6.128   4.339   0.202 -1.0835  0.7598 -0.1337
   31MOL    H7611536   6.049   4.398   0.336  2.2595  0.1099 -0.5066
   31MOL    H7711537   6.055   4.225   0.315  0.2508  1.1488  2.4442
   31MOL    C7811538   5.455   4.626   0.254  0.3102 -0.4299 -0.4978
   31MOL    C7911539   5.399   4.665   0.119  0.3314  0.0850  0.8840
   31MOL    O8011540   5.445   4.798   0.091 -0.0611  0.1984 -0.1816
   31MOL    C8111541   5.496   4.819   7.767 -0.0063 -0.0465 -0.3477
   31MOL    C8211542   5.499   4.972   7.733  0.1029  0.3771 -0.2145
   31MOL    C8311543   5.566   5.051   0.044  0.4842 -0.0025  0.1671
   31MOL    C8411544   5.553   5.200   0.036  0.4432  0.0382  0.0935
   31MOL    H8511545   5.437   4.693   0.338  2.8368 -2.4245  1.7424
   31MOL    H8611546   5.409   4.531   0.281  1.5568 -0.5779  1.1777
   31MOL    H8711547   5.423   4.590   0.044 -0.5162  0.2800  0.4142
   31MOL    H8811548   5.443   4.765   7.688  2.1835 -0.8846 -1.2606
   31MOL    H8911549   5.598   4.782   7.762  0.0169 -0.1224  0.5712
   31MOL    H9011550   5.553   4.985   7.639  0.8645  0.3553  0.2181
   31MOL    H9111551   5.395   5.003   7.726 -0.0504  0.3787  1.8145
   31MOL    H9211552   5.671   5.021   0.037  0.3614 -0.9814  2.1906
   31MOL    H9311553   5.516   5.015   0.134 -2.3344  1.4486 -0.7698
   31MOL    H9411554   5.617   5.236   0.117 -0.9772  0.8403  0.8838
   31MOL    H9511555   5.591   5.251   7.749  0.1054 -1.1145 -0.7312
   31MOL    H9611556   5.449   5.227   0.056  0.2049 -0.8904  0.1514
   31MOL    C9711557   5.249   4.680   0.113 -0.4300 -0.2847 -0.0517
   31MOL    C9811558   5.186   4.673   7.776 -0.2120  0.0789  0.0016
   31MOL    O9911559   5.208   4.551   7.711 -0.0121  0.2836 -0.3902
   31MOL   C10011560   5.219   4.557   7.569  0.8474  0.3639 -0.5541
   31MOL   C10111561   5.277   4.427   7.507  0.5356 -1.0020 -0.9118
   31MOL   C10211562   5.427   4.416   7.552 -0.4499  0.2158 -0.1686
   31MOL   C10311563   5.511   4.302   7.482  0.3930 -0.0671 -0.1419
   31MOL   H10411564   5.239   4.784   0.146 -1.4108  0.1561 -1.6720
   31MOL   H10511565   5.197   4.610   0.179 -0.9782 -0.0902 -0.2694
   31MOL   H10611566   5.228   4.751   7.713 -0.0150 -1.2442 -1.5527
   31MOL   H10711567   5.290   4.634   7.536  2.7598  0.1894  2.8557
   31MOL   H10811568   5.127   4.587   7.519 -0.6324 -0.3909  1.6554
   31MOL   H10911569   5.258   4.441   7.401 -0.9291  1.0009 -0.4062
   31MOL   H11011570   5.227   4.332   7.526 -0.6691 -0.5522 -1.8005
   31MOL   H11111571   5.435   4.402   7.659 -0.4098 -1.6576 -0.4061
   31MOL   H11211572   5.480   4.511   7.541  1.1572 -0.6465 -0.0110
   31MOL   H11311573   5.503   4.292   7.374  1.5803  0.0852 -0.2460
   31MOL   H11411574   5.612   4.307   7.523  0.0209  2.2536  0.5789
   31MOL   H11511575   5.487   4.203   7.519 -1.8172 -0.2255 -1.9319
   31MOL   C11611576   5.038   4.694   7.776  0.1273  0.4084  0.0614
   31MOL   C11711577   4.943   4.570   7.784  0.2401  0.3471 -0.9107
   31MOL   O11811578   4.954   4.517   0.114  0.6408 -0.3456 -0.3825
   31MOL   C11911579   5.002   4.391   0.123 -0.6812  0.3609 -0.1831
   31MOL   C12011580   5.015   4.362   0.274 -0.0711 -0.2693  0.1780
   31MOL   C12111581   5.057   4.219   0.313 -0.2311 -0.3307 -0.7208
   31MOL   C12211582   5.012   4.192   0.460  0.1956  0.7043 -0.3256
   31MOL   H12311583   5.007   4.754   0.060  1.0837 -2.6286  2.6421
   31MOL   H12411584   5.015   4.754   7.688  0.5701  1.8675  0.9233
   31MOL   H12511585   4.976   4.495   7.713  1.1988 -0.7166  0.6123
   31MOL   H12611586   5.099   4.382   0.074  0.6948  1.1271  2.3359
   31MOL   H12711587   4.951   4.317   0.062  1.8376 -0.2271 -1.6382
   31MOL   H12811588   4.912   4.373   0.309 -0.4816 -0.6713 -0.8671
   31MOL   H12911589   5.078   4.438   0.321 -0.7903 -1.9249  4.0282
   31MOL   H13011590   5.022   4.142   0.245  2.1813 -1.5501 -0.6317
   31MOL   H13111591   5.166   4.212   0.307 -0.1495 -1.3033  1.5105
   31MOL   H13211592   5.058   4.099   0.491  0.2771  1.0268  0.5434
   31MOL   H13311593   4.906   4.192   0.484  0.0680 -0.6328 -0.8617
   31MOL   H13411594   5.054   4.270   0.525 -0.1875  1.1499 -0.6095
   31MOL   C13511595   4.793   4.603   7.748 -0.9089  0.9062 -0.0433
   31MOL   C13611596   4.708   4.478   7.759 -0.7119  0.3866  1.3487
   31MOL   O13711597   4.571   4.523   7.742  0.0598 -0.5183 -0.0841
   31MOL   C13811598   4.500   4.539   0.064 -0.3026  0.2405  0.3077
   31MOL   C13911599   4.359   4.573   0.026  0.1568 -0.0469  0.1816
   31MOL   C14011600   4.267   4.585   0.144 -0.4865 -0.1198 -0.3447
   31MOL   C14111601   4.123   4.623   0.100  0.6671 -0.0684  0.0139
   31MOL   H14211602   4.793   4.644   7.647  2.0711 -0.4144 -0.6693
   31MOL   H14311603   4.754   4.674   0.019  0.5475  1.1587  0.5165
   31MOL   H14411604   4.723   4.433   0.055  0.7826 -0.7054  0.6365
   31MOL   H14511605   4.546   4.614   0.128 -0.7081 -1.1717  2.3355
   31MOL   H14611606   4.485   4.441   0.111 -2.0642 -0.4476 -1.6204
   31MOL   H14711607   4.319   4.493   7.766  1.0019 -0.1900 -0.1906
   31MOL   H14811608   4.357   4.659   7.761 -0.4306  0.7107  1.1721
   31MOL   H14911609   4.253   4.486   0.187  1.3956  0.4095  1.5599
   31MOL   H15011610   4.315   4.650   0.218  1.1986  0.0479 -1.5544
   31MOL   H15111611   4.077   4.632   0.198 -1.0105  0.8724 -0.8413
   31MOL   H15211612   4.112   4.720   0.051 -3.6132  0.1467  1.2437
   31MOL   H15311613   4.076   4.545   0.041  0.5515 -1.0200  1.3467
   31MOL   C15411614   4.734   4.376   7.642 -0.6027 -0.7595  0.1275
   31MOL   C15511615   4.641   4.256   7.646  0.2836 -0.3398  0.0740
   31MOL   O15611616   4.690   4.170   7.743 -0.8686 -0.2327  0.4599
   31MOL   C15711617   4.627   4.159   0.062 -0.4623 -0.3298  0.0679
   31MOL   C15811618   4.664   4.034   0.139 -0.7149  0.3313  0.1064
   31MOL   C15911619   4.565   4.007   0.258  0.3703  0.1920 -0.0254
   31MOL   C16011620   4.599   3.876   0.330 -0.2573 -0.4590 -0.6656
   31MOL   H16111621   4.836   4.341   7.628 -0.5150  0.1691 -1.5797
   31MOL   H16211622   4.702   4.442   7.562 -0.4232 -0.8235  0.0052
   31MOL   H16311623   4.540   4.281   7.675  0.0925 -2.6779  1.5260
   31MOL   H16411624   4.634   4.251   0.121 -0.9459  0.7903 -1.5731
   31MOL   H16511625   4.519   4.158   0.044 -0.1271  1.2031 -2.1905
   31MOL   H16611626   4.766   4.047   0.175 -0.4584  0.3344 -0.6319
   31MOL   H16711627   4.659   3.951   0.069  2.2625  0.7009 -0.5895
   31MOL   H16811628   4.553   4.087   0.330 -3.7407  1.4351 -1.9881
   31MOL   H16911629   4.469   3.996   0.207  1.6600 -0.6312 -2.3695
   31MOL   H17011630   4.607   3.784   0.272 -0.6907 -2.8234  2.8725
   31MOL   H17111631   4.681   3.870   0.402 -0.3023  2.2201 -0.3343
   31MOL   H17211632   4.509   3.848   0.385 -0.3792  0.0238 -0.6169
   31MOL   C17311633   4.635   4.187   7.511 -0.1299 -0.5690 -0.3404
   31MOL   C17411634   4.530   4.081   7.486  0.5676  0.7653  0.0554
   31MOL   O17511635   4.400   4.146   7.478  0.7933  0.0550  0.2035
   31MOL   C17611636   4.305   4.102   7.574 -0.1297  0.4921  0.7776
   31MOL   C17711637   4.178   4.205   7.583 -0.2877 -0.1773  0.0258
   31MOL   C17811638   4.111   4.179   7.714 -0.0028 -0.4060 -0.0655
   31MOL   C17911639   3.975   4.251   7.733  0.1163 -0.4622  0.0014
   31MOL   H18011640   4.734   4.144   7.495  1.0973  1.2164  2.1252
   31MOL   H18111641   4.621   4.265   7.436  0.7872 -0.2768 -0.2167
   31MOL   H18211642   4.535   4.016   7.574  1.3496  3.4281  2.0439
   31MOL   H18311643   4.346   4.098   7.674  1.0066  0.4263  0.3141
   31MOL   H18411644   4.271   4.001   7.551  0.2907 -0.0307  2.3803
   31MOL   H18511645   4.114   4.207   7.495 -3.3239 -0.0998  2.1363
   31MOL   H18611646   4.219   4.306   7.586  0.4636 -0.4609 -0.6804
   31MOL   H18711647   4.096   4.074   7.741 -0.4791 -0.3894 -0.2512
   31MOL   H18811648   4.177   4.223   7.789  0.6603 -2.0633  0.3534
   31MOL   H18911649   3.948   4.249   0.037 -0.5085  0.5219 -0.1327
   31MOL   H19011650   3.976   4.354   7.697 -1.3867 -0.1296  0.8905
   31MOL   H19111651   3.904   4.201   7.667 -0.8016  0.6379  0.1474
   31MOL   C19211652   4.556   4.008   7.351  0.3079 -0.2725 -0.5514
   31MOL   C19311653   4.456   3.905   7.303 -0.2617  0.1995 -0.8129
   31MOL   O19411654   4.504   3.846   7.184 -0.3652  0.1078  0.2764
   31MOL   C19511655   4.433   3.908   7.077  0.4579  0.0514 -0.3186
   31MOL   C19611656   4.480   3.847   6.944  0.9281 -0.2559 -0.3756
   31MOL   C19711657   4.616   3.916   6.899 -0.5077  0.3022 -0.9049
   31MOL   C19811658   4.694   3.814   6.820  0.0310  0.2087  0.8183
   31MOL   H19911659   4.649   3.955   7.371  0.6189  0.8644  1.0915
   31MOL   H20011660   4.575   4.087   7.279 -1.5864 -0.4869 -1.3218
   31MOL   H20111661   4.355   3.945   7.304 -0.0331  0.7730 -0.1618
   31MOL   H20211662   4.436   4.017   7.068 -2.4667  0.0799 -1.5566
   31MOL   H20311663   4.328   3.882   7.078 -0.4923  3.7055 -0.4647
   31MOL   H20411664   4.499   3.740   6.955 -1.2467 -0.6023  0.2976
   31MOL   H20511665   4.395   3.859   6.876  0.7489 -1.2573 -0.3300
   31MOL   H20611666   4.662   3.948   6.993 -0.7627  0.6743 -0.9078
   31MOL   H20711667   4.601   4.003   6.835 -0.2313  1.2296  0.2577
   31MOL   H20811668   4.628   3.781   6.739 -1.2956  2.5904  0.9053
   31MOL   H20911669   4.776   3.860   6.764 -1.7975  1.1816 -1.1600
   31MOL   H21011670   4.735   3.735   6.883  0.7343  0.6863  0.9606
   31MOL   C21111671   4.460   3.779   7.404 -0.2801  0.0079  0.1588
   31MOL   C21211672   4.353   3.672   7.361  0.2061 -0.8081  0.2385
   31MOL   O21311673   4.368   3.559   7.445 -0.2784 -0.4509  0.3600
   31MOL   C21411674   4.422   3.442   7.377  1.0720  0.4966 -0.3637
   31MOL   C21511675   4.424   3.330   7.472 -0.3099 -0.2536 -0.7404
   31MOL   C21611676   4.524   3.337   7.577 -0.1204 -0.0160 -0.0888
   31MOL   C21711677   4.520   3.225   7.683  0.0791 -0.0569  0.4439
   31MOL   H21811678   4.457   3.799   7.511 -1.7653 -1.6208  0.4448
   31MOL   H21911679   4.562   3.742   7.393 -0.2790  0.6224 -2.0017
   31MOL   H22011680   4.358   3.649   7.254  0.4663 -1.0264  0.2991
   31MOL   H22111681   4.363   3.416   7.289  1.5486 -2.9302  0.2523
   31MOL   H22211682   4.524   3.464   7.346  0.9133  0.2905 -1.0399
   31MOL   H22311683   4.324   3.314   7.513  0.4322 -0.1648  1.1567
   31MOL   H22411684   4.439   3.234   7.422 -2.1239 -0.7533 -0.3913
   31MOL   H22511685   4.515   3.431   7.632  0.2325 -0.2669  0.4001
   31MOL   H22611686   4.619   3.338   7.524 -0.2249 -0.5894 -0.2944
   31MOL   H22711687   4.475   3.136   7.637  1.4486 -1.4294  1.7202
   31MOL   H22811688   4.451   3.257   7.761 -0.8822  1.2019 -0.9079
   31MOL   H22911689   4.622   3.207   7.717  0.1107  3.7799  2.5793
   31MOL   C23011690   4.204   3.711   7.381 -1.0849  0.0808 -0.4792
   31MOL   C23111691   4.110   3.742   7.262  0.2319  0.5330 -0.0487
   31MOL   O23211692   4.123   3.879   7.243  0.1572  1.0451 -0.0148
   31MOL   C23311693   4.008   3.950   7.267 -0.5396 -0.8422 -0.1824
   31MOL   C23411694   4.025   4.080   7.190  0.2620 -0.2858 -0.6885
   31MOL   C23511695   3.905   4.175   7.216 -0.0777  0.0935 -0.4956
   31MOL   C23611696   3.918   4.314   7.148 -0.0924  0.5891  0.0507
   31MOL   H23711697   4.199   3.797   7.449 -1.8281  1.2926 -2.0318
   31MOL   H23811698   4.154   3.630   7.434 -0.7406 -0.8424 -1.5573
   31MOL   H23911699   4.013   3.708   7.298  0.8308 -2.3517 -1.0298
   31MOL   H24011700   3.914   3.897   7.254 -0.9016 -0.5184  1.0076
   31MOL   H24111701   4.014   3.962   7.376 -2.8139 -0.6060 -0.0573
   31MOL   H24211702   4.113   4.131   7.229  0.9774 -1.7107 -0.4156
   31MOL   H24311703   4.041   4.064   7.083 -3.0455 -2.1782 -0.9758
   31MOL   H24411704   3.888   4.183   7.324 -1.6061 -1.2174 -0.6264
   31MOL   H24511705   3.815   4.130   7.175 -2.0285  3.1528  0.2635
   31MOL   H24611706   4.014   4.361   7.170  0.0372  0.1734  0.3858
   31MOL   H24711707   3.846   4.385   7.188  0.2029  0.2504  1.2074
   31MOL   H24811708   3.896   4.312   7.041 -0.2301 -1.1217  0.1018
   31MOL   C24911709   4.113   3.669   7.130  0.0821  0.1634 -0.5989
   31MOL   C25011710   4.080   3.520   7.140 -0.3887  0.1179  0.6635
   31MOL   O25111711   4.117   3.456   7.019 -0.2998 -0.1733 -0.0747
   31MOL   C25211712   4.191   3.335   7.042  0.2743 -0.1865  0.3210
   31MOL   C25311713   4.255   3.281   6.914 -0.2513 -0.5395  0.4151
   31MOL   C25411714   4.317   3.136   6.935  0.5941  0.0218 -0.3489
   31MOL   C25511715   4.218   3.018   6.944  0.1019  0.3534 -0.0063
   31MOL   H25611716   4.210   3.673   7.082  0.1753 -2.7545 -0.7386
   31MOL   H25711717   4.043   3.717   7.062  0.9118 -0.0920 -1.6300
   31MOL   H25811718   4.129   3.474   7.226 -0.9224  0.2562  1.0396
   31MOL   H25911719   4.114   3.260   7.061 -0.9521  0.6251 -1.2517
   31MOL   H26011720   4.255   3.337   7.130 -1.3332  2.4787  1.4817
   31MOL   H26111721   4.165   3.285   6.852 -1.0580 -1.7523  1.4623
   31MOL   H26211722   4.325   3.352   6.871 -0.4727  0.6525  1.9403
   31MOL   H26311723   4.385   3.122   6.851  0.1657 -0.7965 -0.5715
   31MOL   H26411724   4.377   3.144   7.025  0.0131 -0.8270  0.1263
   31MOL   H26511725   4.268   2.926   6.973 -1.6344 -0.8522 -0.7550
   31MOL   H26611726   4.178   2.988   6.847 -0.7864  1.7718 -0.0997
   31MOL   H26711727   4.145   3.048   7.019  0.4703  3.5537 -0.8283
   31MOL   C26811728   3.927   3.502   7.161  0.5360  0.7245 -0.4742
   31MOL   C26911729   3.876   3.382   7.255 -0.2585 -0.1277  0.5438
   31MOL   O27011730   3.908   3.417   7.390  0.3457  0.0600 -0.0134
   31MOL   C27111731   3.807   3.479   7.472 -0.1929  0.3134 -0.5618
   31MOL   C27211732   3.859   3.504   7.613 -0.2750 -0.1373  0.5455
   31MOL   C27311733   3.936   3.393   7.678 -0.5358 -0.0980  0.2905
   31MOL   C27411734   4.036   3.442   7.788 -0.7938 -0.1282 -0.5012
   31MOL   H27511735   3.875   3.591   7.194 -0.0553  0.8936 -1.8236
   31MOL   H27611736   3.883   3.492   7.062 -2.6002  3.0719  0.6054
   31MOL   H27711737   3.928   3.287   7.239 -0.7911 -0.6766  2.0211
   31MOL   H27811738   3.777   3.578   7.437  1.9034  1.2570  0.2295
   31MOL   H27911739   3.723   3.410   7.470  0.3276 -0.3008 -1.6518
   31MOL   H28011740   3.929   3.583   7.584 -0.8804 -0.2609 -1.3094
   31MOL   H28111741   3.787   3.550   7.680 -0.3321  1.0110 -0.2788
   31MOL   H28211742   4.004   3.340   7.610 -2.1729 -2.0973  0.1796
   31MOL   H28311743   3.865   3.318   7.713 -2.1705  1.1554 -0.2990
   31MOL   H28411744   4.115   3.367   7.800 -0.6175 -0.1703 -1.8478
   31MOL   H28511745   3.985   3.476   0.077  0.5279 -0.2546  0.3150
   31MOL   H28611746   4.087   3.529   7.748  2.4598 -1.5614  0.3348
   31MOL   C28711747   3.727   3.342   7.227 -0.0338  0.0159 -0.9663
   31MOL   C28811748   3.682   3.207   7.281 -0.1086  0.1861  0.5859
   31MOL   O28911749   3.744   3.100   7.217  0.1899  0.5667  0.1165
   31MOL   C29011750   3.838   3.038   7.296 -0.2407 -0.4502 -0.0108
   31MOL   C29111751   3.908   2.931   7.210  0.1540  0.9320 -0.3236
   31MOL   C29211752   3.832   2.806   7.190  0.2807  0.6968  0.6313
   31MOL   C29311753   3.892   2.706   7.092 -0.3092  0.2885  0.3433
   31MOL   H29411754   3.717   3.346   7.118  2.8902 -0.1260 -1.2666
   31MOL   H29511755   3.663   3.425   7.256 -0.6959 -0.8343  0.0233
   31MOL   H29611756   3.701   3.202   7.388 -0.7352  0.4909  0.7086
   31MOL   H29711757   3.918   3.107   7.323 -1.0519 -0.0081  1.2920
   31MOL   H29811758   3.797   2.991   7.385 -1.6766  0.2242 -0.3136
   31MOL   H29911759   4.000   2.908   7.264  0.4223  2.1541 -0.2580
   31MOL   H30011760   3.936   2.968   7.112 -2.3113  1.1298 -0.9912
   31MOL   H30111761   3.739   2.834   7.140  1.6260  0.0774 -2.3561
   31MOL   H30211762   3.798   2.751   7.277 -0.6488 -0.7234 -0.5981
   31MOL   H30311763   3.880   2.746   6.991 -1.1208 -0.2756  0.2108
   31MOL   H30411764   3.999   2.701   7.109 -0.3235  0.6426  0.5579
   31MOL   H30511765   3.842   2.609   7.091 -1.3064  0.7878  0.8098
   31MOL   C30611766   3.527   3.176   7.274 -1.1273  0.0915  0.1358
   31MOL   C30711767   3.438   3.235   7.384 -0.7653 -0.4685  0.2260
   31MOL   O30811768   3.331   3.148   7.410 -0.4904 -0.1198  0.6198
   31MOL   C30911769   3.339   3.100   7.543  0.2968 -0.4589  0.2133
   31MOL   C31011770   3.254   2.974   7.565 -0.6501  0.2999 -0.5512
   31MOL   C31111771   3.111   2.999   7.551  0.7140 -0.4906  0.4097
   31MOL   C31211772   3.025   2.875   7.575 -0.3223 -0.6387  0.3544
   31MOL   H31311773   3.486   3.172   7.174  1.9738 -1.6272 -1.1533
   31MOL   H31411774   3.515   3.070   7.298 -0.1522  0.0658  0.5561
   31MOL   H31511775   3.494   3.255   7.476  0.3693 -2.3918 -0.0169
   31MOL   H31611776   3.295   3.173   7.612 -0.1276 -1.7946  1.3829
   31MOL   H31711777   3.443   3.088   7.573  0.5576  0.4165 -0.3143
   31MOL   H31811778   3.264   2.934   7.666  4.7296  0.5399 -0.8547
   31MOL   H31911779   3.285   2.901   7.490  0.0400 -1.0541  1.0212
   31MOL   H32011780   3.083   3.092   7.602  0.9705  0.3914 -1.0460
   31MOL   H32111781   3.098   3.027   7.447 -1.2319 -0.0192  0.7560
   31MOL   H32211782   3.066   2.800   7.507 -0.6366 -0.2634 -0.2545
   31MOL   H32311783   2.921   2.899   7.553  0.1692  1.5705  0.3493
   31MOL   H32411784   3.026   2.827   7.673  0.8821 -0.8917  0.2236
   31MOL   C32511785   3.374   3.358   7.319  0.5137 -0.3388  0.2310
   31MOL   C32611786   3.274   3.436   7.406  0.0547 -0.1675 -0.2929
   31MOL   O32711787   3.339   3.525   7.490  0.0130  0.2170 -0.1817
   31MOL   C32811788   3.341   3.491   7.621 -0.5372 -0.3224 -0.3459
   31MOL   C32911789   3.382   3.615   7.694  0.7200  0.4519  0.4233
   31MOL   C33011790   3.281   3.730   7.693 -0.5800  0.1127  0.1980
   31MOL   C33111791   3.318   3.843   7.785  0.3501 -0.5067 -0.5694
   31MOL   H33211792   3.325   3.321   7.228  3.0897 -2.9636 -0.1282
   31MOL   H33311793   3.449   3.430   7.286  0.7448 -1.2449 -1.2741
   31MOL   H33411794   3.213   3.363   7.459 -0.3131  0.2118 -0.2014
   31MOL   H33511795   3.403   3.404   7.645 -0.2761 -0.6080 -2.0223
   31MOL   H33611796   3.238   3.475   7.651  0.1606 -1.5927  1.4693
   31MOL   H33711797   3.387   3.578   7.797 -0.0856  0.1597  0.3655
   31MOL   H33811798   3.481   3.646   7.662 -0.2987  0.2914 -3.0756
   31MOL   H33911799   3.186   3.690   7.727  0.6669 -1.1203  2.3393
   31MOL   H34011800   3.267   3.762   7.590  3.0690  0.4820 -0.2621
   31MOL   H34111801   3.396   3.906   7.743  1.4586  0.3636  2.6811
   31MOL   H34211802   3.363   3.795   0.070 -0.3004  1.2469  0.7849
   31MOL   H34311803   3.222   3.894   7.800 -0.5063 -0.9482 -3.9776
   31MOL   C34411804   3.173   3.510   7.312  0.7032  0.8718 -0.3564
   31MOL   C34511805   3.062   3.589   7.394 -0.4062  0.0870  0.2043
   31MOL   O34611806   2.966   3.495   7.442  0.3026  0.1470  0.6424
   31MOL   C34711807   2.887   3.550   7.545  0.7222 -0.5007 -0.4573
   31MOL   C34811808   2.802   3.430   7.598  0.1085  0.2803  0.0700
   31MOL   C34911809   2.891   3.320   7.660  0.1302 -0.2737  0.4651
   31MOL   C35011810   2.814   3.194   7.677 -0.2307  0.7680 -0.0620
   31MOL   H35111811   3.221   3.571   7.235 -0.3467 -0.8415 -2.4253
   31MOL   H35211812   3.121   3.434   7.255  1.6734  0.8000 -1.1584
   31MOL   H35311813   3.116   3.625   7.482  0.6539  0.6921 -0.6897
   31MOL   H35411814   2.831   3.634   7.504  0.4946 -0.6044 -0.3600
   31MOL   H35511815   2.942   3.601   7.624  2.0222 -1.4526 -0.7237
   31MOL   H35611816   2.737   3.405   7.514  1.6471  0.9590 -1.3615
   31MOL   H35711817   2.734   3.467   7.675  0.4676 -1.5919  1.2994
   31MOL   H35811818   2.983   3.304   7.603  1.6227  1.6002  2.2787
   31MOL   H35911819   2.923   3.358   7.757  3.2291  2.2964 -1.4182
   31MOL   H36011820   2.720   3.192   7.732 -0.0042  0.2989  0.3118
   31MOL   H36111821   2.878   3.112   7.710  0.0038  0.4631 -1.2386
   31MOL   H36211822   2.786   3.157   7.578 -0.2631 -0.2911  0.3349
   31MOL   C36311823   2.998   3.693   7.296 -0.3903 -0.1192 -0.0160
   31MOL   C36411824   2.916   3.632   7.175 -0.5468 -0.2274  0.4488
   31MOL   O36511825   2.863   3.739   7.090 -0.0748 -0.2578 -0.1818
   31MOL   C36611826   2.768   3.700   6.988  0.5345 -0.6599  0.1822
   31MOL   C36711827   2.727   3.827   6.902  0.0157  0.1394 -0.3132
   31MOL   C36811828   2.690   3.958   6.987 -0.8943  0.5202  0.2587
   31MOL   C36911829   2.596   3.941   7.104 -0.0255  0.3891  0.1425
   31MOL   H37011830   3.070   3.767   7.261  0.5741 -1.1457 -0.2345
   31MOL   H37111831   2.929   3.753   7.355 -0.8645 -0.8147  0.1329
   31MOL   H37211832   2.833   3.575   7.215 -0.5169 -1.3832 -1.0829
   31MOL   H37311833   2.683   3.656   7.039  0.0270 -1.8255 -1.6369
   31MOL   H37411834   2.820   3.630   6.922  0.4812  0.0198 -0.5945
   31MOL   H37511835   2.638   3.787   6.854 -0.2667  0.1645  0.1886
   31MOL   H37611836   2.803   3.855   6.830  1.0593  3.0095  1.7834
   31MOL   H37711837   2.653   4.035   6.920 -0.6204  0.7638  0.3863
   31MOL   H37811838   2.783   3.992   7.032  0.6837  0.3692 -2.7461
   31MOL   H37911839   2.638   3.864   7.169 -1.3152  1.6652  2.5458
   31MOL   H38011840   2.586   4.027   7.169 -0.1541  1.7656 -1.6478
   31MOL   H38111841   2.493   3.916   7.078  0.6274  1.0499 -3.2948
   31MOL   H38211842   2.974   3.564   7.112 -0.0370 -0.4482  1.1467
   32MOL     C111843   0.537   1.331   7.379  0.5560  0.3448 -0.1665
   32MOL     C211844   0.398   1.359   7.332  0.1706 -0.5580  0.0256
   32MOL     O311845   0.339   1.244   7.275  0.1900  0.1946 -0.3175
   32MOL     C411846   0.382   1.214   7.140 -0.0495 -0.4164  0.8423
   32MOL     C511847   0.272   1.245   7.030 -0.4706 -0.0275  0.2882
   32MOL     C611848   0.245   1.394   7.024  0.3292 -0.7430 -0.2050
   32MOL     C711849   0.132   1.425   6.922  0.0387  0.2564  0.5188
   32MOL     H811850   0.583   1.267   7.304  0.5671 -1.0022  0.9836
   32MOL     H911851   0.588   1.427   7.393  0.7975  0.0707  0.8878
   32MOL    H1011852   0.420   1.423   7.247  1.2620 -3.7113 -2.1470
   32MOL    H1111853   0.476   1.261   7.111  1.1844 -2.7242  0.9761
   32MOL    H1211854   0.397   1.106   7.139  2.3842 -0.1045 -1.2155
   32MOL    H1311855   0.181   1.188   7.049  0.6756 -1.8167  0.4546
   32MOL    H1411856   0.297   1.206   6.932 -0.6377  0.7092 -0.0512
   32MOL    H1511857   0.331   1.456   6.998 -0.2742 -0.3884 -1.3730
   32MOL    H1611858   0.222   1.433   7.123  2.6976 -1.8665  0.8554
   32MOL    H1711859   0.139   1.361   6.833 -2.2519  1.1234 -0.3271
   32MOL    H1811860   0.132   1.524   6.876  1.3552 -0.2672 -0.6656
   32MOL    H1911861   0.030   1.415   6.958 -0.7165 -0.5130 -1.7362
   32MOL    H2011862   0.541   1.273   7.471  0.4372  1.7127  0.7223
   32MOL    C2111863   0.310   1.417   7.442 -0.7842  0.2350 -0.0241
   32MOL    C2211864   0.348   1.561   7.476  0.5529  0.3031  0.1233
   32MOL    O2311865   0.298   1.649   7.376  0.3236  0.6604 -0.0006
   32MOL    C2411866   0.395   1.723   7.312 -0.4548 -0.2538  0.2254
   32MOL    C2511867   0.315   1.806   7.213  0.1802 -0.1165 -0.0992
   32MOL    C2611868   0.233   1.724   7.108  0.4306  0.3796  0.2625
   32MOL    C2711869   0.144   1.810   7.012 -0.2395  0.2776  0.2844
   32MOL    H2811870   0.318   1.349   7.527  0.1053  0.6584  0.2364
   32MOL    H2911871   0.203   1.407   7.423 -1.4782  1.7592  2.8510
   32MOL    H3011872   0.457   1.557   7.486  0.6266  2.0261  0.1714
   32MOL    H3111873   0.467   1.661   7.258 -1.6079 -0.2765 -1.3326
   32MOL    H3211874   0.447   1.781   7.387  0.6570 -0.5546 -0.3089
   32MOL    H3311875   0.252   1.878   7.264 -0.0101 -1.4129  1.5435
   32MOL    H3411876   0.384   1.866   7.154 -0.8871  0.4306 -0.8194
   32MOL    H3511877   0.301   1.671   7.041  0.7948  2.6468 -1.2584
   32MOL    H3611878   0.164   1.656   7.157  2.2781 -0.0372  2.3425
   32MOL    H3711879   0.062   1.852   7.070 -2.4024 -0.4249 -2.1480
   32MOL    H3811880   0.200   1.876   6.947 -1.6343 -0.2028 -1.4202
   32MOL    H3911881   0.099   1.748   6.935 -0.0389  0.1321  0.2846
   32MOL    C4011882   0.297   1.613   7.615 -0.3359  0.2049 -0.1866
   32MOL    C4111883   0.337   1.756   7.666  0.0070 -0.0714  0.0870
   32MOL    O4211884   0.479   1.753   7.664  0.1313  0.1609 -0.2149
   32MOL    C4311885   0.539   1.884   7.662 -0.1358  0.3479 -0.5580
   32MOL    C4411886   0.677   1.865   7.585  0.1706 -0.0655  0.5322
   32MOL    C4511887   0.761   1.984   7.574  0.5390  0.0028 -0.0706
   32MOL    C4611888   0.895   1.945   7.502  0.3609 -0.3075 -0.3035
   32MOL    H4711889   0.328   1.534   7.684  1.3390  0.5501 -0.5244
   32MOL    H4811890   0.189   1.621   7.621 -0.4816 -0.2505 -2.0672
   32MOL    H4911891   0.298   1.818   7.585  2.3294  0.3850 -0.7314
   32MOL    H5011892   0.546   1.927   7.762 -2.0029  0.3060 -0.4049
   32MOL    H5111893   0.473   1.955   7.611 -2.5575 -0.1672  1.7635
   32MOL    H5211894   0.660   1.829   7.484  2.6920  1.0459 -0.3004
   32MOL    H5311895   0.732   1.789   7.640  1.0281 -0.1783 -0.4847
   32MOL    H5411896   0.775   2.028   7.673  1.1216 -2.6233  1.0633
   32MOL    H5511897   0.708   2.059   7.515 -0.5113 -0.6890 -0.0263
   32MOL    H5611898   0.968   1.911   7.575 -0.1876  0.4170  0.5942
   32MOL    H5711899   0.890   1.871   7.422 -0.5844 -0.1239 -0.4227
   32MOL    H5811900   0.943   2.034   7.461  0.2423 -1.1274 -2.2738
   32MOL    C5911901   0.297   1.792   0.008 -0.1091 -0.0533 -0.5221
   32MOL    C6011902   0.152   1.783   0.044  0.3018 -0.2903 -0.2035
   32MOL    O6111903   0.136   1.639   0.066  0.1404 -0.0980  0.5785
   32MOL    C6211904   0.009   1.575   0.057  0.2870 -0.2966  0.3754
   32MOL    C6311905   0.011   1.424   0.093  0.0614  0.3185 -0.2732
   32MOL    C6411906   0.103   1.340   7.799  0.5435 -0.4988 -0.4653
   32MOL    C6511907   0.045   1.327   7.652 -0.3314 -0.6139  0.4802
   32MOL    H6611908   0.341   1.721   0.078 -1.0218  0.3032  0.4158
   32MOL    H6711909   0.339   1.889   0.035 -0.3270  0.2544 -1.2721
   32MOL    H6811910   0.084   1.810   7.766  0.4561  2.8185  0.6253
   32MOL    H6911911   7.766   1.594   7.760 -0.3931  2.0013  1.0851
   32MOL    H7011912   7.756   1.622   0.139  2.1761 -0.2984  1.6553
   32MOL    H7111913   0.043   1.412   0.196 -1.6903 -1.4693  0.0905
   32MOL    H7211914   7.711   1.386   0.087 -0.6148  1.9970  0.2323
   32MOL    H7311915   0.204   1.381   7.796  0.7980 -1.1497 -0.8075
   32MOL    H7411916   0.110   1.240   0.039  0.5908 -0.2878  0.0326
   32MOL    H7511917   0.031   1.427   7.610 -0.5626 -1.0326 -0.4599
   32MOL    H7611918   0.115   1.265   7.595 -0.5142 -0.7359  0.3866
   32MOL    H7711919   7.750   1.276   7.650 -0.7679  0.2335 -0.5255
   32MOL    C7811920   0.122   1.859   0.175  0.8164 -0.3197  0.0836
   32MOL    C7911921   0.080   2.007   0.147  0.0755 -0.0168  0.4374
   32MOL    O8011922   0.197   2.097   0.124 -0.2090 -0.8194  0.3647
   32MOL    C8111923   0.213   2.113   7.783 -0.1346 -0.9633  0.3396
   32MOL    C8211924   0.346   2.199   7.770 -0.1498  0.0563 -1.0348
   32MOL    C8311925   0.368   2.246   7.627  0.2759 -0.0705 -0.1995
   32MOL    C8411926   0.510   2.287   7.603 -0.2319  0.2900 -0.8266
   32MOL    H8511927   0.201   1.860   0.251  1.9753 -1.2316 -1.0905
   32MOL    H8611928   0.029   1.819   0.215  0.7112  0.5423  0.7220
   32MOL    H8711929   0.011   1.997   0.064 -0.9769  1.3383  1.1333
   32MOL    H8811930   0.129   2.175   7.753  0.7146 -1.1049 -2.4469
   32MOL    H8911931   0.228   2.027   7.718 -0.6152  1.7474 -3.5335
   32MOL    H9011932   0.346   2.289   0.030 -1.4155  0.3806 -1.4932
   32MOL    H9111933   0.430   2.138   0.001  0.7358  1.1252 -1.2564
   32MOL    H9211934   0.303   2.332   7.610 -0.3497 -0.0382  2.1000
   32MOL    H9311935   0.347   2.167   7.556 -2.0028 -0.6012  1.0059
   32MOL    H9411936   0.542   2.377   7.656  1.4161  1.1664 -3.2731
   32MOL    H9511937   0.582   2.207   7.624 -1.3214 -0.5385 -0.1789
   32MOL    H9611938   0.530   2.314   7.500 -0.4720 -1.3776 -1.3271
   32MOL    C9711939   7.796   2.069   0.262 -0.3932 -0.1619 -0.4948
   32MOL    C9811940   7.740   2.208   0.229 -0.9378  0.1420 -0.0977
   32MOL    O9911941   7.640   2.197   0.128  0.5882 -0.3006 -0.1666
   32MOL   C10011942   7.639   2.304   0.031  0.7710  0.2554  0.0625
   32MOL   C10111943   7.506   2.323   7.773 -0.0698  0.4647  0.2362
   32MOL   C10211944   7.495   2.436   7.664  0.1088 -0.6785 -0.2992
   32MOL   C10311945   7.373   2.406   7.573 -0.5808 -0.4667 -0.2378
   32MOL   H10411946   0.049   2.080   0.355  0.0105  0.0888 -0.7584
   32MOL   H10511947   7.714   2.000   0.286 -2.2938  1.5547 -1.8322
   32MOL   H10611948   0.018   2.277   0.202  0.5222 -1.4062  0.1696
   32MOL   H10711949   7.710   2.283   7.752 -0.1025 -2.0775 -0.1380
   32MOL   H10811950   7.672   2.398   0.075  0.7586  0.7213 -0.9159
   32MOL   H10911951   7.435   2.337   0.053  2.2990  2.7204  1.9507
   32MOL   H11011952   7.489   2.223   7.731  1.6974  0.0647  0.4539
   32MOL   H11111953   7.589   2.442   7.609 -0.1680 -1.9180 -0.9298
   32MOL   H11211954   7.487   2.528   7.721 -0.8946 -1.3001  0.5645
   32MOL   H11311955   7.272   2.415   7.611 -1.7649 -1.9943 -2.9051
   32MOL   H11411956   7.376   2.476   7.489 -4.3923  0.6023  0.4446
   32MOL   H11511957   7.379   2.307   7.529  1.6009 -1.9920  3.2193
   32MOL   C11611958   7.664   2.261   0.355 -0.0348  0.1094 -0.2295
   32MOL   C11711959   7.750   2.352   0.454  0.4598  0.2774 -0.1175
   32MOL   O11811960   7.773   2.477   0.386  0.0968 -0.8510 -0.0503
   32MOL   C11911961   0.105   2.529   0.407  0.8399 -0.3687 -0.5012
   32MOL   C12011962   0.086   2.678   0.399  0.3122  0.7541  0.0880
   32MOL   C12111963   0.204   2.772   0.394  0.0506 -0.6544 -0.7499
   32MOL   C12211964   0.166   2.922   0.375 -0.3319 -0.7593 -0.2444
   32MOL   H12311965   7.571   2.309   0.325  0.5329  1.8997  0.7401
   32MOL   H12411966   7.617   2.180   0.411  0.7056  0.2504  0.6102
   32MOL   H12511967   0.043   2.301   0.476  0.1179 -1.2849 -2.1469
   32MOL   H12611968   0.164   2.491   0.324 -2.4143 -0.5810 -2.8206
   32MOL   H12711969   0.151   2.510   0.504  0.8895  2.3037  0.0587
   32MOL   H12811970   0.018   2.716   0.475  0.4236  3.7281 -1.2221
   32MOL   H12911971   0.025   2.704   0.312 -0.0577  0.2372  0.1893
   32MOL   H13011972   0.259   2.752   0.485 -1.7023 -1.7538  0.1072
   32MOL   H13111973   0.260   2.748   0.304  1.5354  0.3650 -0.1125
   32MOL   H13211974   0.106   2.971   0.451  1.3506  1.0810 -0.0656
   32MOL   H13311975   0.119   2.931   0.277 -0.0468  1.4793 -0.1918
   32MOL   H13411976   0.260   2.976   0.367 -2.3957  2.8670 -1.1133
   32MOL   C13511977   7.672   2.377   0.593 -0.5787  0.0046  0.0221
   32MOL   C13611978   7.737   2.476   0.687 -0.3818  0.4143  0.5480
   32MOL   O13711979   7.646   2.498   0.795 -0.2108 -0.1808 -0.0256
   32MOL   C13811980   7.519   2.576   0.780 -0.0199  0.1361  0.0716
   32MOL   C13911981   7.472   2.639   0.909 -0.2393  0.7098  0.4240
   32MOL   C14011982   7.578   2.718   0.977 -0.4895 -0.0799 -0.4035
   32MOL   C14111983   7.522   2.806   1.090  0.3596  0.2249 -0.0704
   32MOL   H14211984   7.654   2.288   0.654 -1.0289  0.3419  0.3758
   32MOL   H14311985   7.574   2.417   0.570 -0.6613 -1.1407 -1.8055
   32MOL   H14411986   7.766   2.568   0.637  0.6245 -1.1222 -1.7637
   32MOL   H14511987   7.445   2.504   0.746  0.1415  0.2459 -0.5256
   32MOL   H14611988   7.528   2.642   0.693  1.3924 -0.8137 -0.5246
   32MOL   H14711989   7.446   2.565   0.985  1.5004  1.0106  1.3458
   32MOL   H14811990   7.380   2.691   0.884  0.1591  1.1531 -0.1187
   32MOL   H14911991   7.663   2.655   1.005  0.7246  2.1856  1.1968
   32MOL   H15011992   7.614   2.789   0.904 -2.3184  0.8946 -0.3782
   32MOL   H15111993   7.486   2.898   1.044  3.4011  1.2803 -0.4016
   32MOL   H15211994   7.443   2.759   1.149 -1.2283 -0.4742 -2.6428
   32MOL   H15311995   7.607   2.842   1.148  0.7340  1.1048 -1.1488
   32MOL   C15411996   0.057   2.417   0.764  0.6787 -0.7010 -0.7999
   32MOL   C15511997   0.131   2.507   0.854 -0.4481  0.0661 -0.0352
   32MOL   O15611998   0.186   2.619   0.788  0.5098  0.7938  0.4895
   32MOL   C15711999   0.193   2.740   0.863 -0.5990 -0.6525  0.2449
   32MOL   C15812000   0.210   2.866   0.776 -0.0701  0.3889 -0.4914
   32MOL   C15912001   0.214   2.996   0.851 -0.2898 -1.1623  0.0935
   32MOL   C16012002   0.240   3.109   0.755 -0.7118 -1.1760 -0.9526
   32MOL   H16112003   0.131   2.382   0.692  1.1638  1.3833 -1.3380
   32MOL   H16212004   0.026   2.334   0.828  2.3567 -2.4416 -2.1925
   32MOL   H16312005   0.053   2.551   0.915 -1.6797  1.1261 -2.3211
   32MOL   H16412006   0.104   2.746   0.926 -0.5041  0.3211  0.2983
   32MOL   H16512007   0.269   2.732   0.941  0.9785  1.5546 -1.0178
   32MOL   H16612008   0.129   2.860   0.703 -0.6200 -0.4358  0.1708
   32MOL   H16712009   0.307   2.845   0.730 -0.3246  0.3694 -1.0321
   32MOL   H16812010   0.115   3.011   0.896 -0.3085 -1.3635  0.1181
   32MOL   H16912011   0.282   3.008   0.935  3.6436  1.0452 -3.2159
   32MOL   H17012012   0.344   3.099   0.725  0.2412  1.0530  1.4466
   32MOL   H17112013   0.181   3.112   0.664 -0.5187 -0.7062 -1.0613
   32MOL   H17212014   0.236   3.205   0.807  0.7627 -3.1418  3.0239
   32MOL   C17312015   0.242   2.439   0.938  0.3486 -0.0993  0.1090
   32MOL   C17412016   0.194   2.343   1.044  0.6763  1.1549  0.7831
   32MOL   O17512017   0.306   2.280   1.109 -0.0241 -0.3047  0.0253
   32MOL   C17612018   0.285   2.155   1.172  0.3937 -0.3755  0.0574
   32MOL   C17712019   0.419   2.096   1.224 -0.0041 -0.4433  0.7538
   32MOL   C17812020   0.474   2.184   1.340 -0.3906 -0.2406 -0.0869
   32MOL   C17912021   0.618   2.139   1.392  0.0987 -0.3106  0.0536
   32MOL   H18012022   0.307   2.510   0.988  1.0241 -0.4419 -0.2713
   32MOL   H18112023   0.302   2.383   0.866  2.9505  0.5749  1.7221
   32MOL   H18212024   0.156   2.256   0.990  0.3042  1.9001 -0.1777
   32MOL   H18312025   0.231   2.099   1.095  1.1809  0.3149 -1.0218
   32MOL   H18412026   0.207   2.159   1.248 -1.3077 -0.3311 -1.6486
   32MOL   H18512027   0.491   2.082   1.142 -0.8404  2.2795 -0.5046
   32MOL   H18612028   0.411   1.992   1.256  0.5382 -0.5753  0.4729
   32MOL   H18712029   0.475   2.288   1.309 -1.6555  0.4840  2.1579
   32MOL   H18812030   0.401   2.189   1.421  0.8259  1.3334  0.9388
   32MOL   H18912031   0.638   2.042   1.438 -1.7647  1.1806  4.2573
   32MOL   H19012032   0.678   2.153   1.302 -1.5063  0.0191 -0.9859
   32MOL   H19112033   0.664   2.207   1.464  1.1261 -0.9196 -0.0134
   32MOL   C19212034   0.095   2.397   1.145  0.4180  0.4759 -0.4212
   32MOL   C19312035   0.142   2.521   1.229 -0.9094  0.5819 -0.3938
   32MOL   O19412036   0.046   2.546   1.333  0.0612  0.1090 -0.1734
   32MOL   C19512037   7.729   2.615   1.297  0.0714  0.3049 -0.3568
   32MOL   C19612038   7.641   2.640   1.424 -1.0669  0.2409  0.0634
   32MOL   C19712039   7.701   2.725   1.539  0.5791 -0.1207 -0.2447
   32MOL   C19812040   7.590   2.780   1.627 -0.2451  0.2952 -0.6122
   32MOL   H19912041   0.063   2.323   1.219  0.2194  1.4660  0.4867
   32MOL   H20012042   0.011   2.433   1.085 -0.3761 -3.6748 -1.9828
   32MOL   H20112043   0.147   2.609   1.166  1.0313 -0.3778 -1.6347
   32MOL   H20212044   7.667   2.565   1.223 -0.5057  0.9269 -0.2995
   32MOL   H20312045   7.769   2.706   1.253  2.9627  0.6944  2.9007
   32MOL   H20412046   7.545   2.678   1.391 -1.7436 -0.4784  1.1782
   32MOL   H20512047   7.617   2.540   1.459  0.8697 -1.0327 -2.1250
   32MOL   H20612048   7.756   2.812   1.505  0.4588  0.6514  1.4478
   32MOL   H20712049   7.776   2.670   1.596  0.8556 -0.8002 -1.2663
   32MOL   H20812050   7.514   2.709   1.661  0.8988 -0.1152  1.1613
   32MOL   H20912051   7.632   2.817   1.721  0.2814 -2.6270  0.3333
   32MOL   H21012052   7.546   2.867   1.578 -0.9485 -0.1662 -0.8038
   32MOL   C21112053   0.281   2.502   1.299 -0.1334  0.7356 -0.2401
   32MOL   C21212054   0.335   2.612   1.388 -0.2707  0.2124  0.3946
   32MOL   O21312055   0.477   2.596   1.406  0.2566 -0.4371  0.0865
   32MOL   C21412056   0.508   2.510   1.514 -0.1302 -0.0608  0.0583
   32MOL   C21512057   0.655   2.474   1.521 -0.1872  0.1027 -0.1846
   32MOL   C21612058   0.742   2.597   1.545 -0.1947 -0.1035 -0.3264
   32MOL   C21712059   0.889   2.561   1.540  0.6873  0.2758  0.3275
   32MOL   H21812060   0.361   2.498   1.225  1.5665  0.9112  1.5483
   32MOL   H21912061   0.287   2.408   1.354 -1.3327  1.6290  1.4562
   32MOL   H22012062   0.277   2.610   1.480 -0.1889  0.2315  0.4458
   32MOL   H22112063   0.481   2.553   1.610 -0.5252 -1.1837  0.4606
   32MOL   H22212064   0.453   2.416   1.511  1.5870 -1.0605 -1.7674
   32MOL   H22312065   0.673   2.402   1.601 -1.9051  0.3610  0.4592
   32MOL   H22412066   0.692   2.431   1.429  2.1049  2.8108 -0.6069
   32MOL   H22512067   0.727   2.648   1.640 -0.8259 -0.7235 -0.0936
   32MOL   H22612068   0.720   2.670   1.467 -0.1345  0.2390 -0.0247
   32MOL   H22712069   0.915   2.521   1.441  0.8758 -0.9465  0.8630
   32MOL   H22812070   0.900   2.484   1.616  0.2376 -0.6650 -0.5426
   32MOL   H22912071   0.955   2.644   1.563  0.4986  0.0275  1.8119
   32MOL   C23012072   0.333   2.753   1.310  0.4072 -0.3826 -0.4420
   32MOL   C23112073   0.407   2.874   1.368  0.9155  0.0092  0.3849
   32MOL   O23212074   0.382   2.984   1.283  0.0224 -0.3764  0.6808
   32MOL   C23312075   0.489   3.004   1.194 -0.4212  0.1974  0.2412
   32MOL   C23412076   0.482   3.130   1.105 -0.2031 -0.2236 -0.5764
   32MOL   C23512077   0.597   3.127   1.004  0.9296  0.0118 -0.4927
   32MOL   C23612078   0.606   3.261   0.930 -0.5429 -0.0422 -0.5327
   32MOL   H23712079   0.230   2.787   1.303  0.8107  1.4833  2.0376
   32MOL   H23812080   0.361   2.729   1.208  0.0149  3.2731 -1.4638
   32MOL   H23912081   0.513   2.854   1.375  0.7701  0.3737  5.0435
   32MOL   H24012082   0.577   3.017   1.257  0.3030  0.3621 -0.7771
   32MOL   H24112083   0.492   2.913   1.134  1.1656 -0.8916  1.9264
   32MOL   H24212084   0.393   3.140   1.044 -0.2028 -1.9609 -0.8689
   32MOL   H24312085   0.482   3.225   1.159  0.3929  0.2278 -1.3646
   32MOL   H24412086   0.584   3.042   0.937 -1.3742  0.4292 -0.6306
   32MOL   H24512087   0.684   3.114   1.068 -0.3771 -2.3515  0.8558
   32MOL   H24612088   0.542   3.330   0.985  2.6148  0.2311  2.9967
   32MOL   H24712089   0.562   3.250   0.831  0.7774 -2.7844 -0.8490
   32MOL   H24812090   0.699   3.317   0.924  0.7275 -1.9385  0.9486
   32MOL   C24912091   0.345   2.913   1.503  0.2619 -0.0440 -0.4626
   32MOL   C25012092   0.435   3.014   1.575 -0.1931  0.5818 -0.1241
   32MOL   O25112093   0.415   3.009   1.714  0.1994 -0.0375  0.7891
   32MOL   C25212094   0.509   2.919   1.780  0.1870  0.2671 -0.0574
   32MOL   C25312095   0.628   2.986   1.835  0.6052 -0.1584  0.4990
   32MOL   C25412096   0.748   2.907   1.853 -0.6630  0.4809  0.2023
   32MOL   C25512097   0.867   3.002   1.902  0.1229  0.4453 -0.0115
   32MOL   H25612098   0.356   2.822   1.561 -1.3331 -1.9493 -3.0764
   32MOL   H25712099   0.240   2.941   1.511  0.9101  2.8338 -1.2146
   32MOL   H25812100   0.540   3.002   1.550  0.0257  1.8181  0.2100
   32MOL   H25912101   0.542   2.845   1.707 -0.2434  1.2709 -1.2778
   32MOL   H26012102   0.450   2.859   1.850 -1.8039  3.1352  0.8311
   32MOL   H26112103   0.648   3.061   1.758  1.1023 -1.7304 -0.9497
   32MOL   H26212104   0.600   3.038   1.926 -0.1316  0.6958 -0.2059
   32MOL   H26312105   0.725   2.836   1.932 -0.4993  0.0171 -0.1678
   32MOL   H26412106   0.787   2.851   1.768 -2.0779  1.1000 -0.8936
   32MOL   H26512107   0.952   2.934   1.910 -0.2892 -0.3071 -1.8714
   32MOL   H26612108   0.839   3.058   1.992  1.4171 -1.7986  1.8265
   32MOL   H26712109   0.900   3.073   1.826 -1.8357  0.9109 -0.4526
   32MOL   C26812110   0.400   3.159   1.546  0.0510 -0.0635 -0.8106
   32MOL   C26912111   0.494   3.272   1.599  0.2263  0.5974 -0.3265
   32MOL   O27012112   0.592   3.270   1.497  0.0362 -0.1622  0.1765
   32MOL   C27112113   0.720   3.318   1.543 -0.0761  0.3581 -0.2612
   32MOL   C27212114   0.824   3.258   1.444  0.2116  0.3221  0.3826
   32MOL   C27312115   0.844   3.102   1.482 -0.1983 -0.0484  0.0735
   32MOL   C27412116   0.928   3.017   1.395 -0.6493  0.2730  0.1454
   32MOL   H27512117   0.389   3.170   1.438 -0.5436 -0.0225 -0.7468
   32MOL   H27612118   0.299   3.183   1.579  0.5715  0.7668  0.2052
   32MOL   H27712119   0.542   3.235   1.690  1.9490 -0.1398 -1.5044
   32MOL   H27812120   0.717   3.426   1.529 -3.3135  0.3190 -0.2594
   32MOL   H27912121   0.746   3.291   1.646 -2.5552  1.2264  0.6287
   32MOL   H28012122   0.799   3.265   1.338  1.6638  0.7380  0.0544
   32MOL   H28112123   0.921   3.306   1.447  0.6320 -0.3641 -1.2679
   32MOL   H28212124   0.750   3.051   1.504  0.3971 -0.8731  0.7246
   32MOL   H28312125   0.889   3.095   1.581  3.0511 -0.7605 -1.4076
   32MOL   H28412126   1.026   3.063   1.380 -0.7449  0.3048 -0.3823
   32MOL   H28512127   0.874   3.009   1.301 -1.8858 -0.6451  0.9225
   32MOL   H28612128   0.944   2.919   1.440 -3.0775 -0.2671 -0.1131
   32MOL   C28712129   0.428   3.411   1.604  0.1239 -0.1148 -0.7219
   32MOL   C28812130   0.511   3.539   1.644  0.6812  0.5194  0.2222
   32MOL   O28912131   0.590   3.519   1.760  0.0145 -0.4634  0.7697
   32MOL   C29012132   0.524   3.485   1.880 -0.1879  0.0926  0.0214
   32MOL   C29112133   0.638   3.471   1.989  0.5912 -0.3581  0.2035
   32MOL   C29212134   0.711   3.601   2.004 -0.3648 -0.4286 -0.2044
   32MOL   C29312135   0.804   3.630   2.130  0.5873  0.7573  0.1953
   32MOL   H29412136   0.357   3.406   1.687 -0.4662 -0.4764 -1.2440
   32MOL   H29512137   0.369   3.427   1.514  1.2743  3.2381 -0.9376
   32MOL   H29612138   0.570   3.579   1.562  1.4935 -0.0697  0.5166
   32MOL   H29712139   0.461   3.561   1.925  1.1499  0.5220  1.2128
   32MOL   H29812140   0.466   3.393   1.871 -1.5519  0.4941  4.0008
   32MOL   H29912141   0.710   3.397   1.955  0.4729 -1.7742  2.8852
   32MOL   H30012142   0.588   3.441   2.081  0.2218  2.4482  0.9746
   32MOL   H30112143   0.631   3.675   2.006  0.5721  0.5776  0.9555
   32MOL   H30212144   0.773   3.615   1.915 -0.8901 -3.6269 -1.1491
   32MOL   H30312145   0.748   3.615   2.223 -0.3868 -0.4638 -0.5675
   32MOL   H30412146   0.890   3.564   2.141 -0.1123 -0.3721 -0.9533
   32MOL   H30512147   0.830   3.736   2.137  0.1559  0.8944 -0.2493
   32MOL   C30612148   0.406   3.654   1.660 -0.8826  0.3658 -0.1227
   32MOL   C30712149   0.476   3.791   1.648 -0.1415 -0.0969  0.0202
   32MOL   O30812150   0.604   3.796   1.722  0.5734  0.0001  0.0364
   32MOL   C30912151   0.705   3.877   1.668 -1.1794  0.0269  0.5369
   32MOL   C31012152   0.836   3.893   1.749  0.4831 -0.1762 -0.0659
   32MOL   C31112153   0.805   3.970   1.879 -0.4957  0.3919  0.8139
   32MOL   C31212154   0.930   3.985   1.970  0.4025  0.3914  0.3848
   32MOL   H31312155   0.326   3.650   1.586 -0.7499  1.9163 -0.3617
   32MOL   H31412156   0.353   3.655   1.755  1.2619 -1.9429  1.1782
   32MOL   H31512157   0.500   3.801   1.542 -2.7562  0.0125 -0.5902
   32MOL   H31612158   0.666   3.977   1.646 -1.3149 -0.2676 -0.5721
   32MOL   H31712159   0.733   3.824   1.577  2.9239  1.7302  0.6932
   32MOL   H31812160   0.904   3.951   1.685 -0.4921  1.3544  0.2620
   32MOL   H31912161   0.887   3.799   1.769  2.7589  0.6746 -1.5865
   32MOL   H32012162   0.781   4.068   1.840  2.5533  1.4553  1.4587
   32MOL   H32112163   0.727   3.921   1.937  0.0224  1.8959  2.8689
   32MOL   H32212164   0.899   4.040   2.059 -1.6817 -0.6866  0.3748
   32MOL   H32312165   1.010   4.038   1.919  1.3596 -1.0244  0.3680
   32MOL   H32412166   0.963   3.887   2.004  1.1869  0.5265  0.0082
   32MOL   C32512167   0.385   3.906   1.690 -0.5335 -0.2279 -0.0106
   32MOL   C32612168   0.269   3.948   1.601 -0.5845 -0.3125 -0.4699
   32MOL   O32712169   0.168   3.850   1.602 -0.4332  0.1008  0.0066
   32MOL   C32812170   0.068   3.847   1.496 -0.0446 -0.3853  0.2317
   32MOL   C32912171   0.013   3.700   1.488  0.7004 -0.1613 -0.0517
   32MOL   C33012172   7.696   3.701   1.390  0.2762  0.1728  0.2027
   32MOL   C33112173   7.613   3.571   1.398 -0.7545  0.1430  0.2008
   32MOL   H33212174   0.441   3.999   1.678 -0.3034 -0.3917 -0.1966
   32MOL   H33312175   0.365   3.890   1.796 -0.1948  0.7785  0.2158
   32MOL   H33412176   0.299   3.962   1.497  3.9181  0.1126  0.7585
   32MOL   H33512177   0.112   3.875   1.400  0.9978 -3.4202 -0.2107
   32MOL   H33612178   7.790   3.921   1.506 -2.8886 -2.9359 -2.5668
   32MOL   H33712179   0.092   3.630   1.460  0.8845  0.1198 -0.2396
   32MOL   H33812180   7.777   3.672   1.586 -2.6650 -1.6770 -1.6931
   32MOL   H33912181   7.740   3.694   1.291 -2.5930 -2.6875 -0.9527
   32MOL   H34012182   7.643   3.797   1.387  0.1875  0.1220  0.1504
   32MOL   H34112183   7.687   3.491   1.389  0.7821  1.4544  1.0038
   32MOL   H34212184   7.541   3.548   1.319 -2.9621  0.7673  1.9860
   32MOL   H34312185   7.560   3.560   1.492 -0.9347 -0.6785  0.0108
   32MOL   C34412186   0.202   4.079   1.653 -0.4687 -0.0208  0.0345
   32MOL   C34512187   0.227   4.212   1.582  0.5695  0.5339  0.2770
   32MOL   O34612188   0.353   4.259   1.622  0.4877  0.3965 -0.1617
   32MOL   C34712189   0.455   4.264   1.526 -0.6573 -0.2103 -0.4356
   32MOL   C34812190   0.578   4.334   1.590 -0.2599  0.4793  0.4259
   32MOL   C34912191   0.668   4.382   1.477 -0.2711 -0.1340  0.3727
   32MOL   C35012192   0.741   4.273   1.405  0.3778 -0.8074 -0.6875
   32MOL   H35112193   0.095   4.061   1.655 -0.4259 -0.5137 -1.6269
   32MOL   H35212194   0.228   4.093   1.759  2.4314  0.8363 -0.7306
   32MOL   H35312195   0.213   4.201   1.474 -3.3009  1.4112  0.6066
   32MOL   H35412196   0.426   4.318   1.436  1.4062 -2.6229 -2.6236
   32MOL   H35512197   0.502   4.169   1.498  0.4691  0.3185 -0.3693
   32MOL   H35612198   0.629   4.279   1.668  0.3453  1.6120  0.8467
   32MOL   H35712199   0.538   4.418   1.647 -0.3863  1.5602 -1.2128
   32MOL   H35812200   0.626   4.446   1.400  1.4515 -0.7524 -1.1264
   32MOL   H35912201   0.751   4.445   1.511  0.4612 -0.0101 -1.5639
   32MOL   H36012202   0.677   4.223   1.332 -0.1890 -0.7087 -0.2610
   32MOL   H36112203   0.766   4.191   1.472  1.7249  1.2436  1.3798
   32MOL   H36212204   0.829   4.304   1.349 -0.8958 -0.0769 -2.3108
   32MOL   C36312205   0.118   4.314   1.625 -0.5930 -0.1244 -0.3768
   32MOL   C36412206   0.143   4.454   1.576 -0.0399  0.2551 -0.0803
   32MOL   O36512207   0.149   4.451   1.434  0.0996  0.1307  0.4390
   32MOL   C36612208   0.171   4.577   1.367 -0.1274 -0.5780  0.2730
   32MOL   C36712209   0.225   4.560   1.224 -0.1534  0.9479  0.5129
   32MOL   C36812210   0.321   4.442   1.215  0.4142  0.4840 -0.5106
   32MOL   C36912211   0.386   4.406   1.076 -0.1910  0.2722  0.4370
   32MOL   H37012212   0.118   4.322   1.733 -1.8122 -0.3418 -0.3581
   32MOL   H37112213   0.027   4.270   1.585  0.1786 -1.4109 -0.7207
   32MOL   H37212214   0.242   4.481   1.611  0.8657 -2.2814 -0.6053
   32MOL   H37312215   0.247   4.635   1.421 -0.7770 -1.3217  2.0424
   32MOL   H37412216   0.078   4.633   1.364  0.8159  0.9511 -1.6862
   32MOL   H37512217   0.280   4.648   1.193  0.2036  0.2641 -0.8352
   32MOL   H37612218   0.143   4.550   1.152  0.2043 -1.7917  0.4019
   32MOL   H37712219   0.266   4.355   1.251  0.4217  1.7664  2.7678
   32MOL   H37812220   0.401   4.453   1.288 -1.0167 -0.8477  1.3188
   32MOL   H37912221   0.445   4.486   1.030  0.1854  0.3369  1.0258
   32MOL   H38012222   0.455   4.322   1.084  0.2883  0.5685 -0.4530
   32MOL   H38112223   0.311   4.393   0.998  0.2965  0.1923 -0.0268
   32MOL   H38212224   0.070   4.530   1.606 -0.8813 -0.0296 -1.3297
   33MOL     C112225   3.228   3.783   6.336 -0.4577  0.0121  0.5510
   33MOL     C212226   3.119   3.717   6.408 -0.1561  0.5383 -0.3026
   33MOL     O312227   3.138   3.576   6.417  0.4858 -0.1154 -0.0728
   33MOL     C412228   3.094   3.510   6.305  0.2468  0.2631  0.3336
   33MOL     C512229   3.165   3.378   6.280  0.5944 -0.2729 -0.3755
   33MOL     C612230   3.315   3.403   6.248 -0.2680  0.5863 -0.0958
   33MOL     C712231   3.418   3.420   6.361 -0.2913 -0.0052 -0.1085
   33MOL     H812232   3.245   3.888   6.362  0.6684 -0.0493  0.1071
   33MOL     H912233   3.323   3.736   6.362  0.6305  1.9999  0.2552
   33MOL    H1012234   3.027   3.738   6.353 -0.2759 -0.6688 -0.5707
   33MOL    H1112235   2.986   3.496   6.316  0.4921 -1.1491  1.0507
   33MOL    H1212236   3.112   3.571   6.216 -0.8250 -1.0202 -0.8078
   33MOL    H1312237   3.111   3.315   6.209 -0.6343  0.3315  0.0079
   33MOL    H1412238   3.160   3.331   6.378 -2.2750 -1.0664 -0.8600
   33MOL    H1512239   3.328   3.481   6.174  0.0901  0.0676 -0.5879
   33MOL    H1612240   3.353   3.309   6.207 -2.7739 -0.7203  0.5091
   33MOL    H1712241   3.396   3.516   6.409 -2.6089 -0.7047  0.2817
   33MOL    H1812242   3.517   3.422   6.316 -1.0916 -1.5262 -1.9993
   33MOL    H1912243   3.404   3.338   6.431  0.8791 -0.0785  0.0575
   33MOL    H2012244   3.227   3.772   6.227 -1.5894  0.7991  0.4758
   33MOL    C2112245   3.114   3.767   6.550  0.2975 -0.4445 -0.5201
   33MOL    C2212246   3.053   3.907   6.581  0.2437 -0.5975 -0.4820
   33MOL    O2312247   2.921   3.884   6.539  0.3442  0.5594  0.4320
   33MOL    C2412248   2.848   3.996   6.505  0.3884  0.4011  0.2503
   33MOL    C2512249   2.699   3.957   6.469 -0.1437  0.2629 -0.1209
   33MOL    C2612250   2.601   4.058   6.414  0.0864  0.1319 -0.0510
   33MOL    C2712251   2.466   3.993   6.400 -0.1561  0.0195  0.2173
   33MOL    H2812252   3.207   3.761   6.607 -0.2003 -0.9024  0.2634
   33MOL    H2912253   3.036   3.706   6.597 -0.8112  0.8110 -0.6688
   33MOL    H3012254   3.101   3.974   6.509  0.8769 -0.2671  0.2500
   33MOL    H3112255   2.897   4.034   6.415  0.8284  0.5161  0.5357
   33MOL    H3212256   2.861   4.076   6.578  1.6224  1.5555 -1.1876
   33MOL    H3312257   2.696   3.871   6.402 -0.4464  0.1473  0.0429
   33MOL    H3412258   2.657   3.927   6.565 -1.5296  0.7483 -0.5757
   33MOL    H3512259   2.593   4.154   6.465 -0.1351  0.6483 -1.0335
   33MOL    H3612260   2.632   4.095   6.316 -0.6881 -0.6253 -0.5946
   33MOL    H3712261   2.417   3.961   6.492  0.5869  0.2012  0.6755
   33MOL    H3812262   2.396   4.059   6.349 -1.4865 -0.0050  1.9635
   33MOL    H3912263   2.475   3.904   6.337 -0.5053  0.7513 -0.8962
   33MOL    C4012264   3.064   3.964   6.723 -0.0981  0.0865 -0.3633
   33MOL    C4112265   3.163   4.069   6.745  0.3328 -0.1964  0.5150
   33MOL    O4212266   3.299   4.025   6.710 -0.1293 -0.0400  0.1747
   33MOL    C4312267   3.381   4.117   6.635  0.0728  0.0733  0.1785
   33MOL    C4412268   3.512   4.040   6.601 -0.2877 -0.4254 -0.2593
   33MOL    C4512269   3.586   3.996   6.729 -0.4955  0.0509  0.1120
   33MOL    C4612270   3.629   4.126   6.809  0.3563  0.1658  0.1781
   33MOL    H4712271   3.108   3.891   6.790 -1.3840  0.5057  0.9747
   33MOL    H4812272   2.967   4.005   6.752  0.3922 -0.1614  1.7029
   33MOL    H4912273   3.148   4.150   6.673  1.9033  0.2183  0.6248
   33MOL    H5012274   3.408   4.204   6.695  0.2970  1.6205 -2.1028
   33MOL    H5112275   3.341   4.144   6.537 -1.8234 -0.9296  0.6611
   33MOL    H5212276   3.574   4.097   6.532  0.2473 -0.0931  0.4965
   33MOL    H5312277   3.489   3.951   6.542  0.9171 -1.0367  0.1869
   33MOL    H5412278   3.679   3.948   6.698  0.1255  0.7236  0.8689
   33MOL    H5512279   3.531   3.927   6.793 -3.0099  0.8018 -1.1742
   33MOL    H5612280   3.665   4.210   6.751 -0.7113 -0.0837 -0.8461
   33MOL    H5712281   3.539   4.156   6.862  0.4377 -0.8520  0.9174
   33MOL    H5812282   3.703   4.096   6.884  0.3487 -1.1072 -0.3101
   33MOL    C5912283   3.175   4.109   6.898 -0.5076 -0.2053 -0.4848
   33MOL    C6012284   3.063   4.194   6.964 -0.0115 -0.2549 -0.2282
   33MOL    O6112285   3.065   4.198   7.105  0.3529 -0.1523  0.6117
   33MOL    C6212286   2.975   4.118   7.177 -0.3788 -0.4680  0.6320
   33MOL    C6312287   3.024   4.103   7.321 -0.0012 -0.0154 -0.2000
   33MOL    C6412288   3.166   4.060   7.356 -0.2873 -0.7370 -0.2239
   33MOL    C6512289   3.195   4.030   7.507  0.0790 -0.2974  0.6007
   33MOL    H6612290   3.184   4.018   6.957  2.8958  0.3153 -0.1376
   33MOL    H6712291   3.271   4.156   6.920 -0.3417 -1.0185  0.5194
   33MOL    H6812292   2.962   4.163   6.936 -0.0195  1.1463 -1.8748
   33MOL    H6912293   2.979   4.019   7.132 -1.6996  1.1961 -3.3805
   33MOL    H7012294   2.877   4.166   7.180 -0.6894 -1.1786  1.7300
   33MOL    H7112295   2.996   4.198   7.366 -0.3391 -0.2126  0.0036
   33MOL    H7212296   2.953   4.030   7.359  0.5071 -1.4512 -1.8987
   33MOL    H7312297   3.199   3.978   7.293  0.6345 -0.9948  0.5770
   33MOL    H7412298   3.231   4.146   7.338  0.5461 -1.7794 -2.3461
   33MOL    H7512299   3.189   4.130   7.550  0.8633  1.3997 -3.0233
   33MOL    H7612300   3.121   3.969   7.558  1.3969 -2.0318  0.4549
   33MOL    H7712301   3.294   3.988   7.521  1.3204  1.5523 -2.0591
   33MOL    C7812302   3.063   4.341   6.924  0.2481  0.1538  0.5906
   33MOL    C7912303   2.943   4.424   6.972  0.0500 -0.2581  0.0682
   33MOL    O8012304   2.828   4.378   6.906  0.2095  0.4691 -0.6943
   33MOL    C8112305   2.697   4.427   6.953  0.6563  0.2937 -0.5291
   33MOL    C8212306   2.584   4.336   6.904  0.6004  0.2310 -0.1178
   33MOL    C8312307   2.436   4.389   6.923 -0.8684 -0.2007  0.1036
   33MOL    C8412308   2.411   4.523   6.841 -0.5006  0.4098 -0.2092
   33MOL    H8512309   3.084   4.342   6.817 -0.0087  0.2590  0.5413
   33MOL    H8612310   3.153   4.380   6.971  0.3757  0.0573  0.4273
   33MOL    H8712311   2.926   4.403   7.077 -0.9533 -1.1030 -0.2578
   33MOL    H8812312   2.689   4.523   6.902 -0.0778 -0.4606 -1.8531
   33MOL    H8912313   2.687   4.446   7.060  1.2152  2.3396 -0.8122
   33MOL    H9012314   2.583   4.335   6.795 -0.9059 -1.6848 -0.1155
   33MOL    H9112315   2.585   4.237   6.949 -1.3996 -0.9726 -2.5734
   33MOL    H9212316   2.418   4.432   7.022 -1.7141  1.2722 -0.6684
   33MOL    H9312317   2.356   4.316   6.914 -0.6570 -0.2230 -1.7153
   33MOL    H9412318   2.311   4.567   6.845  0.9158  3.6904  1.1673
   33MOL    H9512319   2.481   4.602   6.866 -1.2061  1.0516 -0.2463
   33MOL    H9612320   2.414   4.504   6.734 -2.9628 -0.0686 -0.2321
   33MOL    C9712321   2.959   4.574   6.944  0.1972  0.4662  0.0225
   33MOL    C9812322   3.048   4.645   7.047  0.4249 -0.1789  0.5346
   33MOL    O9912323   3.077   4.774   6.997 -0.0743  0.7174  0.4081
   33MOL   C10012324   3.201   4.834   7.039 -0.1299  0.2654  0.6211
   33MOL   C10112325   3.196   4.983   7.000 -0.1384  0.2433  0.0508
   33MOL   C10212326   3.344   5.037   7.023  0.0503  0.0644  0.3169
   33MOL   C10312327   3.378   5.154   6.930 -0.2135 -0.6633 -0.4979
   33MOL   H10412328   2.861   4.621   6.936 -0.6453 -1.3017 -0.3306
   33MOL   H10512329   3.007   4.584   6.846  0.9865 -0.4272  0.3081
   33MOL   H10612330   3.138   4.584   7.051  1.4970  1.3419  0.1790
   33MOL   H10712331   3.273   4.776   6.981 -0.5072 -0.7029  1.1206
   33MOL   H10812332   3.245   4.815   7.136  0.5333 -2.3112 -0.1464
   33MOL   H10912333   3.126   5.047   7.054 -0.1263 -0.4009  0.8363
   33MOL   H11012334   3.158   4.990   6.898 -1.1879 -0.8572  0.3582
   33MOL   H11112335   3.420   4.959   7.018 -0.5068 -0.4534 -0.0077
   33MOL   H11212336   3.348   5.082   7.122 -0.3153 -0.1140  0.4137
   33MOL   H11312337   3.358   5.131   6.825 -0.8520  4.4515 -1.6016
   33MOL   H11412338   3.312   5.236   6.956  1.2143  0.0740  0.8373
   33MOL   H11512339   3.482   5.184   6.941  0.3037 -2.2791 -0.7181
   33MOL   C11612340   2.990   4.663   7.184  0.3368  0.5918  0.0696
   33MOL   C11712341   2.847   4.723   7.194  0.7247 -0.1710 -0.2902
   33MOL   O11812342   2.806   4.696   7.328  0.3531 -0.0373  0.7993
   33MOL   C11912343   2.741   4.569   7.338 -0.4479 -0.1706 -0.4352
   33MOL   C12012344   2.755   4.504   7.474 -0.1365  0.2112 -1.1709
   33MOL   C12112345   2.907   4.471   7.509  0.4158 -1.4970 -0.4729
   33MOL   C12212346   2.929   4.398   7.640  0.1845  0.0141 -0.7512
   33MOL   H12312347   2.978   4.560   7.218 -0.0691  0.4428 -0.5258
   33MOL   H12412348   3.061   4.714   7.249  1.5816 -0.3594 -0.5409
   33MOL   H12512349   2.780   4.666   7.130 -1.9897  0.3665  1.9540
   33MOL   H12612350   2.783   4.490   7.276  0.5468 -0.3100  0.4082
   33MOL   H12712351   2.635   4.570   7.313 -0.3233  0.2284 -0.9726
   33MOL   H12812352   2.699   4.411   7.475 -1.3763  0.9490  1.3688
   33MOL   H12912353   2.710   4.560   7.556  0.0381 -1.6233  0.2127
   33MOL   H13012354   2.958   4.420   7.427  0.0760  0.0709 -1.7060
   33MOL   H13112355   2.956   4.568   7.522  1.2147 -1.6717 -2.0909
   33MOL   H13212356   2.850   4.326   7.663  0.3416 -0.0800 -0.4962
   33MOL   H13312357   2.915   4.471   7.720  0.1358  0.8697 -1.5343
   33MOL   H13412358   3.025   4.354   7.665 -0.3365 -0.3253  0.7218
   33MOL   C13512359   2.839   4.876   7.172  0.4050  0.2142 -0.5609
   33MOL   C13612360   2.696   4.916   7.166  0.3590 -0.3605 -0.4422
   33MOL   O13712361   2.664   4.998   7.277  0.0197 -0.4856  0.6174
   33MOL   C13812362   2.626   4.934   7.401  0.0252 -0.0153 -0.8018
   33MOL   C13912363   2.586   5.039   7.500 -0.4698 -0.0727 -0.7401
   33MOL   C14012364   2.445   5.101   7.481 -0.1775  0.0157 -0.8252
   33MOL   C14112365   2.406   5.187   7.611 -1.1367 -0.6380 -0.2200
   33MOL   H14212366   2.883   4.921   7.083  0.9320 -0.1794 -0.5057
   33MOL   H14312367   2.883   4.925   7.258 -0.7532 -1.0766  0.7927
   33MOL   H14412368   2.633   4.828   7.156  0.9562 -0.8829  0.3680
   33MOL   H14512369   2.710   4.876   7.439  1.5702  2.6727  0.0292
   33MOL   H14612370   2.537   4.874   7.384  0.3643 -0.7907  0.1499
   33MOL   H14712371   2.657   5.122   7.500 -2.4231  1.6763 -1.9668
   33MOL   H14812372   2.598   4.999   7.601 -2.7120  0.2419 -0.3182
   33MOL   H14912373   2.435   5.173   7.399 -0.9347 -1.1350 -1.7497
   33MOL   H15012374   2.385   5.014   7.455 -0.8919  0.7243 -1.5940
   33MOL   H15112375   2.464   5.277   7.632 -0.4279 -1.0936 -0.1976
   33MOL   H15212376   2.309   5.235   7.608 -0.1484  1.3117 -2.0328
   33MOL   H15312377   2.417   5.127   7.701 -0.8101 -0.3209 -0.0470
   33MOL   C15412378   2.659   5.011   7.046  0.2908 -0.7999 -0.3539
   33MOL   C15512379   2.684   4.940   6.907  0.2723  0.1277  0.0059
   33MOL   O15612380   2.765   5.024   6.825  0.2098 -0.2002  0.0513
   33MOL   C15712381   2.879   4.967   6.776 -0.5563  0.4967 -0.2859
   33MOL   C15812382   2.901   5.054   6.644 -0.0854 -0.5665  0.5064
   33MOL   C15912383   2.926   5.200   6.687 -0.5379 -0.5946  0.3379
   33MOL   C16012384   2.969   5.305   6.585 -0.0933  0.1374 -0.0945
   33MOL   H16112385   2.714   5.105   7.047  1.8793 -1.7115 -0.1654
   33MOL   H16212386   2.557   5.049   7.056  0.6129 -0.5666  2.4410
   33MOL   H16312387   2.739   4.846   6.913  2.5004  1.4477  1.4272
   33MOL   H16412388   2.967   4.978   6.839 -0.4179  1.1916 -0.5954
   33MOL   H16512389   2.874   4.861   6.748 -1.3931  0.6688 -0.8143
   33MOL   H16612390   2.801   5.039   6.602 -0.8455  1.5195  1.4871
   33MOL   H16712391   2.977   5.018   6.575  0.6096  0.9816  0.4324
   33MOL   H16812392   2.840   5.235   6.744  0.0139  0.1585  0.7255
   33MOL   H16912393   3.008   5.198   6.758  2.7533  1.4722 -3.1713
   33MOL   H17012394   3.031   5.256   6.509 -0.2199 -0.5763  0.2557
   33MOL   H17112395   2.885   5.358   6.541 -1.3801 -0.1454  1.9670
   33MOL   H17212396   3.035   5.379   6.630 -0.4574  1.3518 -1.5269
   33MOL   C17312397   2.548   4.909   6.838  1.0815 -0.1201  0.3915
   33MOL   C17412398   2.563   4.863   6.689 -0.1242 -0.0366 -0.5469
   33MOL   O17512399   2.647   4.746   6.680 -0.0691 -0.1544 -0.1310
   33MOL   C17612400   2.693   4.710   6.547  0.6103 -0.2049  0.2341
   33MOL   C17712401   2.767   4.573   6.569  0.6846 -0.1788 -0.2981
   33MOL   C17812402   2.888   4.554   6.468 -0.4597  0.3542 -0.2609
   33MOL   C17912403   2.959   4.419   6.477  0.1859  0.6728 -0.1192
   33MOL   H18012404   2.491   5.001   6.831  0.4925 -0.4353  0.9187
   33MOL   H18112405   2.516   4.831   6.908  1.6545  0.8306  1.7264
   33MOL   H18212406   2.605   4.952   6.642 -1.4406  1.0029  0.2010
   33MOL   H18312407   2.767   4.784   6.516 -0.1627 -0.2170 -1.7498
   33MOL   H18412408   2.620   4.708   6.466 -0.7752  2.8951  1.3588
   33MOL   H18512409   2.687   4.501   6.551  0.6588 -0.0496 -0.6973
   33MOL   H18612410   2.802   4.571   6.672 -0.1272 -0.6532 -0.0251
   33MOL   H18712411   2.873   4.570   6.361 -1.2470  2.5888  0.1636
   33MOL   H18812412   2.958   4.626   6.509  0.4568 -1.5036  1.5391
   33MOL   H18912413   2.899   4.342   6.428 -0.1393  1.9563 -1.7641
   33MOL   H19012414   3.057   4.432   6.433  0.0555 -4.3911 -2.2392
   33MOL   H19112415   2.961   4.387   6.582 -1.5386 -1.5636 -0.7260
   33MOL   C19212416   2.420   4.822   6.633 -0.6237  0.3997  0.1182
   33MOL   C19312417   2.341   4.944   6.587  0.6153  0.9041  0.2257
   33MOL   O19412418   2.405   4.997   6.472  0.7029  0.0449  0.1434
   33MOL   C19512419   2.418   5.142   6.472 -0.1330  0.4582 -0.0854
   33MOL   C19612420   2.515   5.187   6.366  0.0022 -0.3164 -0.9379
   33MOL   C19712421   2.669   5.189   6.406  0.3324 -0.1447 -0.1100
   33MOL   C19812422   2.772   5.248   6.311 -0.4924 -0.0632 -0.8276
   33MOL   H19912423   2.362   4.755   6.696 -1.3693  0.9337  0.0112
   33MOL   H20012424   2.435   4.765   6.541 -2.5937  1.6508 -1.0131
   33MOL   H20112425   2.333   5.017   6.668 -2.1700 -0.7305  1.5076
   33MOL   H20212426   2.448   5.172   6.573  1.3854 -0.3356 -0.2888
   33MOL   H20312427   2.324   5.196   6.459  0.7700  1.8407 -0.9951
   33MOL   H20412428   2.503   5.139   6.269 -1.9869 -0.0954 -0.8101
   33MOL   H20512429   2.491   5.292   6.349 -0.2935 -0.2862 -0.3417
   33MOL   H20612430   2.686   5.082   6.422 -3.9800 -1.2948 -2.1603
   33MOL   H20712431   2.678   5.240   6.502 -1.9057 -0.9977  0.6099
   33MOL   H20812432   2.872   5.219   6.344  0.1216  0.8295 -1.8771
   33MOL   H20912433   2.760   5.197   6.215 -1.2855  0.0031 -0.7645
   33MOL   H21012434   2.767   5.353   6.283 -0.3321  0.7492  2.0620
   33MOL   C21112435   2.203   4.910   6.540 -0.3250 -0.5782 -0.4333
   33MOL   C21212436   2.107   4.868   6.652 -0.6154  0.2277 -0.6052
   33MOL   O21312437   2.034   4.993   6.679  0.1985 -0.2949 -0.3873
   33MOL   C21412438   2.033   5.029   6.814  0.4523  0.5395  0.2880
   33MOL   C21512439   1.925   5.139   6.830 -0.5047 -0.2160 -0.5092
   33MOL   C21612440   1.778   5.097   6.804 -0.3692 -0.0354  0.0147
   33MOL   C21712441   1.689   5.216   6.821 -0.2906 -0.0639 -0.2840
   33MOL   H21812442   2.222   4.826   6.473  3.6344  0.0356 -0.2054
   33MOL   H21912443   2.166   4.997   6.486  0.6153 -0.0679 -0.2741
   33MOL   H22012444   2.169   4.844   6.737  1.6847 -1.2222 -2.6296
   33MOL   H22112445   1.992   4.959   6.887  0.6721 -0.4609 -0.5505
   33MOL   H22212446   2.132   5.054   6.852  1.0736 -0.2271 -0.8157
   33MOL   H22312447   1.927   5.161   6.937 -0.9850  0.0449 -0.5512
   33MOL   H22412448   1.952   5.226   6.769 -2.8740  1.4871  0.7787
   33MOL   H22512449   1.748   5.024   6.879 -3.1361 -1.9110 -2.7729
   33MOL   H22612450   1.754   5.043   6.712 -0.1766 -1.0540  0.5508
   33MOL   H22712451   1.585   5.186   6.832  0.2635 -2.3642 -1.1373
   33MOL   H22812452   1.690   5.283   6.735 -1.7084 -1.3681 -1.3325
   33MOL   H22912453   1.704   5.268   6.916 -1.9067  0.2714 -0.2027
   33MOL   C23012454   2.009   4.753   6.616  0.4290 -0.9714 -0.7114
   33MOL   C23112455   1.921   4.709   6.744 -0.0046 -0.7607 -0.4519
   33MOL   O23212456   1.800   4.644   6.702  0.4651 -0.1741  0.9314
   33MOL   C23312457   1.689   4.720   6.684 -0.2189 -0.0893 -0.3260
   33MOL   C23412458   1.572   4.656   6.758  0.8035  0.1452  0.3845
   33MOL   C23512459   1.560   4.507   6.744 -0.8752  0.0620 -0.1837
   33MOL   C23612460   1.448   4.432   6.809  0.3373 -0.2653 -0.2058
   33MOL   H23712461   2.051   4.658   6.583 -3.9778 -2.9087 -1.1634
   33MOL   H23812462   1.938   4.786   6.540  2.0214  1.4519 -1.1824
   33MOL   H23912463   1.883   4.794   6.800 -1.3892 -1.8732  0.3522
   33MOL   H24012464   1.698   4.825   6.710  2.8548 -0.4222  0.0430
   33MOL   H24112465   1.651   4.725   6.581 -0.8486 -3.0344 -0.2982
   33MOL   H24212466   1.577   4.677   6.865  1.0470 -0.7024  0.5390
   33MOL   H24312467   1.488   4.722   6.736  0.5565 -0.1985  0.3029
   33MOL   H24412468   1.648   4.462   6.789  0.0185  1.6276 -0.3325
   33MOL   H24512469   1.565   4.482   6.637 -0.9359 -1.8376  0.2332
   33MOL   H24612470   1.461   4.326   6.788  4.5292  0.1022  0.1148
   33MOL   H24712471   1.349   4.474   6.790  0.2028 -0.2456  0.5037
   33MOL   H24812472   1.460   4.448   6.916  2.6056  0.8447 -0.6015
   33MOL   C24912473   2.001   4.614   6.831  0.5264 -0.1258 -0.3539
   33MOL   C25012474   1.931   4.571   6.965  0.2646 -0.4205 -0.3893
   33MOL   O25112475   1.913   4.686   7.047 -0.1214  0.2896  0.2909
   33MOL   C25212476   1.790   4.704   7.112  0.1201  0.3496  0.1049
   33MOL   C25312477   1.803   4.792   7.241  0.4191 -0.1088 -0.4041
   33MOL   C25412478   1.857   4.931   7.209  0.0354  0.7722  0.3093
   33MOL   C25512479   1.856   5.024   7.325  0.1796 -0.5330  0.5077
   33MOL   H25612480   2.104   4.644   6.847  1.8620 -3.6459 -1.7656
   33MOL   H25712481   2.009   4.524   6.770  1.3698  0.8067 -1.6673
   33MOL   H25812482   1.840   4.522   6.929  0.1217 -0.3520 -0.1266
   33MOL   H25912483   1.746   4.611   7.148 -0.7777  0.9096  0.4787
   33MOL   H26012484   1.727   4.758   7.041 -2.5626 -1.5423  0.9628
   33MOL   H26112485   1.702   4.795   7.282 -0.7732 -1.1170 -3.1891
   33MOL   H26212486   1.859   4.745   7.322  0.2967  1.9255  0.9077
   33MOL   H26312487   1.953   4.916   7.161  0.5593  1.5830  1.0919
   33MOL   H26412488   1.786   4.975   7.138 -0.6107 -2.5315 -1.1655
   33MOL   H26512489   1.951   5.009   7.377 -0.4164 -0.4490  1.6310
   33MOL   H26612490   1.782   4.996   7.400 -0.3856  2.4515  1.1092
   33MOL   H26712491   1.860   5.131   7.306  2.0116 -0.8579 -1.0924
   33MOL   C26812492   2.017   4.463   7.048 -0.2601 -0.0091  0.0754
   33MOL   C26912493   1.958   4.329   7.026  1.1050  0.3408 -0.4324
   33MOL   O27012494   2.052   4.232   7.064 -0.0596 -0.3814  0.1545
   33MOL   C27112495   2.058   4.120   6.975 -0.5349  0.7314  0.7050
   33MOL   C27212496   2.127   4.002   7.042 -0.3691  0.5931  0.1121
   33MOL   C27312497   2.060   3.968   7.173  0.2274 -0.3877 -0.6083
   33MOL   C27412498   2.144   3.870   7.252 -0.2884  0.8751 -0.3663
   33MOL   H27512499   2.122   4.459   7.017 -0.3224 -0.6109 -0.0618
   33MOL   H27612500   2.004   4.486   7.154 -1.3627  0.5835 -0.1828
   33MOL   H27712501   1.941   4.313   6.919  0.6236 -1.4536 -0.0993
   33MOL   H27812502   1.958   4.079   6.961  1.0273 -2.4434 -1.7985
   33MOL   H27912503   2.100   4.151   6.879 -0.0439 -2.2537 -0.0758
   33MOL   H28012504   2.115   3.916   6.976 -2.4285  0.4000  0.6945
   33MOL   H28112505   2.232   4.032   7.041  0.4924 -2.1412  2.8392
   33MOL   H28212506   1.962   3.922   7.162  0.8662 -1.2961 -2.7771
   33MOL   H28312507   2.052   4.056   7.238  3.1898  1.0653 -2.1297
   33MOL   H28412508   2.245   3.906   7.270 -0.6824  1.5553  0.4755
   33MOL   H28512509   2.139   3.775   7.197  0.8230  0.2951  0.5264
   33MOL   H28612510   2.112   3.844   7.353 -0.4401  2.4996  0.0052
   33MOL   C28712511   1.825   4.308   7.104 -0.0725 -0.8207 -0.3558
   33MOL   C28812512   1.733   4.200   7.044 -0.2694 -0.3760  0.3032
   33MOL   O28912513   1.730   4.206   6.902 -0.3573 -0.1810  0.6791
   33MOL   C29012514   1.692   4.090   6.831  0.4158  0.4052 -0.3652
   33MOL   C29112515   1.722   4.129   6.682  0.7052 -0.0463  0.5189
   33MOL   C29212516   1.657   4.033   6.581 -0.2346  0.4377 -0.5545
   33MOL   C29312517   1.651   4.079   6.440  0.3645 -0.3100 -0.0081
   33MOL   H29412518   1.770   4.402   7.109  2.4708  0.6267  1.7189
   33MOL   H29512519   1.847   4.278   7.206 -1.8602  2.3419  1.0199
   33MOL   H29612520   1.762   4.098   7.069  0.5244 -0.1546  0.2762
   33MOL   H29712521   1.757   4.005   6.853 -0.2965 -0.2696 -0.8216
   33MOL   H29812522   1.588   4.063   6.850 -0.1809  2.2671 -0.8799
   33MOL   H29912523   1.828   4.143   6.664  0.8775 -0.5878  1.0899
   33MOL   H30012524   1.684   4.227   6.654  1.5829  0.0837 -0.2460
   33MOL   H30112525   1.562   4.007   6.627  1.9409  0.3336  4.2544
   33MOL   H30212526   1.712   3.939   6.586 -1.1404 -0.0935 -0.4049
   33MOL   H30312527   1.577   4.016   6.390  0.6365 -1.4842  1.0360
   33MOL   H30412528   1.614   4.181   6.439 -0.8823 -0.7409  0.7880
   33MOL   H30512529   1.743   4.091   6.383 -0.5718  0.2031 -1.4451
   33MOL   C30612530   1.587   4.224   7.097 -0.4308 -0.0714 -1.0400
   33MOL   C30712531   1.547   4.207   7.246 -0.3694 -0.0150  0.6268
   33MOL   O30812532   1.612   4.298   7.325 -0.1209  0.4213 -0.2514
   33MOL   C30912533   1.551   4.427   7.327 -0.7187 -0.1244  0.1353
   33MOL   C31012534   1.635   4.504   7.425 -0.6856 -0.4889  0.8325
   33MOL   C31112535   1.602   4.478   7.579 -0.1513 -0.5304  0.0735
   33MOL   C31212536   1.477   4.560   7.615 -0.4792 -0.3499  0.1770
   33MOL   H31312537   1.550   4.324   7.074  0.8522  0.5925 -0.2449
   33MOL   H31412538   1.526   4.152   7.042  0.6393 -0.3574 -1.8606
   33MOL   H31512539   1.438   4.212   7.251 -0.5287  0.0202 -1.9022
   33MOL   H31612540   1.445   4.434   7.352 -0.3391  0.9700  1.5034
   33MOL   H31712541   1.580   4.476   7.234 -1.6158  0.2723  0.0609
   33MOL   H31812542   1.626   4.610   7.404 -0.1581 -0.5300  0.3727
   33MOL   H31912543   1.743   4.494   7.410 -0.7381  0.6991 -0.4241
   33MOL   H32012544   1.595   4.375   7.612  1.2618  0.1718  2.7279
   33MOL   H32112545   1.686   4.531   7.624  1.5757 -0.8745 -2.5912
   33MOL   H32212546   1.477   4.613   7.710 -1.3542  1.7583 -0.9492
   33MOL   H32312547   1.382   4.506   7.619 -0.4900 -0.4707 -1.4934
   33MOL   H32412548   1.453   4.637   7.541  0.6840 -0.2262 -0.0783
   33MOL   C32512549   1.581   4.070   7.303 -0.3587  0.0476  0.1780
   33MOL   C32612550   1.526   4.047   7.449 -0.5942 -0.0395  0.5480
   33MOL   O32712551   1.393   4.010   7.418  0.1624 -0.2443 -0.5856
   33MOL   C32812552   1.309   4.052   7.520  0.3078  0.0768 -0.8299
   33MOL   C32912553   1.180   4.097   7.454  0.6831 -0.2469  0.3530
   33MOL   C33012554   1.060   4.032   7.518  0.5668  0.0451  0.2472
   33MOL   C33112555   0.926   4.074   7.448 -0.2623 -0.0132 -0.4356
   33MOL   H33212556   1.688   4.051   7.298 -0.4555 -0.1055 -1.9254
   33MOL   H33312557   1.543   3.990   7.239  1.5815 -0.7869  0.0163
   33MOL   H33412558   1.532   4.136   7.510 -2.1197  1.0492 -0.8379
   33MOL   H33512559   1.345   4.129   7.588 -1.3826  0.8921 -0.8391
   33MOL   H33612560   1.301   3.957   7.572  0.5123 -0.2842 -1.4475
   33MOL   H33712561   1.173   4.206   7.455  0.9627 -0.2255 -0.0765
   33MOL   H33812562   1.176   4.068   7.349  0.8670  0.2613  0.2050
   33MOL   H33912563   1.056   4.053   7.625  2.4682 -0.9132  0.5228
   33MOL   H34012564   1.075   3.924   7.513  0.5458  0.0215  0.6514
   33MOL   H34112565   0.848   4.025   7.506  2.3816 -1.0646  2.3761
   33MOL   H34212566   0.923   4.045   7.343  0.2533 -2.1331  0.1034
   33MOL   H34312567   0.914   4.182   7.453 -1.6901 -0.2076  1.0565
   33MOL   C34412568   1.600   3.927   7.512 -0.6854  0.5774 -0.1944
   33MOL   C34512569   1.670   3.940   7.645 -0.4226  0.4353  0.1557
   33MOL   O34612570   1.575   3.979   7.746 -0.4300 -0.2568  0.3502
   33MOL   C34712571   1.517   3.872   0.026  0.5524  0.1436  0.1947
   33MOL   C34812572   1.397   3.934   0.095  0.2657  0.3271  0.4764
   33MOL   C34912573   1.441   4.025   0.209 -0.0482 -0.0594 -0.2697
   33MOL   C35012574   1.331   4.070   0.304 -0.1175 -0.1387  0.2255
   33MOL   H35112575   1.522   3.851   7.521 -0.4634  0.4629  0.7602
   33MOL   H35212576   1.670   3.876   7.446  0.8294 -1.6322  2.9622
   33MOL   H35312577   1.697   3.839   7.677  0.0053  0.7857  0.9202
   33MOL   H35412578   1.596   3.847   0.098  0.7786  0.9777  0.2469
   33MOL   H35512579   1.489   3.782   7.772  0.7097  0.4135 -0.3262
   33MOL   H35612580   1.336   3.855   0.139 -1.2994  0.8879 -0.6646
   33MOL   H35712581   1.332   3.987   0.026  0.5081 -0.4415 -0.3408
   33MOL   H35812582   1.507   3.967   0.274  1.1748 -1.5999 -2.7805
   33MOL   H35912583   1.500   4.103   0.162  1.1332 -1.3654 -0.9799
   33MOL   H36012584   1.321   3.992   0.380 -0.1684  0.4260  0.8021
   33MOL   H36112585   1.237   4.074   0.249 -0.8511  1.6090  1.5814
   33MOL   H36212586   1.347   4.167   0.351 -2.6598  1.0994 -1.3848
   33MOL   C36312587   1.796   4.029   7.640 -0.4471 -0.2373 -0.1976
   33MOL   C36412588   1.905   3.995   7.544  0.7299  0.1563  0.0886
   33MOL   O36512589   2.015   4.086   7.546  0.0176  0.3222  0.0423
   33MOL   C36612590   1.987   4.211   7.485 -0.0415 -0.2985  0.5592
   33MOL   C36712591   2.117   4.298   7.480 -0.2821 -0.2391  0.3259
   33MOL   C36812592   2.204   4.274   7.360  0.5879  0.0360  0.3169
   33MOL   C36912593   2.341   4.351   7.362  0.1879 -0.4577  0.3137
   33MOL   H37012594   1.830   4.035   7.743 -2.9506  1.4849  0.5906
   33MOL   H37112595   1.765   4.130   7.611  1.5452  0.3238 -0.4579
   33MOL   H37212596   1.864   3.970   7.446 -2.1803  2.7634  0.5742
   33MOL   H37312597   1.916   4.272   7.541  0.0987  1.0521 -0.6941
   33MOL   H37412598   1.938   4.187   7.391  1.2109 -0.6347 -0.0166
   33MOL   H37512599   2.182   4.290   7.567  0.4599 -0.7388 -0.2777
   33MOL   H37612600   2.082   4.401   7.487 -0.5351 -0.3525  0.7960
   33MOL   H37712601   2.162   4.320   7.271  2.0197  2.7338  0.9886
   33MOL   H37812602   2.218   4.168   7.338  4.9690  0.1468  2.0125
   33MOL   H37912603   2.412   4.320   7.438  1.7410  2.3415  0.0769
   33MOL   H38012604   2.405   4.351   7.274 -1.8640  0.1124 -1.2187
   33MOL   H38112605   2.320   4.457   7.376 -1.4553 -0.7216 -0.0159
   33MOL   H38212606   1.949   3.899   7.573 -1.1192 -0.3521  1.2674
   34MOL     C112607   4.518   0.832   2.903 -0.4286  0.0022  0.2141
   34MOL     C212608   4.643   0.831   2.808  0.4321  0.1488  0.3539
   34MOL     O312609   4.760   0.826   2.880 -0.3199 -0.2204  0.0323
   34MOL     C412610   4.800   0.933   2.956  0.2426 -0.5009  0.4676
   34MOL     C512611   4.947   0.931   3.007 -0.1820 -0.2409 -0.2679
   34MOL     C612612   5.057   0.945   2.892 -0.2184 -0.2029  0.1291
   34MOL     C712613   5.196   0.959   2.955  0.0653 -0.2173  0.4359
   34MOL     H812614   4.514   0.915   2.972  0.1978  0.2961 -0.1062
   34MOL     H912615   4.427   0.833   2.843  0.1050 -0.0223 -0.6094
   34MOL    H1012616   4.657   0.916   2.741  2.5547 -0.8081 -0.4412
   34MOL    H1112617   4.789   1.029   2.905  1.0714 -1.2459 -1.1713
   34MOL    H1212618   4.747   0.953   3.049 -1.1470 -0.2938 -0.3591
   34MOL    H1312619   4.960   0.836   3.059  1.1777  0.4173  0.6455
   34MOL    H1412620   4.957   1.016   3.076 -2.3621 -0.6342  0.5652
   34MOL    H1512621   5.042   1.040   2.839  0.1044  1.0061  2.1474
   34MOL    H1612622   5.061   0.857   2.828  1.0480  0.0908 -0.2288
   34MOL    H1712623   5.190   1.035   3.032  1.7521  2.3263 -1.8824
   34MOL    H1812624   5.270   0.987   2.880  0.0788  3.0172  1.5753
   34MOL    H1912625   5.223   0.863   3.000  0.6859  0.4205  1.4366
   34MOL    H2012626   4.529   0.734   2.949 -0.6602  1.1133  2.6711
   34MOL    C2112627   4.641   0.700   2.723 -0.6068  1.0076  0.5772
   34MOL    C2212628   4.518   0.679   2.623  0.0978  0.3513  0.2799
   34MOL    O2312629   4.539   0.766   2.508 -0.3023 -0.5819 -1.0366
   34MOL    C2412630   4.465   0.884   2.515 -0.6124  0.2208  0.3858
   34MOL    C2512631   4.461   0.959   2.381 -0.4689  0.7699  0.1952
   34MOL    C2612632   4.446   0.868   2.255  0.2081  0.0414 -0.0304
   34MOL    C2712633   4.425   0.942   2.122 -0.8319 -0.0481 -0.6527
   34MOL    H2812634   4.649   0.613   2.788 -1.3120  0.7099  0.2782
   34MOL    H2912635   4.734   0.693   2.667 -0.4874  2.3542  0.5743
   34MOL    H3012636   4.418   0.689   2.666 -2.0091 -0.6023 -4.0239
   34MOL    H3112637   4.500   0.950   2.594 -0.6264 -1.1095  1.5315
   34MOL    H3212638   4.360   0.867   2.537 -0.5716  1.5439  1.6736
   34MOL    H3312639   4.374   1.024   2.386  0.9231  3.0111 -2.9539
   34MOL    H3412640   4.552   1.017   2.363 -0.2448 -0.2373 -2.0191
   34MOL    H3512641   4.539   0.812   2.249  0.4800  0.0706  3.1399
   34MOL    H3612642   4.371   0.790   2.268 -0.6137  0.0603 -3.8707
   34MOL    H3712643   4.424   0.870   2.041 -2.0433  0.4729 -1.0958
   34MOL    H3812644   4.322   0.976   2.127 -1.2835 -1.2628 -1.4115
   34MOL    H3912645   4.502   1.013   2.093  1.1399 -2.3360 -1.1791
   34MOL    C4012646   4.510   0.535   2.563  0.0868  0.0092 -0.1426
   34MOL    C4112647   4.407   0.445   2.637  0.4444 -0.0599 -0.5548
   34MOL    O4212648   4.451   0.437   2.770 -0.1001 -0.4099 -0.2750
   34MOL    C4312649   4.364   0.400   2.875  0.0087  0.3120 -0.2130
   34MOL    C4412650   4.406   0.454   3.011 -0.3668  0.2710 -0.0131
   34MOL    C4512651   4.540   0.388   3.046 -0.4313 -0.3045  0.0426
   34MOL    C4612652   4.529   0.242   3.078  0.3316  0.5432  0.0818
   34MOL    H4712653   4.604   0.482   2.550  1.4819  1.9623  1.6475
   34MOL    H4812654   4.461   0.539   2.466 -0.2692  0.3212  0.0486
   34MOL    H4912655   4.310   0.495   2.639  0.3160 -0.3337  0.8680
   34MOL    H5012656   4.352   0.292   2.869 -0.9292  0.5684 -4.0916
   34MOL    H5112657   4.267   0.447   2.860  0.6809  1.9046  0.3295
   34MOL    H5212658   4.335   0.425   3.088  2.0904  1.4155  2.7793
   34MOL    H5312659   4.422   0.562   3.014 -1.5709  0.4385  0.7623
   34MOL    H5412660   4.563   0.442   3.138 -1.9337 -0.4564  0.5155
   34MOL    H5512661   4.614   0.398   2.967  0.0934  0.5595  0.6309
   34MOL    H5612662   4.447   0.221   3.146 -0.4475 -1.7271 -1.4890
   34MOL    H5712663   4.510   0.179   2.991  3.0820  0.8438 -0.8122
   34MOL    H5812664   4.624   0.202   3.112  1.0318  2.8264  0.9215
   34MOL    C5912665   4.384   0.304   2.584 -0.9176  0.6789 -0.5298
   34MOL    C6012666   4.348   0.295   2.433 -0.5274 -0.6280 -0.6752
   34MOL    O6112667   4.460   0.311   2.349 -0.8318  0.9397  0.2278
   34MOL    C6212668   4.449   0.391   2.235  0.0362 -0.1169  0.0802
   34MOL    C6312669   4.548   0.354   2.130  0.4274 -0.1566  0.1920
   34MOL    C6412670   4.677   0.434   2.137  0.7020  0.8906  0.3088
   34MOL    C6512671   4.766   0.427   2.008  0.3901  0.6281  0.1367
   34MOL    H6612672   4.472   0.249   2.619 -1.4386  0.9918  1.3339
   34MOL    H6712673   4.304   0.257   2.640 -0.0390 -0.5653 -0.2907
   34MOL    H6812674   4.266   0.360   2.401 -1.4165 -1.5748 -0.3488
   34MOL    H6912675   4.454   0.498   2.252 -2.0083  0.3806 -2.1041
   34MOL    H7012676   4.347   0.376   2.198  0.4009 -0.9773 -0.5794
   34MOL    H7112677   4.576   0.248   2.129  0.0258 -0.3021  2.2928
   34MOL    H7212678   4.489   0.382   2.043  1.1460 -0.5402 -0.4276
   34MOL    H7312679   4.651   0.536   2.163 -2.2353  0.3173 -0.2594
   34MOL    H7412680   4.730   0.418   2.231 -0.3817  1.9319  1.1130
   34MOL    H7512681   4.860   0.479   2.026  1.5841 -0.4093 -2.7920
   34MOL    H7612682   4.785   0.323   1.982  1.7521  0.9512 -0.2250
   34MOL    H7712683   4.709   0.477   1.930 -1.1797  0.4362  1.1300
   34MOL    C7812684   4.279   0.156   2.387 -0.2861 -0.2926 -0.4823
   34MOL    C7912685   4.146   0.116   2.443  0.9846  0.1805 -0.5139
   34MOL    O8012686   4.126   7.782   2.382  0.2336 -0.9458 -0.2715
   34MOL    C8112687   4.122   7.681   2.484 -0.6832 -0.3035 -0.1315
   34MOL    C8212688   4.155   7.552   2.412  0.8216 -0.0273  0.4034
   34MOL    C8312689   4.102   7.422   2.478  1.2490  0.1773 -0.3073
   34MOL    C8412690   3.953   7.405   2.474  0.0960  0.1047  0.2838
   34MOL    H8512691   4.344   0.077   2.425  1.5222  1.5265  0.3341
   34MOL    H8612692   4.287   0.143   2.280  0.2390  0.8671 -0.5880
   34MOL    H8712693   4.162   0.108   2.550 -2.2627  0.5058  0.0361
   34MOL    H8812694   4.020   7.689   2.523 -1.0213 -0.6816 -0.9200
   34MOL    H8912695   4.191   7.701   2.565  0.6470 -0.4951 -1.1957
   34MOL    H9012696   4.111   7.548   2.312  0.8408 -0.2099  0.4022
   34MOL    H9112697   4.261   7.550   2.387  0.2711  2.1652 -2.3941
   34MOL    H9212698   4.135   7.406   2.580  1.1537  1.2580 -0.1000
   34MOL    H9312699   4.142   7.341   2.417  0.9626  1.1979 -1.8921
   34MOL    H9412700   3.904   7.494   2.512 -0.3626 -0.5080  1.1341
   34MOL    H9512701   3.932   7.389   2.368  1.2202  1.4538 -0.1571
   34MOL    H9612702   3.920   7.320   2.534 -0.7525  2.0568  2.6596
   34MOL    C9712703   4.033   0.207   2.401 -0.6097 -0.3821 -0.1695
   34MOL    C9812704   3.897   0.172   2.455  0.1367 -0.0879  0.3412
   34MOL    O9912705   3.894   0.208   2.587 -0.1831 -0.3234 -0.8743
   34MOL   C10012706   3.912   0.114   2.689 -0.7229  0.6278  0.5075
   34MOL   C10112707   3.874   0.191   2.815  0.2242  0.4181  1.0863
   34MOL   C10212708   3.996   0.289   2.850 -0.3827 -0.3817 -0.7672
   34MOL   C10312709   3.964   0.374   2.968  0.8395  0.3481 -0.0223
   34MOL   H10412710   4.038   0.203   2.292  0.2380 -0.4070 -0.1333
   34MOL   H10512711   4.050   0.308   2.438  1.5064 -1.0741  0.7988
   34MOL   H10612712   3.891   0.064   2.456 -0.1993 -0.0630  0.8891
   34MOL   H10712713   4.013   0.075   2.686 -1.5445 -1.5950  0.8038
   34MOL   H10812714   3.837   0.036   2.674  0.6723 -0.0957 -3.2521
   34MOL   H10912715   3.864   0.114   2.892  0.8446 -0.9508 -0.1922
   34MOL   H11012716   3.778   0.244   2.810 -0.2384 -0.5830 -0.7339
   34MOL   H11112717   4.027   0.360   2.774  1.7417 -0.5471 -0.0938
   34MOL   H11212718   4.081   0.226   2.876 -1.7421 -1.7469  0.4255
   34MOL   H11312719   3.883   0.443   2.946 -0.3798 -1.3158 -0.8366
   34MOL   H11412720   3.915   0.313   3.044  0.7003 -1.1752 -1.3013
   34MOL   H11512721   4.037   0.435   3.021  2.0976 -0.3531 -0.9115
   34MOL   C11612722   3.779   0.236   2.376 -0.2467 -0.3847 -0.2988
   34MOL   C11712723   3.636   0.204   2.437  0.1909 -0.1843  0.5074
   34MOL   O11812724   3.541   0.267   2.353  0.2205 -0.4360  0.3403
   34MOL   C11912725   3.548   0.405   2.326 -0.6150 -0.0605  0.6297
   34MOL   C12012726   3.411   0.448   2.266  0.1633  0.0698 -0.0452
   34MOL   C12112727   3.389   0.394   2.118  0.0893 -0.2635 -0.0113
   34MOL   C12212728   3.291   0.476   2.037 -0.1888 -0.1608  0.6906
   34MOL   H12312729   3.802   0.343   2.373  0.8493 -0.6160 -0.5699
   34MOL   H12412730   3.773   0.214   2.269 -1.8074  4.1897 -1.2667
   34MOL   H12512731   3.634   0.251   2.535  0.4975 -0.5586  0.6950
   34MOL   H12612732   3.627   0.420   2.253  0.5196 -1.1991  1.5992
   34MOL   H12712733   3.582   0.467   2.409  0.3243  1.8366 -1.1173
   34MOL   H12812734   3.402   0.556   2.263  1.2535  0.1752  0.5743
   34MOL   H12912735   3.329   0.417   2.331 -0.4325 -1.1034 -1.3002
   34MOL   H13012736   3.483   0.407   2.064 -0.4704 -0.1976 -0.9746
   34MOL   H13112737   3.363   0.289   2.105 -1.5496 -0.0896  1.6449
   34MOL   H13212738   3.189   0.471   2.074 -0.6214  2.9105  0.0584
   34MOL   H13312739   3.293   0.460   1.929  1.8283  0.9760  0.5423
   34MOL   H13412740   3.325   0.579   2.047  1.8731 -0.6715 -0.6568
   34MOL   C13512741   3.600   0.053   2.452  0.3822  0.0638  0.3452
   34MOL   C13612742   3.444   0.028   2.473 -0.2655  0.1183 -0.0597
   34MOL   O13712743   3.401   7.692   2.476  0.8259 -0.1990  0.2328
   34MOL   C13812744   3.406   7.636   2.348 -0.4327 -0.1462 -0.5570
   34MOL   C13912745   3.391   7.479   2.341  0.1267  0.0382 -0.1357
   34MOL   C14012746   3.518   7.413   2.380  0.3045 -0.3107 -0.2540
   34MOL   C14112747   3.627   7.414   2.271 -0.2708  0.3522  0.4069
   34MOL   H14212748   3.655   7.794   2.524 -1.4807  0.8773  2.5179
   34MOL   H14312749   3.624   0.006   2.357  1.3698  0.6748  0.2765
   34MOL   H14412750   3.390   0.076   2.391 -0.6028 -0.8303 -0.4056
   34MOL   H14512751   3.499   7.661   2.297  0.5732 -1.9750  0.3200
   34MOL   H14612752   3.323   7.672   2.287  0.3957  1.3423 -0.8293
   34MOL   H14712753   3.347   7.450   2.245 -1.0926  1.6088 -0.0618
   34MOL   H14812754   3.305   7.458   2.405 -0.7759 -1.5685 -1.7836
   34MOL   H14912755   3.556   7.462   2.469  0.9806 -0.3899 -0.4985
   34MOL   H15012756   3.502   7.308   2.406  0.2743 -0.4583 -0.8534
   34MOL   H15112757   3.627   7.507   2.214 -0.4183  0.6828  0.9414
   34MOL   H15212758   3.722   7.407   2.323 -0.2620  0.4330  0.4014
   34MOL   H15312759   3.629   7.326   2.207 -2.5720  0.0290  0.7388
   34MOL   C15412760   3.392   0.076   2.608  0.7786 -0.1306 -0.0539
   34MOL   C15512761   3.243   0.075   2.643  0.4818  0.6872 -1.0416
   34MOL   O15612762   3.176   0.179   2.576  0.4476  0.0639  0.7208
   34MOL   C15712763   3.090   0.125   2.477 -0.1334  0.2556 -0.2777
   34MOL   C15812764   2.998   0.230   2.435 -0.3462 -0.0382  0.1541
   34MOL   C15912765   2.868   0.179   2.370 -0.0422 -0.0957 -0.0561
   34MOL   C16012766   2.767   0.288   2.330 -0.0822  0.4493  0.2212
   34MOL   H16112767   3.419   0.179   2.630 -0.1053  0.4862 -1.7836
   34MOL   H16212768   3.449   0.032   2.689 -1.2708  1.1069  2.1314
   34MOL   H16312769   3.205   7.778   2.614  3.2609 -0.8500  0.3516
   34MOL   H16412770   3.148   0.076   2.399  2.1497  3.0949 -0.4673
   34MOL   H16512771   3.028   0.053   2.531 -1.3112  0.9694 -0.6553
   34MOL   H16612772   3.055   0.289   2.363  1.7540 -1.5286  0.5911
   34MOL   H16712773   2.970   0.292   2.520 -0.1327 -1.4754  1.2863
   34MOL   H16812774   2.903   0.116   2.289  0.4310 -0.3896  0.3708
   34MOL   H16912775   2.820   0.107   2.437  0.0005  0.8765  1.0337
   34MOL   H17012776   2.669   0.241   2.319 -0.5576  0.6484  3.2860
   34MOL   H17112777   2.748   0.351   2.417  2.9117 -1.0240  2.0022
   34MOL   H17212778   2.797   0.357   2.251  0.9465 -1.0249 -0.7224
   34MOL   C17312779   3.215   0.090   2.796 -0.0323  0.0656  0.2549
   34MOL   C17412780   3.255   7.770   2.880  0.0662  0.2045 -0.0009
   34MOL   O17512781   3.376   7.798   2.948  0.1454  0.4157 -0.0016
   34MOL   C17612782   3.457   7.689   3.000  0.0375 -0.6962  0.6224
   34MOL   C17712783   3.599   7.736   3.031  0.3454 -0.3979 -0.0136
   34MOL   C17812784   3.591   0.026   3.143 -0.7834  0.1211 -0.6703
   34MOL   C17912785   3.729   0.057   3.201  0.0890 -0.2766  0.3631
   34MOL   H18012786   3.106   0.089   2.795 -0.0651  1.5073  0.6888
   34MOL   H18112787   3.252   0.183   2.838  0.5972 -0.2603  0.4183
   34MOL   H18212788   3.269   7.681   2.819 -2.7155 -0.6337  0.5366
   34MOL   H18312789   3.462   7.625   2.912  0.2037  0.3038 -0.1064
   34MOL   H18412790   3.412   7.634   3.083  0.6984  1.4703  2.4593
   34MOL   H18512791   3.649   7.791   2.951  0.2553 -0.5678 -0.1865
   34MOL   H18612792   3.665   7.658   3.069 -0.0015  0.0115  1.4361
   34MOL   H18712793   3.538   0.114   3.108 -1.6045 -0.3753 -0.6768
   34MOL   H18812794   3.523   7.793   3.221 -0.3238 -0.1601 -0.3909
   34MOL   H18912795   3.725   0.137   3.275 -0.6158  0.4863 -0.4798
   34MOL   H19012796   3.771   7.767   3.242  0.7780  0.0484  0.4066
   34MOL   H19112797   3.794   0.083   3.117  1.7593 -1.2658  1.3156
   34MOL   C19212798   3.145   7.731   2.980 -0.0952 -0.1744  0.7938
   34MOL   C19312799   3.104   0.022   3.089 -0.3319  0.7886  0.1019
   34MOL   O19412800   2.980   7.777   3.144 -0.0904 -0.8012 -0.0869
   34MOL   C19512801   2.866   0.031   3.081  0.1344  0.5257 -0.1152
   34MOL   C19612802   2.740   7.763   3.109  0.5680  0.8503  0.3026
   34MOL   C19712803   2.631   0.031   3.030  0.7175  0.2906  0.0566
   34MOL   C19812804   2.505   7.750   3.024  0.4258  0.0265  0.9134
   34MOL   H19912805   3.177   7.636   3.023 -0.1118  0.0724  1.3532
   34MOL   H20012806   3.067   7.700   2.910  0.1561  0.4013  0.2498
   34MOL   H20112807   3.088   0.120   3.045  2.4693  1.1679 -0.1687
   34MOL   H20212808   2.881   0.034   2.973  0.3459  0.4304 -0.0888
   34MOL   H20312809   2.860   0.128   3.130 -0.7608  1.3307 -1.7704
   34MOL   H20412810   2.744   7.657   3.083 -1.2456  0.1385  2.7943
   34MOL   H20512811   2.729   7.767   3.217 -1.6059  1.3773  0.0749
   34MOL   H20612812   2.666   0.046   2.928  1.6270 -0.8444  0.1906
   34MOL   H20712813   2.615   0.130   3.074 -1.0938 -0.6562  1.6172
   34MOL   H20812814   2.503   7.672   2.948  0.8421  1.3337 -0.4500
   34MOL   H20912815   2.478   7.712   3.123 -1.5529 -0.7535  0.1019
   34MOL   H21012816   2.421   0.013   3.000  0.1209 -0.8436 -0.3839
   34MOL   C21112817   3.209   0.047   3.208  0.2300  0.0709 -0.0786
   34MOL   C21212818   3.143   0.123   3.331 -0.0809  0.2502 -0.3266
   34MOL   O21312819   3.228   0.113   3.443  0.2215 -0.3189  0.3379
   34MOL   C21412820   3.174   0.053   3.558  0.3368  0.3973  0.8122
   34MOL   C21512821   3.271   0.053   3.670  0.4104 -0.5783  0.8533
   34MOL   C21612822   3.225   7.780   3.798 -0.2745 -0.6238  0.3077
   34MOL   C21712823   3.305   0.035   3.917 -0.0476 -0.4980  0.8903
   34MOL   H21812824   3.298   0.101   3.175 -0.0798  1.1236  0.7705
   34MOL   H21912825   3.249   7.759   3.255  2.9277  0.1521 -2.0715
   34MOL   H22012826   3.047   0.075   3.351  0.1922 -0.6999 -1.1894
   34MOL   H22112827   3.088   0.117   3.578  0.4784  1.1981 -1.0509
   34MOL   H22212828   3.144   7.753   3.534  3.9291 -0.1950 -1.5879
   34MOL   H22312829   3.370   0.012   3.650 -0.2605 -1.8993  0.2222
   34MOL   H22412830   3.285   0.159   3.693  1.5472 -0.3517 -0.7783
   34MOL   H22512831   3.239   7.674   3.779  2.9480 -0.2089  0.0648
   34MOL   H22612832   3.119   7.790   3.823 -0.0816 -1.3584  1.4506
   34MOL   H22712833   3.392   7.774   3.903  0.1125 -0.3642  1.2986
   34MOL   H22812834   3.268   7.797   4.011  0.4620  1.2885  1.8742
   34MOL   H22912835   3.318   0.142   3.936 -2.1655  0.0405 -0.4360
   34MOL   C23012836   3.116   0.267   3.295 -0.3573 -0.0001 -0.3880
   34MOL   C23112837   3.032   0.350   3.392  0.0542 -0.6391 -0.5666
   34MOL   O23212838   3.051   0.488   3.361  0.0505 -0.0923 -0.6056
   34MOL   C23312839   3.153   0.542   3.444 -0.8374 -0.4159  0.3417
   34MOL   C23412840   3.164   0.689   3.402  0.4947 -0.0638 -0.3217
   34MOL   C23512841   3.044   0.768   3.462  0.2589 -0.1408  0.0416
   34MOL   C23612842   3.057   0.922   3.442  0.3849  0.2799  0.3960
   34MOL   H23712843   3.078   0.272   3.193  0.3606  0.1612 -0.6463
   34MOL   H23812844   3.214   0.312   3.282 -0.7590  0.5505 -1.5968
   34MOL   H23912845   3.061   0.325   3.493 -0.6371  0.6950 -0.0122
   34MOL   H24012846   3.120   0.526   3.547  2.8000  1.1585  1.8532
   34MOL   H24112847   3.250   0.491   3.444 -1.6825 -2.0946  1.8050
   34MOL   H24212848   3.253   0.741   3.436  1.4011 -0.3539 -2.1890
   34MOL   H24312849   3.171   0.694   3.294 -1.6269 -0.3562 -0.4974
   34MOL   H24412850   3.034   0.737   3.566 -2.3889  2.2232  0.5333
   34MOL   H24512851   2.957   0.725   3.412  1.4381 -1.9202 -0.5455
   34MOL   H24612852   3.036   0.963   3.343  2.3397  1.6662  0.5348
   34MOL   H24712853   3.152   0.947   3.488  0.6492 -0.4148  0.2369
   34MOL   H24812854   2.981   0.972   3.503 -1.6746 -2.2498  0.0354
   34MOL   C24912855   2.885   0.304   3.379  0.2989  0.9479 -0.1879
   34MOL   C25012856   2.788   0.367   3.475  0.1238 -0.3937 -0.3449
   34MOL   O25112857   2.825   0.322   3.600  0.2843  0.2055 -0.0838
   34MOL   C25212858   2.857   0.428   3.685 -0.1910  0.0684  0.4051
   34MOL   C25312859   2.904   0.387   3.833 -0.3306  0.1873 -0.1272
   34MOL   C25412860   3.060   0.368   3.840 -0.1787 -0.0093  0.5235
   34MOL   C25512861   3.112   0.347   3.985 -0.0162  0.6144  0.0842
   34MOL   H25612862   2.884   0.196   3.393  1.1166  1.1094  1.2828
   34MOL   H25712863   2.842   0.310   3.280  0.0989 -0.1450 -0.1724
   34MOL   H25812864   2.786   0.475   3.465  0.3039 -0.1397  2.1228
   34MOL   H25912865   2.757   0.469   3.700 -0.0339  0.1544  1.2254
   34MOL   H26012866   2.914   0.513   3.648  0.9700 -2.1813 -3.2969
   34MOL   H26112867   2.879   0.468   3.900  0.7760  0.4646 -0.0286
   34MOL   H26212868   2.845   0.303   3.869 -0.5456  1.3845  2.3805
   34MOL   H26312869   3.085   0.274   3.790 -0.8075  0.3993 -0.5755
   34MOL   H26412870   3.119   0.446   3.792 -0.8479  0.0570 -0.1969
   34MOL   H26512871   3.077   0.251   4.022  0.6854 -0.5465 -2.2495
   34MOL   H26612872   3.075   0.431   4.045 -0.1773  0.7163 -0.1578
   34MOL   H26712873   3.221   0.352   3.993 -0.2570  2.9391  2.9494
   34MOL   C26812874   2.646   0.323   3.454 -0.1424 -0.3547  0.5957
   34MOL   C26912875   2.577   0.358   3.326  0.0322  0.0763  0.7959
   34MOL   O27012876   2.442   0.308   3.340 -0.0255 -0.0347 -0.3007
   34MOL   C27112877   2.430   0.174   3.293  0.4438  0.6326  0.4471
   34MOL   C27212878   2.293   0.129   3.340 -0.0923  0.1867  1.0990
   34MOL   C27312879   2.268   7.784   3.323  0.3977  0.5473  0.1758
   34MOL   C27412880   2.131   7.735   3.382 -0.2326  0.4347 -0.0536
   34MOL   H27512881   2.643   0.217   3.481  2.7397 -0.9335 -1.2250
   34MOL   H27612882   2.587   0.348   3.542 -0.0290 -0.4236  0.6920
   34MOL   H27712883   2.628   0.323   3.236 -1.0652 -0.4150  0.3486
   34MOL   H27812884   2.441   0.152   3.187 -1.9120  0.6799  0.1747
   34MOL   H27912885   2.506   0.122   3.351 -0.2966 -0.2072  0.6699
   34MOL   H28012886   2.278   0.154   3.445 -1.5987  0.4981  0.8224
   34MOL   H28112887   2.210   0.189   3.303  0.5177  0.5472  0.3027
   34MOL   H28212888   2.353   7.730   3.363  0.6578  0.2763 -0.7365
   34MOL   H28312889   2.262   7.759   3.217 -0.2351  0.7468  0.1598
   34MOL   H28412890   2.055   7.799   3.338  0.5893 -0.1438 -2.4206
   34MOL   H28512891   2.140   7.760   3.487 -1.5251 -0.0235  0.1803
   34MOL   H28612892   2.109   7.629   3.365 -0.7183  0.6808 -1.0495
   34MOL   C28712893   2.570   0.510   3.284  0.0698 -0.2021  0.2038
   34MOL   C28812894   2.484   0.605   3.366 -0.0223  0.1276 -0.3717
   34MOL   O28912895   2.471   0.719   3.289  0.1680  0.7042 -0.0886
   34MOL   C29012896   2.345   0.739   3.231  0.3427  0.2367 -0.2342
   34MOL   C29112897   2.358   0.854   3.133 -0.2757  0.8110  0.3596
   34MOL   C29212898   2.458   0.810   3.020 -0.1923  0.2572 -0.4182
   34MOL   C29312899   2.479   0.915   2.911  0.1388  0.0894  0.6407
   34MOL   H29412900   2.530   0.510   3.182  0.0139 -0.1069  0.2264
   34MOL   H29512901   2.669   0.556   3.286 -0.5396  1.1127  0.7750
   34MOL   H29612902   2.392   0.553   3.389  0.2792 -0.2564 -0.0242
   34MOL   H29712903   2.329   0.643   3.182  1.5437  0.5058 -1.1761
   34MOL   H29812904   2.279   0.760   3.314  0.0090  1.1295 -0.7252
   34MOL   H29912905   2.411   0.934   3.186  2.7164 -0.5695 -0.4196
   34MOL   H30012906   2.261   0.891   3.101 -0.5859 -1.1325 -1.0007
   34MOL   H30112907   2.420   0.716   2.979 -1.1518  0.2707  0.4055
   34MOL   H30212908   2.551   0.785   3.070 -0.0135  2.2246  0.2682
   34MOL   H30312909   2.383   0.930   2.863  1.4412 -0.3218 -2.1594
   34MOL   H30412910   2.512   1.009   2.956 -3.7068  1.3536  1.0039
   34MOL   H30512911   2.544   0.881   2.830 -0.2526 -0.4344  0.5466
   34MOL   C30612912   2.544   0.651   3.503 -0.2828  0.3490 -0.3506
   34MOL   C30712913   2.507   0.789   3.565  0.4576 -0.0301 -0.3072
   34MOL   O30812914   2.596   0.789   3.686  0.5116 -0.0467 -0.4846
   34MOL   C30912915   2.716   0.859   3.664  0.1385  0.4112 -0.6553
   34MOL   C31012916   2.814   0.846   3.788  0.6414  0.0612 -0.9593
   34MOL   C31112917   2.759   0.862   3.928 -0.1349 -0.5991  0.1990
   34MOL   C31212918   2.873   0.873   4.028  0.1904  0.4729 -0.9280
   34MOL   H31312919   2.544   0.567   3.572  3.3585  0.0917 -0.5431
   34MOL   H31412920   2.651   0.641   3.482 -0.4929  0.3210 -1.3996
   34MOL   H31512921   2.524   0.876   3.502  1.6809  0.9377  1.3182
   34MOL   H31612922   2.699   0.963   3.635  0.4514  0.5173 -0.4605
   34MOL   H31712923   2.769   0.817   3.579  1.0301 -0.0808  0.1403
   34MOL   H31812924   2.896   0.917   3.780  0.1158  0.5296 -2.2205
   34MOL   H31912925   2.873   0.754   3.776  2.6105  1.1208  0.3243
   34MOL   H32012926   2.715   0.961   3.938  0.9602 -0.0049 -0.6524
   34MOL   H32112927   2.689   0.785   3.961  0.3363 -0.4849  1.5069
   34MOL   H32212928   2.945   0.792   4.022 -2.9106 -2.5898  1.0704
   34MOL   H32312929   2.830   0.880   4.128  1.4662  1.7279 -0.4536
   34MOL   H32412930   2.920   0.967   3.999  0.8133  0.8433  1.1892
   34MOL   C32512931   2.372   0.801   3.638 -0.4682 -0.0565 -0.2405
   34MOL   C32612932   2.315   0.942   3.666 -0.5699 -0.3311  0.8576
   34MOL   O32712933   2.303   0.998   3.535 -0.2019  0.0969 -0.6285
   34MOL   C32812934   2.384   1.112   3.504  0.5936  0.0548  0.5929
   34MOL   C32912935   2.336   1.170   3.369 -0.9894  0.0001  0.8447
   34MOL   C33012936   2.186   1.201   3.368 -0.5604  0.3570 -0.1867
   34MOL   C33112937   2.135   1.243   3.234  0.0073 -0.1460  0.1833
   34MOL   H33212938   2.374   0.737   3.726  1.5390  1.8485  1.1193
   34MOL   H33312939   2.308   0.752   3.564 -0.2921  1.2624 -1.2975
   34MOL   H33412940   2.393   0.995   3.721  0.9973 -0.4381 -1.1726
   34MOL   H33512941   2.491   1.091   3.505  0.8128  1.1598  1.1160
   34MOL   H33612942   2.361   1.190   3.577 -1.1956 -0.1519  0.2787
   34MOL   H33712943   2.403   1.252   3.344 -1.4412  0.2279  0.3513
   34MOL   H33812944   2.360   1.093   3.295 -0.3769  1.0207 -0.0322
   34MOL   H33912945   2.154   1.275   3.441 -1.2081 -0.7164  0.6493
   34MOL   H34012946   2.142   1.104   3.392  0.7579 -0.1152  0.3261
   34MOL   H34112947   2.140   1.158   3.166  1.3289 -1.2710  1.6554
   34MOL   H34212948   2.211   1.313   3.198  0.1214 -0.9615 -1.1793
   34MOL   H34312949   2.041   1.298   3.232 -0.1418 -0.4115 -0.0866
   34MOL   C34412950   2.175   0.927   3.732 -0.6143  0.6428 -0.0067
   34MOL   C34512951   2.114   1.055   3.778  0.1968  0.1355 -0.1656
   34MOL   O34612952   2.173   1.093   3.902  0.3508  0.4063  0.1369
   34MOL   C34712953   2.242   1.221   3.905  0.4480 -0.8919  0.4541
   34MOL   C34812954   2.320   1.220   4.036 -0.1047  0.4958  0.0123
   34MOL   C34912955   2.432   1.114   4.026 -0.2158  0.0345  0.6535
   34MOL   C35012956   2.485   1.061   4.167  0.6014 -0.2671 -0.1598
   34MOL   H35112957   2.118   0.883   3.651 -0.4812  2.8215 -1.3326
   34MOL   H35212958   2.165   0.864   3.821 -3.0482  0.0415 -0.6694
   34MOL   H35312959   2.128   1.133   3.703 -1.1238 -0.8645 -1.4778
   34MOL   H35412960   2.172   1.303   3.892  0.0590 -1.6868 -2.8541
   34MOL   H35512961   2.307   1.240   3.819 -1.6991  2.4767 -0.5549
   34MOL   H35612962   2.265   1.194   4.126  0.1194 -0.9259 -0.2464
   34MOL   H35712963   2.362   1.316   4.066  0.3245 -0.0040  1.0673
   34MOL   H35812964   2.387   1.026   3.980  2.6466 -0.5134 -1.2340
   34MOL   H35912965   2.513   1.152   3.964  0.4074 -0.4598  1.1422
   34MOL   H36012966   2.586   1.023   4.152  2.1046  2.6964  2.0235
   34MOL   H36112967   2.421   0.985   4.212  0.2448 -0.0276 -0.2553
   34MOL   H36212968   2.502   1.142   4.238 -1.9097  1.7107 -1.7060
   34MOL   C36312969   1.958   1.029   3.791  0.2368 -0.0558  1.3022
   34MOL   C36412970   1.880   1.150   3.818 -0.6638 -0.7385  0.3363
   34MOL   O36512971   1.746   1.115   3.810  0.2718 -0.3199  0.0891
   34MOL   C36612972   1.659   1.225   3.824 -1.0447 -0.1838 -0.2440
   34MOL   C36712973   1.517   1.178   3.781  0.1908  0.1641 -0.2297
   34MOL   C36812974   1.419   1.297   3.785  0.8972 -0.1989  0.0653
   34MOL   C36912975   1.284   1.256   3.713  0.0532 -0.0472 -0.5640
   34MOL   H37012976   1.944   0.966   3.879 -1.4575 -3.1899 -1.1090
   34MOL   H37112977   1.916   0.972   3.708  2.0793 -2.2534  1.8364
   34MOL   H37212978   1.904   1.227   3.745 -0.9583 -1.3609 -0.4243
   34MOL   H37312979   1.696   1.301   3.755  0.4962  1.2655  2.0827
   34MOL   H37412980   1.654   1.277   3.920  0.1853 -0.0755 -0.2302
   34MOL   H37512981   1.477   1.105   3.850 -2.7517  0.4511 -1.5605
   34MOL   H37612982   1.521   1.135   3.681  0.7139 -0.4306  0.0454
   34MOL   H37712983   1.461   1.388   3.742 -0.3156 -0.0455 -0.8085
   34MOL   H37812984   1.385   1.318   3.887  1.4757  0.8934  0.0388
   34MOL   H37912985   1.229   1.179   3.766 -0.4664  1.1117  0.6091
   34MOL   H38012986   1.232   1.351   3.707  0.0444 -0.0790 -1.0204
   34MOL   H38112987   1.307   1.213   3.615 -1.4456 -0.6337 -0.6689
   34MOL   H38212988   1.913   1.184   3.916  0.5625 -0.5046 -0.1495
   35MOL     C112989   4.301   1.239   6.206  0.4412  0.0833 -0.3479
   35MOL     C212990   4.437   1.226   6.134 -0.0643 -0.8823 -0.1854
   35MOL     O312991   4.530   1.282   6.222  0.1847  0.1321 -0.5349
   35MOL     C412992   4.627   1.364   6.158 -0.5561 -0.2902  0.2440
   35MOL     C512993   4.705   1.450   6.261  0.3420  0.5236  0.8374
   35MOL     C612994   4.627   1.567   6.321  0.0526  0.9761 -0.2435
   35MOL     C712995   4.503   1.527   6.397 -0.2605  0.6027  0.2895
   35MOL     H812996   4.270   1.344   6.203 -0.8649 -0.2912 -0.2938
   35MOL     H912997   4.217   1.194   6.153  0.6846  1.0171 -1.5537
   35MOL    H1012998   4.424   1.280   6.040 -2.1544  1.1571  1.2386
   35MOL    H1112999   4.680   1.287   6.101 -2.4750  1.0177 -3.4608
   35MOL    H1213000   4.589   1.435   6.085 -0.2444 -1.6141 -1.2444
   35MOL    H1313001   4.794   1.493   6.214 -0.6933  1.5471 -0.2206
   35MOL    H1413002   4.743   1.379   6.335  0.1975  0.2897  0.6854
   35MOL    H1513003   4.602   1.643   6.247 -0.9617 -0.4886 -1.4266
   35MOL    H1613004   4.690   1.622   6.392 -1.8934  4.1171 -0.8367
   35MOL    H1713005   4.468   1.619   6.445  1.8692  2.7724 -2.1536
   35MOL    H1813006   4.536   1.458   6.475  1.5974  0.1610 -0.8560
   35MOL    H1913007   4.427   1.482   6.333  0.8787 -3.0728  1.3699
   35MOL    H2013008   4.303   1.238   6.315 -0.2933 -0.5251 -0.3368
   35MOL    C2113009   4.482   1.088   6.100 -0.1993 -0.3203  0.5119
   35MOL    C2213010   4.387   1.032   5.988 -0.7935 -0.3562 -0.7284
   35MOL    O2313011   4.445   1.065   5.863 -0.0841 -0.4212 -0.1449
   35MOL    C2413012   4.344   1.072   5.761  0.4847  0.6024 -0.0749
   35MOL    C2513013   4.412   1.080   5.619  0.7419  0.5429 -0.6023
   35MOL    C2613014   4.309   1.093   5.513  0.6574  0.0253  0.4412
   35MOL    C2713015   4.369   1.127   5.380 -0.2325  0.0606  0.0409
   35MOL    H2813016   4.464   1.028   6.190  0.5787  0.2295  1.0324
   35MOL    H2913017   4.585   1.080   6.066 -0.3715  1.1042 -0.3602
   35MOL    H3013018   4.289   1.079   5.988 -1.0379 -0.8059  1.7925
   35MOL    H3113019   4.281   1.161   5.760 -0.9905 -0.4238 -2.6454
   35MOL    H3213020   4.278   0.986   5.763 -0.2964  1.1600 -1.3251
   35MOL    H3313021   4.466   1.175   5.628  0.9503  0.2884  0.9348
   35MOL    H3413022   4.471   0.991   5.600  0.0078 -0.3423  1.2050
   35MOL    H3513023   4.256   1.000   5.492  0.2093 -0.3248  2.9634
   35MOL    H3613024   4.229   1.162   5.539 -0.4586 -0.9964 -0.1784
   35MOL    H3713025   4.424   1.035   5.355 -2.7838 -1.3126 -0.7092
   35MOL    H3813026   4.300   1.141   5.297  0.0099  0.8694 -0.0208
   35MOL    H3913027   4.430   1.217   5.376 -2.3535  1.5986  1.1647
   35MOL    C4013028   4.362   0.883   6.009  0.2403  0.1900 -0.2897
   35MOL    C4113029   4.236   0.856   6.090  0.4070 -0.0395 -0.0155
   35MOL    O4213030   4.237   0.715   6.125  0.1731  0.1080  0.1424
   35MOL    C4313031   4.320   0.689   6.231 -0.1906 -0.1139 -0.0832
   35MOL    C4413032   4.350   0.546   6.231  0.9472 -0.3847  1.2975
   35MOL    C4513033   4.447   0.514   6.112  0.3748  0.4342  0.3576
   35MOL    C4613034   4.479   0.363   6.113 -0.7838 -0.5677 -0.1722
   35MOL    H4713035   4.447   0.832   6.056  0.3560 -1.0070 -1.7485
   35MOL    H4813036   4.351   0.825   5.918 -1.7015 -0.6396  0.4409
   35MOL    H4913037   4.241   0.911   6.185 -0.0488  0.5857 -0.3473
   35MOL    H5013038   4.285   0.722   6.329  1.3433 -0.9517  0.7816
   35MOL    H5113039   4.415   0.743   6.234  0.0036 -0.3327 -1.9313
   35MOL    H5213040   4.258   0.488   6.225 -0.7865  2.5948 -2.1682
   35MOL    H5313041   4.403   0.524   6.324  3.0242 -0.7670  0.0564
   35MOL    H5413042   4.546   0.556   6.129  1.0567 -0.6034 -0.8926
   35MOL    H5513043   4.417   0.554   6.015  2.6771  1.7535  0.1417
   35MOL    H5613044   4.567   0.344   6.052 -0.3454 -2.8045  1.1171
   35MOL    H5713045   4.515   0.323   6.207 -0.3548 -0.8789 -0.4714
   35MOL    H5813046   4.401   0.295   6.080 -0.5234 -0.5426 -0.8420
   35MOL    C5913047   4.109   0.882   6.009 -0.0317 -0.3383 -0.2922
   35MOL    C6013048   3.980   0.871   6.091 -0.1036 -0.4164 -0.5481
   35MOL    O6113049   3.976   0.986   6.169 -0.1941  0.1224 -0.8611
   35MOL    C6213050   3.925   0.957   6.297  0.2327 -0.5921  0.1499
   35MOL    C6313051   3.882   1.082   6.377  0.0690  0.1387 -0.3183
   35MOL    C6413052   3.830   1.047   6.522 -0.0339 -0.2104 -0.1633
   35MOL    C6513053   3.784   1.171   6.594 -0.1815  0.4499  0.2344
   35MOL    H6613054   4.113   0.978   5.956 -0.6234 -0.0670  0.1497
   35MOL    H6713055   4.121   0.808   5.929 -1.2359  0.4574 -1.2378
   35MOL    H6813056   3.984   0.775   6.143 -0.1457 -0.4503 -0.6068
   35MOL    H6913057   4.012   0.911   6.342  1.0311  1.1288  0.4207
   35MOL    H7013058   3.845   0.885   6.285 -1.6313  1.4487 -0.0681
   35MOL    H7113059   3.958   1.159   6.375 -0.0217  0.2234 -2.5783
   35MOL    H7213060   3.800   1.121   6.316 -0.8282 -0.1876  0.6562
   35MOL    H7313061   3.748   0.976   6.522  0.7772 -1.1673 -1.1514
   35MOL    H7413062   3.912   1.008   6.582 -0.0724 -0.1737 -0.0873
   35MOL    H7513063   3.871   1.236   6.585 -0.0676  0.3087  0.3221
   35MOL    H7613064   3.708   1.229   6.542 -0.7015  0.4419  0.9757
   35MOL    H7713065   3.749   1.144   6.694  0.1465 -2.2590 -0.3352
   35MOL    C7813066   3.859   0.875   6.001 -0.6343  1.5043 -0.2870
   35MOL    C7913067   3.807   0.741   5.945  0.3298 -0.3207 -0.4675
   35MOL    O8013068   3.902   0.693   5.847 -0.5404 -0.4999 -0.0283
   35MOL    C8113069   3.968   0.572   5.883  0.1930  0.0657 -0.4770
   35MOL    C8213070   4.048   0.528   5.758  0.3488  0.1372 -0.2551
   35MOL    C8313071   4.102   0.378   5.761  0.4434 -0.0659 -0.3263
   35MOL    C8413072   4.207   0.344   5.873  1.0961  0.1039 -0.0074
   35MOL    H8513073   3.878   0.932   5.910  0.4202 -0.0871 -1.0869
   35MOL    H8613074   3.779   0.934   6.047 -1.3683  0.6145 -0.4083
   35MOL    H8713075   3.798   0.660   6.018 -1.1362 -1.1541 -1.5418
   35MOL    H8813076   3.887   0.504   5.908 -1.9580  2.5380 -0.4919
   35MOL    H8913077   4.034   0.592   5.967 -0.3448  2.6444 -0.6359
   35MOL    H9013078   3.992   0.533   5.665 -0.7410  2.2550  0.4484
   35MOL    H9113079   4.136   0.592   5.747 -2.5855  4.4917  0.0687
   35MOL    H9213080   4.147   0.372   5.662 -0.2682  0.5129 -0.6948
   35MOL    H9313081   4.018   0.308   5.754 -0.0609  0.4873  0.1850
   35MOL    H9413082   4.183   0.281   5.959  0.2034 -0.7633 -0.8767
   35MOL    H9513083   4.297   0.299   5.832  2.9399  3.1575  0.5488
   35MOL    H9613084   4.245   0.436   5.918  2.3519  0.1218 -1.0684
   35MOL    C9713085   3.673   0.751   5.865  0.0562 -0.4095  0.3892
   35MOL    C9813086   3.575   0.633   5.877 -0.0248  0.3944  0.2115
   35MOL    O9913087   3.536   0.632   6.012  0.1103  0.5635 -0.8174
   35MOL   C10013088   3.480   0.505   6.056  0.1028  0.8696 -0.0262
   35MOL   C10113089   3.572   0.384   6.056 -0.6285 -0.9816  0.3032
   35MOL   C10213090   3.698   0.398   6.137  0.2941  0.3256  0.1396
   35MOL   C10313091   3.780   0.273   6.147 -0.0927  0.1255  0.5097
   35MOL   H10413092   3.687   0.768   5.758 -0.6192 -0.7853  0.2398
   35MOL   H10513093   3.608   0.830   5.902  1.2123  0.3572  0.8219
   35MOL   H10613094   3.624   0.540   5.846 -3.9116 -1.6923  0.0720
   35MOL   H10713095   3.390   0.478   6.001  0.6777 -1.0948 -0.0705
   35MOL   H10813096   3.452   0.515   6.161 -1.6303 -3.6221  0.0870
   35MOL   H10913097   3.592   0.352   5.954  1.2191 -1.4316  0.7799
   35MOL   H11013098   3.513   0.304   6.102 -2.9782  0.1959 -0.6005
   35MOL   H11113099   3.681   0.439   6.236  1.0400 -0.0830  0.4430
   35MOL   H11213100   3.762   0.474   6.091 -1.0456 -0.2485 -2.7589
   35MOL   H11313101   3.868   0.297   6.207 -1.4233  0.6126  2.3056
   35MOL   H11413102   3.722   0.212   6.216 -0.9008 -0.9718 -1.0959
   35MOL   H11513103   3.805   0.228   6.051 -0.0332  0.2786  0.4531
   35MOL   C11613104   3.452   0.659   5.776 -0.1782  0.3690  0.7549
   35MOL   C11713105   3.477   0.609   5.633 -0.5471  0.5495  0.1340
   35MOL   O11813106   3.531   0.477   5.628 -0.2085  0.3843  0.4064
   35MOL   C11913107   3.644   0.456   5.545 -0.0910 -0.0537 -0.6747
   35MOL   C12013108   3.697   0.310   5.543 -0.3980  0.3093 -0.0847
   35MOL   C12113109   3.804   0.287   5.445 -0.8183  0.0483  0.7649
   35MOL   C12213110   3.836   0.132   5.453 -0.2931 -0.3233 -0.5482
   35MOL   H12313111   3.365   0.607   5.818 -0.1288  0.2737  0.7379
   35MOL   H12413112   3.424   0.764   5.786 -1.4430 -0.0593  1.9280
   35MOL   H12513113   3.545   0.683   5.591  0.5013  0.3784  1.4830
   35MOL   H12613114   3.719   0.535   5.561 -0.5922  0.5015 -1.0375
   35MOL   H12713115   3.603   0.478   5.446 -1.9460  1.7941  0.4490
   35MOL   H12813116   3.614   0.240   5.541 -0.3971  0.2942  0.4245
   35MOL   H12913117   3.747   0.299   5.639  0.6793  1.4171 -0.5019
   35MOL   H13013118   3.777   0.314   5.343 -0.5574 -0.3025  0.5999
   35MOL   H13113119   3.888   0.355   5.459 -0.5816  0.1536 -1.0169
   35MOL   H13213120   3.758   0.064   5.421 -0.4276 -0.4574  0.0688
   35MOL   H13313121   3.869   0.104   5.553  2.2608  0.0332 -1.2454
   35MOL   H13413122   3.918   0.103   5.387 -0.0194 -1.6125  0.3428
   35MOL   C13513123   3.343   0.608   5.548  0.5530 -0.2956  0.0551
   35MOL   C13613124   3.278   0.745   5.531  0.1379  0.5202  0.0791
   35MOL   O13713125   3.381   0.822   5.476  0.1152  0.2226  0.0730
   35MOL   C13813126   3.361   0.965   5.481  0.6215 -0.8277  0.4995
   35MOL   C13913127   3.493   1.041   5.511  0.7343 -0.0720  0.2064
   35MOL   C14013128   3.516   1.032   5.663 -0.4366  0.2425  0.4377
   35MOL   C14113129   3.622   1.129   5.702  0.3824 -0.2096 -0.4104
   35MOL   H14213130   3.275   0.551   5.611 -0.3471  0.5141 -0.1754
   35MOL   H14313131   3.365   0.551   5.458 -2.6463 -0.5531 -0.6126
   35MOL   H14413132   3.235   0.770   5.628  0.8122 -0.8668  0.7488
   35MOL   H14513133   3.288   0.991   5.558  1.6023  0.0027  1.1651
   35MOL   H14613134   3.319   1.004   5.388 -0.4526 -2.4575  0.2933
   35MOL   H14713135   3.482   1.145   5.480 -2.9957 -0.8941 -1.4749
   35MOL   H14813136   3.578   0.991   5.464 -0.3046 -0.1979 -1.5762
   35MOL   H14913137   3.424   1.078   5.701  0.7506  0.7068  2.8532
   35MOL   H15013138   3.526   0.931   5.702  0.2061  0.8462  1.8848
   35MOL   H15113139   3.722   1.089   5.681  0.2842 -1.0288  0.6295
   35MOL   H15213140   3.609   1.232   5.669  1.1665 -0.4584 -1.5194
   35MOL   H15313141   3.616   1.150   5.809  2.4454  1.1277 -0.5109
   35MOL   C15413142   3.163   0.744   5.419  0.7574  0.7469  0.5388
   35MOL   C15513143   3.027   0.682   5.475  0.3828  0.1880  0.4316
   35MOL   O15613144   2.935   0.662   5.364  0.4478  0.3555  0.2815
   35MOL   C15713145   2.973   0.555   5.275 -0.0536 -0.6983 -0.6244
   35MOL   C15813146   2.850   0.526   5.193 -0.8902  0.3063  0.2042
   35MOL   C15913147   2.807   0.638   5.101 -0.0070  0.3828 -0.0511
   35MOL   C16013148   2.693   0.594   5.004  0.3000  0.0233  0.6753
   35MOL   H16113149   3.212   0.688   5.339  0.9603  0.8733  0.5735
   35MOL   H16213150   3.137   0.845   5.387  0.5283  0.5103 -0.0268
   35MOL   H16313151   3.054   0.587   5.520 -0.7645  0.4135  1.6061
   35MOL   H16413152   3.052   0.587   5.208 -0.2392 -1.4811 -1.2167
   35MOL   H16513153   3.021   0.475   5.331  0.4145  0.3080  0.4462
   35MOL   H16613154   2.774   0.485   5.259  0.6179 -0.6605  1.3657
   35MOL   H16713155   2.873   0.445   5.123  2.0889  1.0452  0.2303
   35MOL   H16813156   2.782   0.728   5.157 -1.2145  1.5665 -2.4030
   35MOL   H16913157   2.895   0.662   5.042 -1.5836 -0.3583 -2.7905
   35MOL   H17013158   2.655   0.687   4.964  1.0912  0.9628  2.0607
   35MOL   H17113159   2.730   0.524   4.929  0.0909 -0.1621  0.7435
   35MOL   H17213160   2.610   0.548   5.057 -0.4955  0.9611  0.2505
   35MOL   C17313161   2.951   0.787   5.563  0.3103  0.1506  0.3608
   35MOL   C17413162   2.853   0.715   5.659  0.5062 -0.2880  0.3074
   35MOL   O17513163   2.935   0.632   5.740 -0.4985  0.0660 -0.5895
   35MOL   C17613164   2.884   0.503   5.770  0.1578  0.3817  0.8985
   35MOL   C17713165   2.978   0.428   5.873  0.2340  0.5696  0.2297
   35MOL   C17813166   3.116   0.385   5.813 -0.0180  0.1543  0.2055
   35MOL   C17913167   3.181   0.279   5.907  0.4974 -0.0554 -0.1506
   35MOL   H18013168   2.892   0.859   5.507 -1.6149 -0.3268  1.7449
   35MOL   H18113169   3.011   0.851   5.628  0.0939 -0.2274  0.9370
   35MOL   H18213170   2.790   0.652   5.597  1.1829  0.0704 -0.7539
   35MOL   H18313171   2.872   0.435   5.686  0.0121 -1.0058  2.0209
   35MOL   H18413172   2.781   0.511   5.804 -0.5592 -0.2189 -1.0393
   35MOL   H18513173   2.931   0.337   5.910 -0.8694  0.4737 -1.3773
   35MOL   H18613174   2.986   0.487   5.965  0.2396  0.7385  0.1225
   35MOL   H18713175   3.090   0.345   5.715 -1.6213  1.2552  0.1575
   35MOL   H18813176   3.170   0.480   5.807 -0.9162  0.6152 -0.7612
   35MOL   H18913177   3.114   0.211   5.959  0.1439  1.0718  0.8846
   35MOL   H19013178   3.249   0.224   5.842 -1.5402 -0.7942 -1.7168
   35MOL   H19113179   3.234   0.332   5.986 -0.0911  3.5194 -2.0426
   35MOL   C19213180   2.759   0.796   5.741  0.5967 -0.2916 -0.0735
   35MOL   C19313181   2.641   0.860   5.671  0.2461 -0.9960 -0.2771
   35MOL   O19413182   2.571   0.772   5.584  0.5359 -0.2800 -0.4218
   35MOL   C19513183   2.495   0.668   5.642  0.4541 -0.1311 -0.2929
   35MOL   C19613184   2.445   0.596   5.525 -0.6852  0.4903  1.5668
   35MOL   C19713185   2.548   0.511   5.451 -0.7134  0.1251  0.5214
   35MOL   C19813186   2.479   0.444   5.327 -0.3172 -0.4749  0.4733
   35MOL   H19913187   2.815   0.880   5.783 -0.8564  1.0582 -0.7585
   35MOL   H20013188   2.719   0.734   5.821 -3.5721 -0.2632 -1.9949
   35MOL   H20113189   2.690   0.943   5.620  1.2796 -1.4275  0.0093
   35MOL   H20213190   2.410   0.704   5.699  0.1117 -1.0787 -0.1869
   35MOL   H20313191   2.554   0.605   5.709  0.0061 -0.2411 -0.0023
   35MOL   H20413192   2.373   0.532   5.576  0.6327 -1.3441  1.1354
   35MOL   H20513193   2.396   0.648   5.442  2.3098 -0.2874 -0.7798
   35MOL   H20613194   2.597   0.447   5.523  0.8145  0.9282  0.2178
   35MOL   H20713195   2.632   0.572   5.417 -0.3892 -1.4390 -1.6671
   35MOL   H20813196   2.410   0.366   5.358 -2.1056  0.2772 -1.5488
   35MOL   H20913197   2.435   0.523   5.266  0.9556 -0.5597 -0.5754
   35MOL   H21013198   2.567   0.399   5.281  1.5836  1.6705  1.8662
   35MOL   C21113199   2.536   0.924   5.776 -0.6225 -0.4380  0.1176
   35MOL   C21213200   2.432   1.025   5.727  0.9302  0.4093 -0.3964
   35MOL   O21313201   2.330   0.942   5.670 -0.9264  0.1757 -0.2179
   35MOL   C21413202   2.289   0.972   5.536 -0.2522 -0.1906 -0.1408
   35MOL   C21513203   2.141   0.945   5.516 -0.0601  0.3919 -0.4928
   35MOL   C21613204   2.108   0.797   5.521  0.9983  0.3024 -0.9278
   35MOL   C21713205   1.966   0.760   5.466  0.2181 -0.2562 -0.0694
   35MOL   H21813206   2.604   0.983   5.838  0.5131 -2.4995  0.8992
   35MOL   H21913207   2.500   0.855   5.853 -0.6353  0.9379  1.3746
   35MOL   H22013208   2.478   1.079   5.644 -2.7096  2.0581 -1.4559
   35MOL   H22113209   2.313   1.078   5.524  2.6902 -0.7040  0.8175
   35MOL   H22213210   2.350   0.917   5.465  0.3931 -1.5965  1.4733
   35MOL   H22313211   2.093   0.992   5.601  0.4778 -0.1266  0.1035
   35MOL   H22413212   2.115   0.997   5.424 -0.0816 -1.1071 -1.3490
   35MOL   H22513213   2.117   0.751   5.619  1.7042  2.3622 -0.0114
   35MOL   H22613214   2.178   0.741   5.459 -1.5537 -0.6544 -3.0594
   35MOL   H22713215   1.953   0.806   5.368 -3.1120 -1.0547 -0.0758
   35MOL   H22813216   1.888   0.817   5.517 -1.3733 -2.5234  0.1150
   35MOL   H22913217   1.939   0.655   5.478 -0.9612 -0.1094 -1.3423
   35MOL   C23013218   2.373   1.114   5.834 -0.2829 -0.0346  0.3796
   35MOL   C23113219   2.248   1.197   5.788  0.0552 -0.2112  0.1698
   35MOL   O23213220   2.164   1.235   5.899  0.0977 -0.0658 -0.2049
   35MOL   C23313221   2.067   1.141   5.928  0.4704  0.2245  0.1945
   35MOL   C23413222   1.957   1.213   6.004 -0.0597  0.2147  0.0928
   35MOL   C23513223   1.880   1.311   5.926  0.7589 -0.0150  1.1866
   35MOL   C23613224   1.770   1.237   5.849 -0.4090  0.8198  0.3949
   35MOL   H23713225   2.456   1.178   5.862 -1.1147  0.1523  2.4895
   35MOL   H23813226   2.343   1.062   5.925  0.8693 -0.5151  0.4969
   35MOL   H23913227   2.184   1.148   5.715  0.1873  0.8213 -0.6290
   35MOL   H24013228   2.030   1.086   5.842  1.9787 -0.6389  0.0784
   35MOL   H24113229   2.111   1.066   5.994  0.2892  0.4161  0.5327
   35MOL   H24213230   1.894   1.142   6.057  1.2620  0.2417  1.7116
   35MOL   H24313231   2.005   1.271   6.083  1.2484  1.1352 -1.3354
   35MOL   H24413232   1.945   1.360   5.853 -0.5315  0.9331  0.6509
   35MOL   H24513233   1.835   1.381   5.996  2.7280  1.6444  0.8589
   35MOL   H24613234   1.810   1.157   5.787 -2.9503  0.6139 -1.0420
   35MOL   H24713235   1.726   1.309   5.780  0.8484  1.2418  0.0123
   35MOL   H24813236   1.687   1.205   5.912 -0.9560 -0.1458 -0.8054
   35MOL   C24913237   2.296   1.331   5.721  0.4098 -0.1499 -0.7433
   35MOL   C25013238   2.191   1.423   5.662 -0.1656 -0.3407 -0.4456
   35MOL   O25113239   2.141   1.350   5.553 -0.4829  0.6022 -0.6674
   35MOL   C25213240   1.999   1.311   5.571 -0.3605 -0.3218  0.5219
   35MOL   C25313241   1.947   1.294   5.429 -0.6855  0.0642 -0.6490
   35MOL   C25413242   1.806   1.232   5.422  0.5531  0.4241  0.0204
   35MOL   C25513243   1.790   1.084   5.466  0.1470  0.2858 -0.1063
   35MOL   H25613244   2.355   1.294   5.637 -0.4783  0.1742 -1.5161
   35MOL   H25713245   2.366   1.381   5.787 -0.0599 -1.8478  1.0871
   35MOL   H25813246   2.112   1.432   5.736 -1.4258 -1.0223 -1.6671
   35MOL   H25913247   1.935   1.379   5.627  2.0991 -0.8716  4.1114
   35MOL   H26013248   1.991   1.217   5.625  0.4819 -1.0296 -0.5744
   35MOL   H26113249   1.952   1.395   5.387  0.4308  1.4722  2.6941
   35MOL   H26213250   2.020   1.230   5.379  0.1789 -0.3405  1.1097
   35MOL   H26313251   1.730   1.290   5.474  1.1685  0.7345  0.5716
   35MOL   H26413252   1.775   1.239   5.318  1.6716 -1.0052 -0.4266
   35MOL   H26513253   1.835   1.060   5.562 -0.4375 -3.0224 -0.5972
   35MOL   H26613254   1.844   1.017   5.399 -2.0926 -0.9816 -0.7167
   35MOL   H26713255   1.684   1.059   5.462 -0.1159  1.2253  0.6726
   35MOL   C26813256   2.241   1.557   5.612 -0.1065  0.5969  0.4101
   35MOL   C26913257   2.141   1.670   5.585 -0.1142  0.0761 -0.0504
   35MOL   O27013258   2.060   1.675   5.702 -0.1784 -0.2935 -0.5961
   35MOL   C27113259   1.940   1.748   5.695  0.6199 -0.1330  0.4952
   35MOL   C27213260   1.842   1.699   5.808  0.1387 -0.6093  0.5004
   35MOL   C27313261   1.709   1.769   5.789 -0.3641  0.3521  0.4552
   35MOL   C27413262   1.605   1.741   5.898  0.0158  0.0968 -0.2140
   35MOL   H27513263   2.322   1.594   5.675 -0.6521  0.1067  1.4061
   35MOL   H27613264   2.284   1.535   5.514 -2.3360 -1.5130 -0.1559
   35MOL   H27713265   2.083   1.631   5.502 -0.8977  0.7523  0.1700
   35MOL   H27813266   1.956   1.855   5.710 -3.5552  0.5862  0.4585
   35MOL   H27913267   1.885   1.733   5.602  0.4058  2.2804  0.1837
   35MOL   H28013268   1.828   1.594   5.784  0.0224 -0.3376 -0.6362
   35MOL   H28113269   1.877   1.694   5.911  2.1807 -1.6315 -0.1999
   35MOL   H28213270   1.670   1.735   5.694 -0.1261  0.6477  0.2502
   35MOL   H28313271   1.714   1.876   5.769 -1.9518  0.6117  1.3659
   35MOL   H28413272   1.644   1.770   5.995 -0.7100  0.3588 -0.0008
   35MOL   H28513273   1.583   1.635   5.914  1.2964 -0.0803  0.4760
   35MOL   H28613274   1.515   1.799   5.879  0.6449  1.6907  1.5651
   35MOL   C28713275   2.215   1.809   5.563  0.0041 -0.1054  0.4342
   35MOL   C28813276   2.321   1.809   5.449 -0.1425 -0.2592 -0.3131
   35MOL   O28913277   2.381   1.941   5.459  0.2173 -0.6015 -0.3840
   35MOL   C29013278   2.519   1.961   5.452 -0.8565 -0.8026 -0.0376
   35MOL   C29113279   2.563   1.928   5.307 -0.0321 -0.2153  0.1369
   35MOL   C29213280   2.707   1.981   5.282 -0.0971  0.6138 -0.3339
   35MOL   C29313281   2.746   1.941   5.144  0.3561  0.2097  0.0493
   35MOL   H29413282   2.265   1.829   5.658 -0.5283 -0.2663  0.7511
   35MOL   H29513283   2.140   1.888   5.555  0.2713  0.6859  4.3913
   35MOL   H29613284   2.402   1.741   5.473  1.6338  2.4335  1.5982
   35MOL   H29713285   2.539   2.067   5.464  0.3470 -0.8990 -1.1065
   35MOL   H29813286   2.588   1.901   5.512  1.8913  0.8742 -1.4141
   35MOL   H29913287   2.497   1.966   5.229 -0.6617 -1.9556 -0.1861
   35MOL   H30013288   2.560   1.820   5.292 -0.3961 -0.2631  0.5446
   35MOL   H30113289   2.775   1.938   5.356 -1.0024  1.2145  0.8521
   35MOL   H30213290   2.703   2.090   5.291 -2.0855  0.4594  0.7210
   35MOL   H30313291   2.775   1.836   5.142  1.6259  0.5386  0.2712
   35MOL   H30413292   2.667   1.970   5.074 -0.0149 -1.0188 -0.0537
   35MOL   H30513293   2.830   2.004   5.114  0.0701 -0.3611 -2.0619
   35MOL   C30613294   2.263   1.771   5.309  0.4381 -0.1816 -0.3851
   35MOL   C30713295   2.151   1.849   5.243 -0.5450  0.4003  0.1898
   35MOL   O30813296   2.124   1.763   5.132  0.1996  0.0891  0.4806
   35MOL   C30913297   1.984   1.743   5.110  0.5910  0.6058 -0.3526
   35MOL   C31013298   1.909   1.640   5.196 -0.4303  0.1669  0.2159
   35MOL   C31113299   1.757   1.648   5.167  0.5238  0.1272  0.1331
   35MOL   C31213300   1.672   1.534   5.232  0.2544 -0.3776 -0.5178
   35MOL   H31313301   2.349   1.764   5.242  1.0055 -0.2709  0.3497
   35MOL   H31413302   2.224   1.669   5.314 -1.2597  0.5158  0.6752
   35MOL   H31513303   2.062   1.860   5.307 -1.2770  0.9147 -0.9015
   35MOL   H31613304   1.964   1.699   5.013 -2.5742  1.0529  0.0368
   35MOL   H31713305   1.937   1.842   5.104 -1.2597 -0.2806 -0.6932
   35MOL   H31813306   1.925   1.658   5.302 -1.8997 -1.0014  0.6440
   35MOL   H31913307   1.951   1.543   5.167  1.3946  1.2369 -0.8680
   35MOL   H32013308   1.723   1.743   5.208  3.9690  0.3405  2.7446
   35MOL   H32113309   1.748   1.651   5.059  1.8418 -1.9565 -0.0730
   35MOL   H32213310   1.679   1.438   5.179 -1.8158 -0.4034 -0.7598
   35MOL   H32313311   1.567   1.563   5.229  0.2159 -0.4628 -0.0223
   35MOL   H32413312   1.691   1.513   5.337 -1.0697 -0.3853 -0.2795
   35MOL   C32513313   2.194   1.981   5.190 -0.0203 -0.5255 -0.0121
   35MOL   C32613314   2.087   2.074   5.139 -0.0309 -0.0943 -0.0448
   35MOL   O32713315   2.005   2.122   5.245 -0.2660 -0.0178  1.0100
   35MOL   C32813316   1.872   2.129   5.202  0.6998  0.2195  0.4934
   35MOL   C32913317   1.788   2.172   5.319  0.4309 -0.4699 -0.3869
   35MOL   C33013318   1.736   2.056   5.405  0.1345  0.4464 -0.0365
   35MOL   C33113319   1.663   2.093   5.535 -0.1619 -0.5809 -0.7145
   35MOL   H33213320   2.278   1.982   5.121 -0.3798  1.4763 -0.4620
   35MOL   H33313321   2.217   2.030   5.284 -2.3200 -0.2952  0.4535
   35MOL   H33413322   2.042   2.025   5.053  1.0172  1.5733 -1.6021
   35MOL   H33513323   1.835   2.032   5.169 -0.1866 -0.9123  4.4998
   35MOL   H33613324   1.852   2.197   5.119  0.3494  1.0675  1.2581
   35MOL   H33713325   1.826   2.254   5.381 -2.0457  0.2766  0.1968
   35MOL   H33813326   1.696   2.215   5.278  1.1003  1.3843  0.0044
   35MOL   H33913327   1.813   1.984   5.431 -0.9952 -0.3209  1.2223
   35MOL   H34013328   1.669   1.993   5.347  1.1382  0.0718 -0.8105
   35MOL   H34113329   1.625   2.009   5.592  0.8982  0.0914  1.0270
   35MOL   H34213330   1.585   2.166   5.514 -1.6066 -1.6629  0.8148
   35MOL   H34313331   1.732   2.139   5.606 -2.6439  1.9649  0.1551
   35MOL   C34413332   2.163   2.202   5.090  0.1048  0.2290 -0.8575
   35MOL   C34513333   2.205   2.203   4.938  0.0517  0.5602  0.4466
   35MOL   O34613334   2.327   2.276   4.911  0.1302  0.3725 -0.8442
   35MOL   C34713335   2.453   2.210   4.942  0.7557 -0.1360  0.0154
   35MOL   C34813336   2.560   2.310   4.904  0.0933 -0.3420 -0.4174
   35MOL   C34913337   2.583   2.316   4.756  0.5672  0.6140  0.0454
   35MOL   C35013338   2.659   2.449   4.709  0.1974 -0.9802  0.1337
   35MOL   H35113339   2.104   2.292   5.102  1.6847  1.1724  0.0455
   35MOL   H35213340   2.245   2.220   5.160 -0.6581 -0.2546  0.1823
   35MOL   H35313341   2.229   2.100   4.912  0.8405  0.9422 -0.3877
   35MOL   H35413342   2.470   2.116   4.889  0.7952 -1.1262  1.7400
   35MOL   H35513343   2.458   2.190   5.049  2.8182 -1.6301 -0.3085
   35MOL   H35613344   2.646   2.290   4.968 -0.0510 -0.2888 -0.2079
   35MOL   H35713345   2.528   2.409   4.937  0.9087 -0.9311  2.2398
   35MOL   H35813346   2.649   2.233   4.732 -0.1063 -0.1273  0.7222
   35MOL   H35913347   2.491   2.298   4.700  0.4642 -1.2647  0.7752
   35MOL   H36013348   2.686   2.447   4.604 -0.7767  0.3175 -0.1443
   35MOL   H36113349   2.758   2.462   4.753 -0.0009  0.1752  0.2314
   35MOL   H36213350   2.604   2.541   4.725 -0.2016 -1.0598 -0.7353
   35MOL   C36313351   2.095   2.244   4.842 -0.0707  0.2612 -0.6970
   35MOL   C36413352   2.131   2.219   4.692  0.0312  0.1987 -0.5553
   35MOL   O36513353   2.004   2.238   4.639 -0.0186  0.2139 -0.1421
   35MOL   C36613354   1.997   2.185   4.509 -0.2619 -0.0905 -0.9971
   35MOL   C36713355   1.865   2.232   4.450 -0.4051  0.3901  0.1795
   35MOL   C36813356   1.848   2.379   4.451  0.3575 -1.1332 -0.0794
   35MOL   C36913357   1.726   2.434   4.363 -0.1074 -0.1336  0.2996
   35MOL   H37013358   2.058   2.343   4.867  1.0884  0.0518  1.8966
   35MOL   H37113359   2.014   2.172   4.858  0.1452  0.5514  1.9135
   35MOL   H37213360   2.160   2.114   4.684 -0.1192  0.1726 -0.7781
   35MOL   H37313361   1.994   2.077   4.499 -0.9319  0.0124 -1.9600
   35MOL   H37413362   2.082   2.224   4.453  0.3455 -0.5381 -0.4065
   35MOL   H37513363   1.794   2.187   4.520  0.0556  0.3474  0.6227
   35MOL   H37613364   1.832   2.183   4.358 -3.3510  0.8149  0.9620
   35MOL   H37713365   1.940   2.422   4.411  0.7832 -0.9247  1.1068
   35MOL   H37813366   1.847   2.419   4.552  1.7524  0.7867 -0.7834
   35MOL   H37913367   1.728   2.540   4.337  1.0722 -0.3819 -0.6948
   35MOL   H38013368   1.715   2.372   4.274  0.2978 -0.9222  0.7871
   35MOL   H38113369   1.635   2.425   4.423  0.5968 -0.4696  1.3325
   35MOL   H38213370   2.200   2.294   4.654 -0.7212 -0.0879 -2.5615
   36MOL     C113371   2.418   1.888   2.728 -1.7038 -0.0231  0.5673
   36MOL     C213372   2.384   1.782   2.837 -0.3128  0.2989 -0.1894
   36MOL     O313373   2.271   1.717   2.791 -0.2061  0.3739  0.2925
   36MOL     C413374   2.157   1.764   2.863  0.1647  0.7079 -0.1739
   36MOL     C513375   2.043   1.671   2.826 -0.1140 -0.0259 -0.5049
   36MOL     C613376   2.037   1.536   2.889 -0.1193 -0.1985  0.8571
   36MOL     C713377   1.952   1.440   2.810 -0.2057 -0.1666 -0.0451
   36MOL     H813378   2.340   1.964   2.723 -0.4815  1.2485  0.5000
   36MOL     H913379   2.512   1.944   2.728 -0.8587 -1.4193  1.8392
   36MOL    H1013380   2.380   1.837   2.932  0.6589  1.8542 -1.0252
   36MOL    H1113381   2.164   1.754   2.971 -2.4480  2.1587  0.1827
   36MOL    H1213382   2.136   1.870   2.845 -2.2429  0.0600 -1.3310
   36MOL    H1313383   2.047   1.666   2.717 -2.0152 -3.5377 -0.4816
   36MOL    H1413384   1.952   1.725   2.853 -0.7159 -0.0043 -2.5274
   36MOL    H1513385   1.986   1.531   2.985  1.3358  0.4065  1.6671
   36MOL    H1613386   2.138   1.498   2.905  0.1955  0.2075 -0.1430
   36MOL    H1713387   2.013   1.400   2.730  0.9480  1.8639 -0.2069
   36MOL    H1813388   1.864   1.496   2.778  0.2221  0.8550  0.5148
   36MOL    H1913389   1.915   1.356   2.868  0.3237  0.2191  0.8633
   36MOL    H2013390   2.414   1.845   2.628  2.3883 -0.2068  0.4027
   36MOL    C2113391   2.506   1.686   2.850  0.7251  0.0867 -0.0883
   36MOL    C2213392   2.489   1.595   2.962 -0.5564  0.4615  0.0888
   36MOL    O2313393   2.526   1.465   2.919  0.3072  0.2569  0.5069
   36MOL    C2413394   2.417   1.380   2.880 -0.4121 -0.2249  0.0225
   36MOL    C2513395   2.477   1.245   2.822 -0.4917 -0.0829 -0.0320
   36MOL    C2613396   2.583   1.262   2.710 -0.0823 -0.2109 -0.0899
   36MOL    C2713397   2.605   1.129   2.635 -0.3829 -0.0066  0.5075
   36MOL    H2813398   2.593   1.751   2.856  1.4184 -0.7321 -1.1065
   36MOL    H2913399   2.510   1.647   2.749 -1.3710 -0.5440  0.0516
   36MOL    H3013400   2.387   1.588   2.999 -0.6436  0.8482 -0.0753
   36MOL    H3113401   2.353   1.434   2.810  0.9179 -0.1470 -1.1483
   36MOL    H3213402   2.363   1.361   2.973  1.6266  0.8980  1.4704
   36MOL    H3313403   2.532   1.202   2.906  1.9372 -1.1467 -2.1120
   36MOL    H3413404   2.391   1.186   2.791 -0.6309  0.7051 -1.1859
   36MOL    H3513405   2.555   1.342   2.641 -1.9390  1.1395  2.1794
   36MOL    H3613406   2.677   1.303   2.746  1.0323 -0.6494 -2.4007
   36MOL    H3713407   2.621   1.048   2.706  0.8454  0.1917  0.4563
   36MOL    H3813408   2.505   1.113   2.593 -0.0059  2.1019 -1.2998
   36MOL    H3913409   2.673   1.127   2.550  1.1402 -0.7852  1.7303
   36MOL    C4013410   2.582   1.624   3.081  0.5470  0.1369 -0.6236
   36MOL    C4113411   2.554   1.567   3.227  0.4328  0.1644 -0.0455
   36MOL    O4213412   2.444   1.644   3.269 -0.2462 -0.3763  0.5023
   36MOL    C4313413   2.370   1.597   3.386  0.1039  0.3108 -0.0863
   36MOL    C4413414   2.230   1.670   3.400  0.3973  1.1906  0.2110
   36MOL    C4513415   2.139   1.634   3.280 -0.0678  0.2432 -0.2179
   36MOL    C4613416   1.997   1.684   3.287 -0.1380 -0.3135  0.2902
   36MOL    H4713417   2.603   1.731   3.087  2.8960 -0.2297 -1.7393
   36MOL    H4813418   2.673   1.576   3.045 -0.5332 -0.6349 -2.3722
   36MOL    H4913419   2.530   1.463   3.206  1.7322  0.0391 -0.9936
   36MOL    H5013420   2.429   1.610   3.477 -1.3006  0.5604  0.8115
   36MOL    H5113421   2.358   1.489   3.378  1.1468  0.0591  1.5234
   36MOL    H5213422   2.235   1.779   3.405  2.0591  1.1436 -0.0440
   36MOL    H5313423   2.194   1.631   3.495  0.3732  1.4694  0.3178
   36MOL    H5413424   2.133   1.528   3.257 -0.3016 -0.2072  1.8843
   36MOL    H5513425   2.182   1.661   3.183 -2.1191 -2.1491 -1.8637
   36MOL    H5613426   1.931   1.600   3.267 -0.4827  0.1728 -0.6276
   36MOL    H5713427   1.979   1.724   3.387  0.1801 -1.1626  0.6920
   36MOL    H5813428   1.965   1.753   3.209 -0.3685  0.8780  1.4106
   36MOL    C5913429   2.668   1.584   3.334  0.5481  0.2954 -0.4893
   36MOL    C6013430   2.805   1.526   3.287 -0.3161 -0.3217  0.1332
   36MOL    O6113431   2.906   1.579   3.374 -0.3661  0.1045  0.0931
   36MOL    C6213432   2.978   1.689   3.314 -0.1462  0.9515  0.3288
   36MOL    C6313433   3.079   1.724   3.418  0.2354 -0.6614  0.7857
   36MOL    C6413434   3.157   1.854   3.384 -0.1758  0.4895  0.5062
   36MOL    C6513435   3.085   1.989   3.376  0.6211 -0.1579 -0.4468
   36MOL    H6613436   2.676   1.689   3.361  2.6163  0.0860 -0.1908
   36MOL    H6713437   2.639   1.534   3.427 -0.7234 -2.4880 -2.3201
   36MOL    H6813438   2.820   1.558   3.184  0.4615 -0.7615  0.1056
   36MOL    H6913439   2.915   1.776   3.299 -0.3273  0.4225 -2.1806
   36MOL    H7013440   3.028   1.661   3.222 -2.3935  1.9118 -1.2043
   36MOL    H7113441   3.041   1.732   3.520 -1.8848  1.7573 -0.1234
   36MOL    H7213442   3.154   1.645   3.422  1.4605  0.4640  0.1840
   36MOL    H7313443   3.231   1.864   3.464 -0.3606 -0.4893  0.8055
   36MOL    H7413444   3.200   1.845   3.284  1.0752  2.3892  0.8498
   36MOL    H7513445   3.121   2.047   3.461  1.5264 -1.0785 -0.2029
   36MOL    H7613446   3.113   2.052   3.291 -1.5464 -0.8073 -1.6683
   36MOL    H7713447   2.977   1.988   3.385  0.6366 -0.3920 -0.3083
   36MOL    C7813448   2.806   1.375   3.298  0.1080 -0.2464  0.3991
   36MOL    C7913449   2.923   1.308   3.238  0.3188  0.6503 -0.1866
   36MOL    O8013450   2.906   1.168   3.220 -0.0722  0.4112 -0.2164
   36MOL    C8113451   2.831   1.128   3.107  0.0665 -0.1821  0.4439
   36MOL    C8213452   2.811   0.976   3.112 -0.4855 -0.4753 -0.2235
   36MOL    C8313453   2.924   0.896   3.057 -0.0100  0.4620  0.0719
   36MOL    C8413454   2.908   0.743   3.086 -0.0363 -0.2184  0.7381
   36MOL    H8513455   2.717   1.326   3.258  0.2369  1.3384 -1.9379
   36MOL    H8613456   2.804   1.348   3.403 -1.9680 -0.6509  0.2752
   36MOL    H8713457   2.943   1.343   3.137  0.4927 -1.9553 -1.1070
   36MOL    H8813458   2.883   1.152   3.015 -0.5295 -0.6993 -0.0342
   36MOL    H8913459   2.729   1.167   3.108 -0.0871 -0.5923  0.6085
   36MOL    H9013460   2.796   0.950   3.217  2.3069 -2.0277 -0.1406
   36MOL    H9113461   2.715   0.950   3.069  0.0568 -1.4123 -0.8796
   36MOL    H9213462   3.017   0.934   3.100  0.6156  1.3569 -2.0213
   36MOL    H9313463   2.935   0.916   2.950 -0.9050  0.8558  0.0554
   36MOL    H9413464   2.931   0.721   3.190 -0.1226  0.5458  0.9180
   36MOL    H9513465   2.806   0.706   3.069  0.2279 -0.6271 -0.0051
   36MOL    H9613466   2.980   0.684   3.028 -0.0494 -0.3186  0.8240
   36MOL    C9713467   3.058   1.329   3.303 -0.0465 -0.0206  0.3270
   36MOL    C9813468   3.179   1.264   3.228 -0.1001 -0.0246 -0.2794
   36MOL    O9913469   3.215   1.353   3.122 -0.1730  0.2207 -0.1129
   36MOL   C10013470   3.216   1.303   2.988  0.2363  0.1307 -0.4417
   36MOL   C10113471   3.247   1.426   2.906  0.2271 -0.4655 -0.0295
   36MOL   C10213472   3.400   1.451   2.902  0.8104 -0.0505  0.5281
   36MOL   C10313473   3.447   1.556   3.010  0.0069  0.7425  0.0714
   36MOL   H10413474   3.057   1.279   3.400  1.3469 -1.2640 -0.2770
   36MOL   H10513475   3.076   1.436   3.313  0.3709 -0.0257 -0.3658
   36MOL   H10613476   3.143   1.170   3.185  2.9833 -1.1698 -0.4338
   36MOL   H10713477   3.116   1.263   2.970  0.4065  1.2086 -4.2042
   36MOL   H10813478   3.291   1.229   2.963  0.7064  0.6343 -0.5255
   36MOL   H10913479   3.191   1.514   2.935 -0.6645 -1.1345  0.2993
   36MOL   H11013480   3.201   1.404   2.810 -2.1018 -1.1760  1.2196
   36MOL   H11113481   3.439   1.492   2.808 -0.6711 -0.4443 -0.2764
   36MOL   H11213482   3.454   1.358   2.921  0.2359 -0.7202 -1.0230
   36MOL   H11313483   3.438   1.523   3.114 -0.3157  1.9552  0.4347
   36MOL   H11413484   3.554   1.576   2.997  0.0983 -0.3491 -0.8927
   36MOL   H11513485   3.381   1.642   3.005 -0.0750  0.8458  2.2292
   36MOL   C11613486   3.303   1.247   3.318  0.7191  0.4395  0.1241
   36MOL   C11713487   3.418   1.161   3.255 -0.1793  0.8148 -0.1243
   36MOL   O11813488   3.535   1.177   3.336  0.5560 -0.5106 -0.5606
   36MOL   C11913489   3.546   1.147   3.478  0.1786 -0.2520  0.3769
   36MOL   C12013490   3.686   1.173   3.536 -0.6685 -0.4289 -0.3130
   36MOL   C12113491   3.731   1.321   3.542  0.7458  0.5307  0.7970
   36MOL   C12213492   3.874   1.333   3.578  0.1461 -0.3281 -0.1070
   36MOL   H12313493   3.339   1.348   3.337  0.6848  0.0799  2.2562
   36MOL   H12413494   3.270   1.196   3.409 -0.6328 -0.6433 -0.9521
   36MOL   H12513495   3.435   1.206   3.157  0.0099 -1.3995 -1.1320
   36MOL   H12613496   3.521   1.044   3.501 -0.0703 -0.8052 -2.2525
   36MOL   H12713497   3.467   1.202   3.529  0.5587 -0.0907  0.7981
   36MOL   H12813498   3.764   1.120   3.480  0.5550  3.9640 -3.0122
   36MOL   H12913499   3.684   1.126   3.634  1.1508 -0.5792 -0.3212
   36MOL   H13013500   3.699   1.368   3.449  2.3117 -1.8786 -1.0088
   36MOL   H13113501   3.690   1.371   3.630  0.0197  0.8607  0.2822
   36MOL   H13213502   3.896   1.440   3.578 -0.3192 -0.2321 -0.7848
   36MOL   H13313503   3.935   1.273   3.510 -1.5542 -2.4748  0.2168
   36MOL   H13413504   3.891   1.293   3.678  0.4721  0.0116 -0.0244
   36MOL   C13513505   3.386   1.006   3.253 -0.4910  1.2943  0.1113
   36MOL   C13613506   3.472   0.923   3.162  0.1965  0.4968 -0.1566
   36MOL   O13713507   3.445   0.784   3.194 -0.2444  0.0228  0.6921
   36MOL   C13813508   3.554   0.713   3.260  1.0590  0.2710  0.5144
   36MOL   C13913509   3.511   0.562   3.288 -0.2869 -0.4338 -0.4159
   36MOL   C14013510   3.602   0.481   3.378 -0.0725 -0.0761  0.0655
   36MOL   C14113511   3.540   0.349   3.430  0.1657 -0.4221  0.4077
   36MOL   H14213512   3.285   0.990   3.215  0.1875  1.4352 -1.8487
   36MOL   H14313513   3.390   0.969   3.355  0.7814  0.2596 -0.2956
   36MOL   H14413514   3.577   0.941   3.185  0.0101 -0.5189  1.5978
   36MOL   H14513515   3.573   0.761   3.356 -1.5290  0.0773  1.1735
   36MOL   H14613516   3.649   0.714   3.208  0.7253 -0.7585 -0.1328
   36MOL   H14713517   3.479   0.505   3.201 -3.4679 -0.2234  0.5556
   36MOL   H14813518   3.420   0.582   3.345 -0.6517  0.0759 -1.1556
   36MOL   H14913519   3.694   0.460   3.324  0.2554  1.7750 -0.1229
   36MOL   H15013520   3.633   0.539   3.465 -0.3859 -1.2986  1.0126
   36MOL   H15113521   3.492   0.302   3.344 -1.9985  0.3963  1.1409
   36MOL   H15213522   3.618   0.293   3.482 -1.7721 -1.7029  2.0023
   36MOL   H15313523   3.457   0.373   3.497 -0.2057  2.3918 -1.0051
   36MOL   C15413524   3.447   0.931   3.015 -0.1729  0.6130 -0.2758
   36MOL   C15513525   3.526   0.853   2.913 -0.4677 -0.7786  0.0167
   36MOL   O15613526   3.659   0.915   2.924  0.2089  0.2785  0.0738
   36MOL   C15713527   3.767   0.816   2.929 -0.2865 -0.6659 -0.1848
   36MOL   C15813528   3.907   0.882   2.897 -0.1120 -0.1662  0.4028
   36MOL   C15913529   4.008   0.771   2.877 -0.3000  0.1126  0.0096
   36MOL   C16013530   4.148   0.816   2.843 -0.2431 -0.4387  0.3441
   36MOL   H16113531   3.451   1.037   2.988  1.5510  1.1607  1.9357
   36MOL   H16213532   3.342   0.904   3.002 -0.0779 -0.8192  1.7418
   36MOL   H16313533   3.527   0.745   2.929  0.0233 -0.4250  2.5686
   36MOL   H16413534   3.770   0.757   3.021 -0.1647  1.1478  0.9956
   36MOL   H16513535   3.751   0.748   2.846  1.0979 -1.9375  0.5748
   36MOL   H16613536   3.933   0.951   2.978 -2.1493 -0.0325  0.9534
   36MOL   H16713537   3.905   0.936   2.802  0.3523 -1.5514 -0.4114
   36MOL   H16813538   4.022   0.715   2.970 -1.0228  1.0970  0.7287
   36MOL   H16913539   3.979   0.702   2.798 -1.5525  1.4742 -0.7565
   36MOL   H17013540   4.222   0.740   2.866  0.1561  0.5638  2.4872
   36MOL   H17113541   4.143   0.820   2.734  0.6785 -4.8483  0.0334
   36MOL   H17213542   4.183   0.908   2.889  2.4546 -1.5158  0.5257
   36MOL   C17313543   3.460   0.884   2.771 -0.1635 -0.7460  0.0903
   36MOL   C17413544   3.491   0.773   2.674  0.1624  0.0327  0.7486
   36MOL   O17513545   3.407   0.661   2.706  0.0344 -0.3696 -0.1439
   36MOL   C17613546   3.480   0.549   2.724 -0.3530 -0.0041  0.4392
   36MOL   C17713547   3.386   0.445   2.774 -0.0821  0.2015 -0.7460
   36MOL   C17813548   3.341   0.477   2.927 -0.0322 -0.1938 -0.1268
   36MOL   C17913549   3.235   0.387   2.984  0.1999 -0.0203 -0.3175
   36MOL   H18013550   3.481   0.984   2.735 -2.7424  0.5369  1.9515
   36MOL   H18113551   3.352   0.881   2.790 -0.0037  2.0969  1.7310
   36MOL   H18213552   3.597   0.750   2.676 -0.0981 -1.1126  2.5269
   36MOL   H18313553   3.560   0.558   2.798 -0.7531  1.1442  0.7363
   36MOL   H18413554   3.521   0.517   2.628 -1.2639 -0.0211  0.0534
   36MOL   H18513555   3.434   0.348   2.773  1.3552  0.9054 -0.4535
   36MOL   H18613556   3.301   0.433   2.707  0.1335  0.2458 -1.0250
   36MOL   H18713557   3.432   0.483   2.987 -0.6572 -0.6299  0.8623
   36MOL   H18813558   3.298   0.577   2.922  1.0979  0.2807 -0.6862
   36MOL   H18913559   3.151   0.361   2.920 -1.9507  1.2778  1.8916
   36MOL   H19013560   3.290   0.300   3.020  1.3227  0.6724 -0.3267
   36MOL   H19113561   3.182   0.432   3.068 -1.7458 -1.9609 -0.4645
   36MOL   C19213562   3.459   0.815   2.532 -0.2086 -0.1893 -0.8007
   36MOL   C19313563   3.551   0.920   2.480  0.0050 -1.2226  0.2177
   36MOL   O19413564   3.686   0.890   2.503  0.4731 -0.1699 -0.2349
   36MOL   C19513565   3.752   0.775   2.435  0.4906 -0.0350 -0.2343
   36MOL   C19613566   3.896   0.750   2.468  0.5535  0.2396  0.3248
   36MOL   C19713567   3.971   0.643   2.382 -0.3559 -0.0407  0.7266
   36MOL   C19813568   4.121   0.652   2.390 -0.1019 -0.0593  0.3872
   36MOL   H19913569   3.356   0.849   2.530 -1.0042 -2.2831  1.7560
   36MOL   H20013570   3.470   0.725   2.472 -0.5334  0.6418 -2.1160
   36MOL   H20113571   3.540   1.018   2.526 -2.0631 -0.7640 -1.2072
   36MOL   H20213572   3.746   0.798   2.328 -2.4359  0.5394  0.0228
   36MOL   H20313573   3.690   0.688   2.454  0.2495 -0.0301 -0.9807
   36MOL   H20413574   3.950   0.844   2.452 -0.0352  0.4507 -0.4606
   36MOL   H20513575   3.910   0.718   2.571 -0.0852  0.2637  0.4168
   36MOL   H20613576   3.940   0.662   2.280 -1.5969 -1.2217  0.8531
   36MOL   H20713577   3.928   0.544   2.400 -0.3564 -0.2462 -0.3938
   36MOL   H20813578   4.164   0.749   2.370  0.7597 -0.5114  0.0354
   36MOL   H20913579   4.151   0.626   2.492  0.1101 -0.2945  0.2650
   36MOL   H21013580   4.171   0.577   2.328  2.1100  0.1666  1.8483
   36MOL   C21113581   3.533   0.964   2.332  0.0021  0.5026  0.1066
   36MOL   C21213582   3.394   1.015   2.293 -0.1543 -1.3780  0.2375
   36MOL   O21313583   3.361   1.136   2.364  0.6334  0.0710 -0.3249
   36MOL   C21413584   3.228   1.181   2.369 -0.0102  0.8350 -0.5208
   36MOL   C21513585   3.155   1.112   2.486 -0.2892  0.3408  0.7185
   36MOL   C21613586   3.205   1.156   2.624  0.7136 -0.0283 -0.2795
   36MOL   C21713587   3.164   1.054   2.727  0.2974 -0.5704 -0.1879
   36MOL   H21813588   3.548   0.871   2.278 -0.8431  1.3275 -1.5903
   36MOL   H21913589   3.611   1.036   2.307  0.6461  0.2549  1.3421
   36MOL   H22013590   3.320   0.942   2.328 -0.9215 -1.6058 -1.7858
   36MOL   H22113591   3.235   1.289   2.381  0.7487  0.6500  0.9078
   36MOL   H22213592   3.175   1.164   2.276 -0.6883 -3.2394  0.4934
   36MOL   H22313593   3.051   1.142   2.475 -0.5195 -0.5602  0.3421
   36MOL   H22413594   3.164   1.003   2.483 -0.3754  0.3647 -2.2337
   36MOL   H22513595   3.168   1.255   2.647 -0.3386 -0.5680  0.3583
   36MOL   H22613596   3.314   1.153   2.614  0.9534 -0.0995  2.0396
   36MOL   H22713597   3.220   1.057   2.821 -0.6246 -3.7342  0.4933
   36MOL   H22813598   3.163   0.951   2.693  1.7656 -1.4918  2.3778
   36MOL   H22913599   3.064   1.074   2.765  0.5468  1.3322 -0.4590
   36MOL   C23013600   3.387   1.041   2.136  0.7427 -0.0664  0.0277
   36MOL   C23113601   3.313   0.931   2.058  0.4814  0.4320 -0.3261
   36MOL   O23213602   3.177   0.953   2.086  0.3504 -0.0421  0.3630
   36MOL   C23313603   3.106   0.837   2.131  0.5453  0.3056 -0.3434
   36MOL   C23413604   2.951   0.872   2.144 -1.0981 -0.6252  0.0550
   36MOL   C23513605   2.917   0.983   2.237  0.5384  0.1366 -0.9347
   36MOL   C23613606   2.768   1.034   2.241 -0.5791  0.2209  0.1740
   36MOL   H23713607   3.486   1.068   2.102  0.7789  1.3328  1.2033
   36MOL   H23813608   3.335   1.134   2.110 -1.7501 -0.9830  1.5378
   36MOL   H23913609   3.346   0.833   2.091 -1.7263  0.0826  0.9047
   36MOL   H24013610   3.123   0.755   2.060  1.0347 -2.3471  2.7304
   36MOL   H24113611   3.141   0.805   2.229 -0.0251  0.9689  0.0774
   36MOL   H24213612   2.915   0.901   2.045 -2.2040  1.2224  0.9769
   36MOL   H24313613   2.894   0.785   2.177 -1.2327  0.4278  2.7350
   36MOL   H24413614   2.978   1.068   2.207  0.3164 -0.1861 -2.3152
   36MOL   H24513615   2.953   0.938   2.329 -2.2264 -1.7157 -0.6872
   36MOL   H24613616   2.761   1.102   2.326  1.0227 -1.6145  1.8359
   36MOL   H24713617   2.701   0.950   2.260  1.1524 -1.4574 -0.9038
   36MOL   H24813618   2.745   1.086   2.148  3.9887  1.2018 -0.5299
   36MOL   C24913619   3.326   0.936   1.905  0.2126 -0.4922 -0.3987
   36MOL   C25013620   3.473   0.914   1.849  0.0038 -0.2423  0.1203
   36MOL   O25113621   3.494   0.962   1.721  0.4721 -0.0441  0.0071
   36MOL   C25213622   3.522   1.100   1.710  0.3094 -0.4297 -0.0318
   36MOL   C25313623   3.543   1.132   1.559 -0.2659  0.6076  0.5762
   36MOL   C25413624   3.408   1.105   1.487  0.5227  0.0794 -0.1493
   36MOL   C25513625   3.413   1.132   1.339 -0.1199  0.1428  0.1113
   36MOL   H25613626   3.287   1.034   1.876 -1.1736 -0.8451  0.2038
   36MOL   H25713627   3.255   0.864   1.863  0.5157 -0.0682 -1.6432
   36MOL   H25813628   3.538   0.973   1.913 -0.6149 -0.3746  0.8688
   36MOL   H25913629   3.612   1.116   1.771  0.8268 -0.4122 -0.7932
   36MOL   H26013630   3.443   1.155   1.761 -0.5832 -1.0593 -0.7241
   36MOL   H26113631   3.568   1.236   1.540 -3.1603  1.2409 -0.0438
   36MOL   H26213632   3.621   1.073   1.511 -0.5723 -0.6617  1.6208
   36MOL   H26313633   3.380   1.000   1.503  2.7704 -0.8776 -2.1814
   36MOL   H26413634   3.325   1.163   1.527 -0.9234 -1.1555 -1.2605
   36MOL   H26513635   3.493   1.065   1.307 -0.5037 -0.5183  0.5473
   36MOL   H26613636   3.427   1.239   1.321 -3.8598  1.1988  2.8652
   36MOL   H26713637   3.326   1.094   1.286 -1.2611 -1.1655  2.8439
   36MOL   C26813638   3.523   0.770   1.864  0.0766  0.0365  0.0799
   36MOL   C26913639   3.668   0.745   1.821 -0.4621  0.6634 -1.0024
   36MOL   O27013640   3.750   0.816   1.921 -0.4051  0.0997 -0.0978
   36MOL   C27113641   3.845   0.908   1.854 -0.4755  0.4063  0.5129
   36MOL   C27213642   3.954   0.943   1.963  0.3655 -0.1997 -0.0166
   36MOL   C27313643   3.877   0.986   2.093  0.1930  0.0944  0.3760
   36MOL   C27413644   3.970   1.007   2.218  0.0235 -0.0181 -0.9504
   36MOL   H27513645   3.510   0.745   1.970  2.1440  0.7830  0.5437
   36MOL   H27613646   3.452   0.719   1.799  2.0329 -2.8970  0.1739
   36MOL   H27713647   3.675   0.778   1.717 -0.8701  1.5226 -0.7569
   36MOL   H27813648   3.895   0.863   1.768 -2.7184 -1.8101  0.3224
   36MOL   H27913649   3.793   0.999   1.826  0.5730  0.7989 -0.2031
   36MOL   H28013650   4.010   0.854   1.993  1.2173  0.0319 -0.8948
   36MOL   H28113651   4.023   1.016   1.920 -0.0554  1.5719  2.2319
   36MOL   H28213652   3.801   0.910   2.111  0.2626 -0.1660 -0.4082
   36MOL   H28313653   3.815   1.075   2.081 -0.8749 -0.5841  0.8261
   36MOL   H28413654   4.043   0.929   2.239  0.3088  0.6972  0.8466
   36MOL   H28513655   3.910   1.025   2.307  2.3190  2.3171  0.1961
   36MOL   H28613656   4.040   1.091   2.209  0.1669  0.1527  1.5436
   36MOL   C28713657   3.702   0.594   1.854  0.2215 -0.1018  0.7005
   36MOL   C28813658   3.649   0.477   1.768 -0.4822 -0.4305 -0.0854
   36MOL   O28913659   3.646   0.359   1.847  0.3425 -0.0977  0.0695
   36MOL   C29013660   3.555   0.253   1.813  0.1619 -0.0689 -0.0783
   36MOL   C29113661   3.591   0.133   1.898  0.6297 -1.1160  0.4609
   36MOL   C29213662   3.736   0.088   1.906  0.4622 -0.2237  0.0430
   36MOL   C29313663   3.754   7.769   1.993 -0.6194 -0.0414  0.4381
   36MOL   H29413664   3.648   0.577   1.947  1.1317  0.1189  1.2832
   36MOL   H29513665   3.803   0.574   1.891 -1.0197 -1.9262  3.2500
   36MOL   H29613666   3.548   0.496   1.733 -0.4478 -0.0082  0.0439
   36MOL   H29713667   3.448   0.266   1.829  0.5641  3.3547  0.1625
   36MOL   H29813668   3.559   0.222   1.709  0.3935 -0.2085 -0.0287
   36MOL   H29913669   3.521   0.054   1.873  2.5773 -2.2336 -1.6288
   36MOL   H30013670   3.560   0.154   2.000  0.7498 -2.3058  0.7461
   36MOL   H30113671   3.793   0.174   1.941  0.2529 -0.2399  0.4206
   36MOL   H30213672   3.764   0.062   1.803  1.7165 -2.8502  0.9843
   36MOL   H30313673   3.669   7.704   1.970 -0.9803  0.9004 -0.9819
   36MOL   H30413674   3.846   7.720   1.963 -2.1154 -1.5822 -1.8344
   36MOL   H30513675   3.753   7.784   2.101  2.0005 -2.5839  0.8519
   36MOL   C30613676   3.741   0.438   1.649  0.1937 -0.1782  0.2616
   36MOL   C30713677   3.763   0.545   1.534 -0.6485 -0.0071  0.1470
   36MOL   O30813678   3.641   0.548   1.461  0.0840  0.4006 -0.1848
   36MOL   C30913679   3.612   0.666   1.390  0.2766  0.7270  0.3641
   36MOL   C31013680   3.469   0.675   1.368  0.1509 -0.4615 -0.6932
   36MOL   C31113681   3.395   0.701   1.498  0.3266  0.2812 -0.4949
   36MOL   C31213682   3.237   0.737   1.483 -0.4155 -0.2207 -0.4220
   36MOL   H31313683   3.836   0.418   1.698  0.3276 -0.0329  0.0661
   36MOL   H31413684   3.705   0.345   1.605  0.9979  1.3413 -3.9403
   36MOL   H31513685   3.790   0.642   1.577  0.3994 -0.3204  0.2118
   36MOL   H31613686   3.658   0.666   1.291 -0.2866  0.6225  0.1032
   36MOL   H31713687   3.652   0.756   1.438  0.3699  0.9789 -0.1764
   36MOL   H31813688   3.438   0.590   1.307  1.7421 -0.7659 -1.0889
   36MOL   H31913689   3.447   0.762   1.306 -0.2894 -0.1095 -0.0516
   36MOL   H32013690   3.401   0.612   1.561  1.0529 -0.0371 -1.0041
   36MOL   H32113691   3.443   0.784   1.549 -1.0931  0.5764  0.3814
   36MOL   H32213692   3.196   0.775   1.576  0.6584 -1.5232  0.6132
   36MOL   H32313693   3.181   0.654   1.440  0.9349 -2.4725  1.9837
   36MOL   H32413694   3.229   0.833   1.434 -1.7465  0.4763  1.1348
   36MOL   C32513695   3.880   0.513   1.436 -0.3439  0.2622 -0.0033
   36MOL   C32613696   4.024   0.553   1.481  0.4662  0.3753 -0.3179
   36MOL   O32713697   4.118   0.515   1.376 -0.0082 -0.5913 -0.2225
   36MOL   C32813698   4.152   0.382   1.369  0.5087  0.3406  0.2868
   36MOL   C32913699   4.264   0.364   1.266  0.5402 -0.6234  0.3339
   36MOL   C33013700   4.393   0.450   1.286  0.0021  0.1768 -1.1991
   36MOL   C33113701   4.472   0.420   1.414 -0.2414  0.7760 -0.1137
   36MOL   H33213702   3.873   0.547   1.333  0.2217 -2.2863 -0.9012
   36MOL   H33313703   3.872   0.405   1.435 -1.5857  0.3446 -2.1789
   36MOL   H33413704   4.042   0.512   1.581 -0.9447  2.0095  0.6284
   36MOL   H33513705   4.062   0.322   1.352  0.6468 -0.6880  2.9788
   36MOL   H33613706   4.189   0.339   1.462  1.2026  1.1445  0.3889
   36MOL   H33713707   4.294   0.261   1.283  0.8732 -0.5718  0.0779
   36MOL   H33813708   4.225   0.368   1.165  0.6177 -0.0310  0.3224
   36MOL   H33913709   4.367   0.556   1.281 -0.4346  0.1709  0.5566
   36MOL   H34013710   4.457   0.437   1.198 -0.4445 -0.2898 -1.4607
   36MOL   H34113711   4.520   0.323   1.402 -1.1199  0.4204 -0.7566
   36MOL   H34213712   4.409   0.399   1.501 -0.6043  0.5460 -0.4278
   36MOL   H34313713   4.545   0.496   1.441  0.4944  0.8964 -2.3439
   36MOL   C34413714   4.049   0.703   1.506 -0.6889 -1.1995 -0.1364
   36MOL   C34513715   4.188   0.730   1.565  0.3735 -0.0506  0.9486
   36MOL   O34613716   4.179   0.705   1.704  0.1856  0.0892 -0.4750
   36MOL   C34713717   4.267   0.607   1.751 -0.5533  0.6216  0.3803
   36MOL   C34813718   4.209   0.552   1.879 -0.0178 -0.3578  0.0069
   36MOL   C34913719   4.079   0.467   1.860 -0.1184 -0.5374  0.0158
   36MOL   C35013720   4.031   0.395   1.985 -0.1010 -0.1212 -0.2386
   36MOL   H35113721   4.049   0.754   1.410 -3.6110 -0.6509  0.0887
   36MOL   H35213722   3.980   0.760   1.569  2.4168  0.9676  1.3812
   36MOL   H35313723   4.265   0.668   1.518  0.6795  0.4758  0.7437
   36MOL   H35413724   4.359   0.656   1.786 -0.6029  1.2865 -0.4189
   36MOL   H35513725   4.289   0.529   1.678 -0.4586 -0.9535  2.0460
   36MOL   H35613726   4.183   0.640   1.937 -0.2882  1.6457 -3.0424
   36MOL   H35713727   4.286   0.498   1.935 -0.0583 -0.6888 -0.2583
   36MOL   H35813728   3.999   0.532   1.823 -0.6816 -2.0553 -1.5071
   36MOL   H35913729   4.087   0.400   1.774 -2.3323 -1.0269  0.1491
   36MOL   H36013730   4.026   0.456   2.075 -1.4500  1.2683 -1.2275
   36MOL   H36113731   4.088   0.306   2.015  0.6112  0.5673  0.4742
   36MOL   H36213732   3.931   0.358   1.961  0.2252 -0.1255 -1.6825
   36MOL   C36313733   4.231   0.875   1.540  0.0741  0.6713  0.1321
   36MOL   C36413734   4.144   0.990   1.589 -0.4011 -0.2362  0.5364
   36MOL   O36513735   4.040   1.016   1.492  0.8467  0.2860  0.2652
   36MOL   C36613736   3.974   1.131   1.526  0.5254  0.6864  0.5815
   36MOL   C36713737   3.931   1.200   1.403 -0.0723  0.2457  0.6070
   36MOL   C36813738   3.866   1.340   1.416  0.2389  0.4018  0.0577
   36MOL   C36913739   3.827   1.395   1.273 -0.2768  0.1707  0.0624
   36MOL   H37013740   4.241   0.880   1.431  1.2549 -2.1959  0.0668
   36MOL   H37113741   4.328   0.889   1.587  1.5199  1.2874 -2.9133
   36MOL   H37213742   4.205   1.079   1.572 -1.4470  0.3478 -0.2560
   36MOL   H37313743   4.023   1.213   1.578  3.1704 -0.3424 -0.2368
   36MOL   H37413744   3.888   1.107   1.589  1.5762 -2.5416  0.8517
   36MOL   H37513745   3.878   1.133   1.335  1.6309 -0.4749 -0.0322
   36MOL   H37613746   4.030   1.210   1.360  0.6761  0.3284  2.3029
   36MOL   H37713747   3.951   1.393   1.458  0.4810  0.5108 -0.5558
   36MOL   H37813748   3.782   1.336   1.485 -1.2150  0.5274 -1.6440
   36MOL   H37913749   3.912   1.422   1.210  0.0789 -1.5503 -0.2109
   36MOL   H38013750   3.763   1.326   1.219  0.7383 -0.7036 -0.0416
   36MOL   H38113751   3.774   1.490   1.285  0.3653  0.4492  0.7330
   36MOL   H38213752   4.109   0.975   1.692 -0.9271  0.3691  0.4514
   37MOL     C113753   4.030   7.177   0.017 -0.0388  0.1261 -0.1143
   37MOL     C213754   3.992   7.196   0.167  0.9054  0.1481  0.5209
   37MOL     O313755   4.031   7.323   0.222  0.1508  0.0364  0.1639
   37MOL     C413756   4.172   7.328   0.251 -0.2417 -0.2261 -0.5215
   37MOL     C513757   4.209   7.472   0.294  0.1529 -0.2131 -0.2248
   37MOL     C613758   4.163   7.502   0.440  0.0863  0.3332 -0.0697
   37MOL     C713759   4.193   7.653   0.476 -0.7500 -0.1107  0.0629
   37MOL     H813760   4.114   7.235   7.779  0.8292  0.4347  2.1253
   37MOL     H913761   4.039   7.071   7.799  0.3497  0.4249 -1.5821
   37MOL    H1013762   4.042   7.116   0.222  0.9464 -2.0835 -2.6721
   37MOL    H1113763   4.194   7.258   0.332  1.2260 -1.2466 -1.7711
   37MOL    H1213764   4.227   7.301   0.161 -0.3784  0.5775 -0.8530
   37MOL    H1313765   4.155   7.548   0.239  1.1131 -1.1874 -2.5519
   37MOL    H1413766   4.316   7.491   0.279  0.4622 -0.5621  1.4024
   37MOL    H1513767   4.215   7.429   0.502 -1.2042 -0.9461 -0.4780
   37MOL    H1613768   4.057   7.482   0.452  0.0792 -1.8645 -3.3377
   37MOL    H1713769   4.173   7.728   0.401 -0.8657  1.3560  1.5294
   37MOL    H1813770   4.298   7.645   0.503 -0.4732 -2.7728 -1.6399
   37MOL    H1913771   4.125   7.683   0.555 -1.2242  1.6325 -0.9938
   37MOL    H2013772   3.951   7.215   7.753  1.1916  2.1052 -0.4901
   37MOL    C2113773   3.844   7.174   0.180 -0.0167 -0.4415 -0.6715
   37MOL    C2213774   3.792   7.178   0.323 -0.8411  0.4056  0.4319
   37MOL    O2313775   3.662   7.230   0.327 -0.5589 -0.5763  0.0074
   37MOL    C2413776   3.648   7.374   0.325  0.2453 -0.5068 -0.6498
   37MOL    C2513777   3.537   7.426   0.411  0.6190  0.1864 -0.0612
   37MOL    C2613778   3.392   7.381   0.372  0.3568  0.0829 -0.3870
   37MOL    C2713779   3.297   7.426   0.482 -0.2821 -0.6555  0.1357
   37MOL    H2813780   3.807   7.085   0.129 -0.9692 -0.6295  0.3344
   37MOL    H2913781   3.796   7.256   0.128 -0.9584  0.0109  0.8615
   37MOL    H3013782   3.859   7.239   0.384 -0.5688  1.2938 -0.7505
   37MOL    H3113783   3.645   7.395   0.218 -1.7136  0.1330 -0.4820
   37MOL    H3213784   3.742   7.420   0.356  0.2032 -2.0690  1.9481
   37MOL    H3313785   3.568   7.380   0.505 -1.4634 -3.6027 -1.1209
   37MOL    H3413786   3.536   7.535   0.419 -3.5822  0.3472 -1.7809
   37MOL    H3513787   3.374   7.440   0.283  1.4066  0.7967 -0.1395
   37MOL    H3613788   3.385   7.273   0.357 -0.3224 -0.0126  0.5529
   37MOL    H3713789   3.306   7.352   0.561  2.8427 -0.1771  0.3024
   37MOL    H3813790   3.328   7.524   0.521 -1.2109 -0.6530  0.8877
   37MOL    H3913791   3.191   7.435   0.460 -0.4475  0.3516  1.2812
   37MOL    C4013792   3.785   7.033   0.382 -0.4286 -0.0529  0.0103
   37MOL    C4113793   3.761   7.027   0.535 -0.2257 -0.0515 -0.0810
   37MOL    O4213794   3.822   6.911   0.593  0.4662  0.3751  0.4499
   37MOL    C4313795   3.945   6.918   0.662  0.0513 -0.7403  0.4847
   37MOL    C4413796   3.982   6.769   0.682 -0.4950 -0.4818 -0.1429
   37MOL    C4513797   4.125   6.743   0.714  0.4813 -0.4639  0.2485
   37MOL    C4613798   4.158   6.773   0.863 -0.5785  0.0321  0.3794
   37MOL    H4713799   3.879   6.982   0.361 -1.0608 -1.7772  1.2294
   37MOL    H4813800   3.716   6.973   0.323  0.1409 -0.8589  0.1524
   37MOL    H4913801   3.805   7.112   0.587 -1.2728 -0.7103  1.9528
   37MOL    H5013802   3.918   6.961   0.758 -2.0447  1.6822 -1.1046
   37MOL    H5113803   4.013   6.971   0.596 -1.5417  0.9450  0.1312
   37MOL    H5213804   3.959   6.713   0.591 -0.7093 -1.2383  0.3782
   37MOL    H5313805   3.913   6.731   0.757  0.2029 -0.1940  0.6428
   37MOL    H5413806   4.188   6.815   0.662 -0.5410  1.2085  1.2801
   37MOL    H5513807   4.153   6.641   0.687 -1.1759 -0.6633 -0.7277
   37MOL    H5613808   4.079   6.748   0.934 -1.5379  2.0017  0.0502
   37MOL    H5713809   4.249   6.724   0.897  1.4647  3.1364 -0.4513
   37MOL    H5813810   4.179   6.878   0.881  1.5770  0.0086 -1.8051
   37MOL    C5913811   3.618   7.027   0.575  0.5336  0.2399  0.6898
   37MOL    C6013812   3.575   6.997   0.725  0.4247 -0.1895  0.1280
   37MOL    O6113813   3.683   7.019   0.818 -0.1845 -0.0867  0.1688
   37MOL    C6213814   3.687   6.953   0.946  0.3766  0.1634 -0.0772
   37MOL    C6313815   3.732   7.066   1.045  0.2043  0.5212 -0.7433
   37MOL    C6413816   3.604   7.143   1.094 -0.5178 -0.2953 -0.2405
   37MOL    C6513817   3.645   7.272   1.169  1.1421  0.0927 -0.2913
   37MOL    H6613818   3.569   7.121   0.551  0.5332  0.1122  0.1871
   37MOL    H6713819   3.571   6.954   0.508  2.6372 -1.0585  0.5867
   37MOL    H6813820   3.562   6.889   0.735 -1.3760  0.0546  0.4976
   37MOL    H6913821   3.759   6.872   0.938  0.2057 -0.0276  0.3087
   37MOL    H7013822   3.595   6.916   0.990 -0.7955  4.2828  1.2220
   37MOL    H7113823   3.786   7.019   1.127 -0.0527  1.8529  0.1959
   37MOL    H7213824   3.798   7.144   1.009 -0.7093  0.1042 -3.4053
   37MOL    H7313825   3.533   7.160   1.013 -1.1031  0.3886  0.4159
   37MOL    H7413826   3.544   7.076   1.156 -0.9750  1.1147  0.8430
   37MOL    H7513827   3.682   7.262   1.271  0.4633  3.4793  0.3379
   37MOL    H7613828   3.719   7.326   1.110  1.6906  1.4480  1.6040
   37MOL    H7713829   3.562   7.342   1.159  1.5091  0.5750  0.0781
   37MOL    C7813830   3.439   7.061   0.769 -0.0192  0.8731  0.2075
   37MOL    C7913831   3.320   7.014   0.682  0.3348  0.1464  0.5687
   37MOL    O8013832   3.342   7.068   0.551 -0.4964  0.3085 -0.5294
   37MOL    C8113833   3.261   7.016   0.447  0.1064  1.2757 -0.0197
   37MOL    C8213834   3.148   7.107   0.405 -0.0506 -0.2138 -0.5660
   37MOL    C8313835   3.019   7.047   0.341 -0.3584 -0.4101  0.5893
   37MOL    C8413836   2.896   7.145   0.355 -0.8115 -0.0548  0.4550
   37MOL    H8513837   3.451   7.169   0.773  1.2394  0.7316  0.3521
   37MOL    H8613838   3.421   7.026   0.871  1.7892  0.2139  0.3089
   37MOL    H8713839   3.316   6.906   0.667  1.2717 -0.1078  2.0971
   37MOL    H8813840   3.219   6.917   0.465 -0.2039  1.2902 -0.6634
   37MOL    H8913841   3.323   7.008   0.358 -0.6534  0.1902 -0.4633
   37MOL    H9013842   3.126   7.170   0.492  0.8057  1.7045 -1.7084
   37MOL    H9113843   3.180   7.164   0.318 -1.3566 -0.7285 -1.4036
   37MOL    H9213844   2.989   6.952   0.386 -1.5712  0.0029  0.6775
   37MOL    H9313845   3.037   7.028   0.235  0.3216 -0.9026  0.7939
   37MOL    H9413846   2.915   7.234   0.295  1.3272 -1.6877 -1.3802
   37MOL    H9513847   2.803   7.097   0.324 -0.9079  0.4301 -0.0152
   37MOL    H9613848   2.882   7.170   0.460  0.4533  0.6069  0.4710
   37MOL    C9713849   3.189   7.063   0.750  0.4421  0.2505  0.6222
   37MOL    C9813850   3.129   6.981   0.868 -0.2470 -0.2436 -0.2771
   37MOL    O9913851   3.059   7.062   0.964  0.1919  0.1645 -0.0630
   37MOL   C10013852   3.064   7.019   1.102 -0.0217 -0.7794 -0.1825
   37MOL   C10113853   2.946   7.059   1.194  0.3372 -0.4294  0.2089
   37MOL   C10213854   2.951   6.992   1.324 -0.0361 -0.0681  0.2264
   37MOL   C10313855   2.847   7.054   1.417 -0.2754  0.0095 -0.5547
   37MOL   H10413856   3.108   7.058   0.677  0.0494 -1.4573  1.1527
   37MOL   H10513857   3.188   7.169   0.776 -1.1505  0.5192 -0.4757
   37MOL   H10613858   3.209   6.924   0.914  0.3511  0.5976 -0.2615
   37MOL   H10713859   3.154   7.061   1.148 -0.0316  1.1108 -1.7803
   37MOL   H10813860   3.074   6.911   1.106  0.8044 -0.7497 -1.0877
   37MOL   H10913861   2.849   7.043   1.147  0.1943  0.4210  0.2054
   37MOL   H11013862   2.945   7.168   1.190 -2.7928 -0.4866 -2.6978
   37MOL   H11113863   3.049   7.018   1.364  0.0264 -0.2215  0.1709
   37MOL   H11213864   2.939   6.884   1.324 -2.4156  0.1721 -1.7853
   37MOL   H11313865   2.743   7.027   1.401 -0.4882  0.3142  0.2712
   37MOL   H11413866   2.859   7.014   1.517 -0.3367  0.2855 -0.4344
   37MOL   H11513867   2.850   7.163   1.425 -0.6880  0.0086 -0.3769
   37MOL   C11613868   3.028   6.872   0.824 -0.1843 -0.0353  0.1567
   37MOL   C11713869   3.085   6.753   0.758 -0.1067  0.3803 -0.5569
   37MOL   O11813870   3.172   6.683   0.853  0.4215  0.3004 -0.4225
   37MOL   C11913871   3.297   6.637   0.807 -0.2565  0.1673 -0.0629
   37MOL   C12013872   3.359   6.556   0.921  0.0632  0.3546 -0.8012
   37MOL   C12113873   3.401   6.643   1.043 -0.0358 -0.1044  0.2701
   37MOL   C12213874   3.493   6.572   1.142 -0.4496 -0.4009 -0.5074
   37MOL   H12313875   2.966   6.833   0.905  0.3349  2.0294  1.5739
   37MOL   H12413876   2.944   6.915   0.769 -0.8234  0.5549  1.5658
   37MOL   H12513877   3.146   6.785   0.673  1.4613 -0.1217  0.3563
   37MOL   H12613878   3.354   6.726   0.781  1.1243 -0.1853  1.6624
   37MOL   H12713879   3.281   6.574   0.720  1.4419 -1.6439  0.8951
   37MOL   H12813880   3.455   6.513   0.893  1.5927  0.3656  4.0422
   37MOL   H12913881   3.296   6.470   0.943  1.3156  0.2537  2.6420
   37MOL   H13013882   3.450   6.733   1.006 -0.8968  0.1088 -0.3682
   37MOL   H13113883   3.308   6.682   1.085 -0.0171  1.5881 -1.1821
   37MOL   H13213884   3.593   6.553   1.102 -0.2046 -4.3792  1.7641
   37MOL   H13313885   3.448   6.474   1.160  2.1314 -2.0559 -2.5881
   37MOL   H13413886   3.496   6.629   1.234 -1.0807  2.9660 -2.4848
   37MOL   C13513887   2.985   6.636   0.734  0.1909 -0.3226  0.5264
   37MOL   C13613888   2.891   6.651   0.615  0.3352 -0.9825 -0.1229
   37MOL   O13713889   2.807   6.767   0.620 -0.1465  0.4627  0.2797
   37MOL   C13813890   2.690   6.760   0.700 -0.5408 -0.2045  0.0507
   37MOL   C13913891   2.599   6.877   0.657  0.1820 -0.3336  0.9322
   37MOL   C14013892   2.556   6.854   0.511 -0.7184 -0.3555  0.5768
   37MOL   C14113893   2.474   6.973   0.458 -0.2621  0.3818 -0.4823
   37MOL   H14213894   2.931   6.628   0.828  2.1876  0.8454  1.8159
   37MOL   H14313895   3.025   6.535   0.727  0.9508 -0.0134  0.3639
   37MOL   H14413896   2.833   6.559   0.614 -0.7777 -0.2864 -0.9726
   37MOL   H14513897   2.714   6.761   0.806 -0.7249 -0.1154  0.0902
   37MOL   H14613898   2.634   6.670   0.675  0.2053 -0.6380 -0.0867
   37MOL   H14713899   2.653   6.972   0.653 -1.0183  0.2937 -1.3172
   37MOL   H14813900   2.511   6.896   0.719  1.7029 -0.8475  3.2725
   37MOL   H14913901   2.637   6.833   0.441 -0.3324 -2.3086  1.5804
   37MOL   H15013902   2.501   6.760   0.504  1.2158 -1.4710 -0.3177
   37MOL   H15113903   2.386   6.989   0.521  0.7827  0.6903  0.9131
   37MOL   H15213904   2.540   7.059   0.455  0.6311 -0.3329 -2.1473
   37MOL   H15313905   2.445   6.957   0.354  1.3265  0.1742 -0.9087
   37MOL   C15413906   2.966   6.642   0.479  0.7003  0.3106 -0.3295
   37MOL   C15513907   2.909   6.556   0.364  0.1734 -0.3760 -0.2122
   37MOL   O15613908   2.991   6.574   0.246 -0.1937  0.0162  0.5889
   37MOL   C15713909   3.109   6.486   0.228  0.0826 -0.2453  0.2624
   37MOL   C15813910   3.199   6.542   0.120  0.0100  0.0030 -0.0473
   37MOL   C15913911   3.248   6.688   0.133 -0.2488 -0.1480 -0.8354
   37MOL   C16013912   3.374   6.724   0.053 -0.3131 -0.8387 -0.4355
   37MOL   H16113913   3.068   6.613   0.508  0.1545  0.3387  1.6697
   37MOL   H16213914   2.975   6.747   0.453 -1.8658  0.6676  0.1123
   37MOL   H16313915   2.903   6.451   0.392  0.9526  0.3151  2.6913
   37MOL   H16413916   3.156   6.461   0.323  0.0235 -0.3420  0.2656
   37MOL   H16513917   3.051   6.398   0.203 -1.4397  0.9455 -0.5167
   37MOL   H16613918   3.140   6.535   0.028  0.9974 -2.2125 -0.5401
   37MOL   H16713919   3.278   6.468   0.109 -0.0116  0.0848 -0.7970
   37MOL   H16813920   3.165   6.757   0.115 -0.1329  0.0109 -0.7622
   37MOL   H16913921   3.277   6.704   0.237 -0.2117  1.5030 -1.0824
   37MOL   H17013922   3.420   6.818   0.085 -2.8210  0.0839  0.5610
   37MOL   H17113923   3.450   6.646   0.062 -0.4328 -0.8217  0.8428
   37MOL   H17213924   3.353   6.739   7.749 -1.6384 -0.5944 -0.1411
   37MOL   C17313925   2.764   6.605   0.315  0.2382 -0.0445 -0.8288
   37MOL   C17413926   2.678   6.503   0.250  0.1131  0.0726 -0.9406
   37MOL   O17513927   2.538   6.514   0.287 -0.1876  0.1214  0.3835
   37MOL   C17613928   2.505   6.444   0.404 -0.3536  0.1206 -0.9227
   37MOL   C17713929   2.352   6.405   0.395 -0.4795 -0.4948  0.1485
   37MOL   C17813930   2.292   6.348   0.526 -1.0001 -0.5467 -0.1849
   37MOL   C17913931   2.149   6.313   0.494 -0.5627  0.2792 -0.5454
   37MOL   H18013932   2.784   6.688   0.246 -0.8658  2.3919  1.6882
   37MOL   H18113933   2.711   6.632   0.406 -0.4229 -3.6838 -0.0664
   37MOL   H18213934   2.710   6.405   0.287 -2.0572  0.1693  1.4018
   37MOL   H18313935   2.508   6.510   0.491  0.6314 -0.8274 -0.2364
   37MOL   H18413936   2.562   6.355   0.429 -1.4210 -0.5917 -0.9876
   37MOL   H18513937   2.334   6.332   0.317  1.2969 -0.5132 -0.2571
   37MOL   H18613938   2.300   6.495   0.361 -1.3444 -0.9278  0.3257
   37MOL   H18713939   2.345   6.258   0.558 -0.9578 -0.9781 -1.4243
   37MOL   H18813940   2.306   6.433   0.593 -1.0375  0.4055 -1.3759
   37MOL   H18913941   2.100   6.269   0.582 -0.5716 -0.5181 -0.9433
   37MOL   H19013942   2.089   6.397   0.460 -1.6586  0.4807  1.7521
   37MOL   H19113943   2.135   6.242   0.412 -0.9060  1.1484 -1.2457
   37MOL   C19213944   2.699   6.497   0.102 -0.2686 -0.3068  0.0562
   37MOL   C19313945   2.657   6.369   0.034 -0.3479  0.3802  0.3955
   37MOL   O19413946   2.656   6.366   7.695 -0.2205 -0.2591  0.3390
   37MOL   C19513947   2.563   6.448   7.627  0.0533 -0.1608  0.1529
   37MOL   C19613948   2.540   6.387   7.482  0.1608 -0.4623  0.3195
   37MOL   C19713949   2.451   6.259   7.471 -0.8149  0.2579  0.4773
   37MOL   C19813950   2.456   6.196   7.322  0.2154 -0.0925 -0.7364
   37MOL   H19913951   2.800   6.523   0.070 -0.8553  1.8564 -0.1479
   37MOL   H20013952   2.638   6.575   0.056  1.0604  1.2265  0.8459
   37MOL   H20113953   2.566   6.330   0.079 -1.7792  0.1472 -2.5954
   37MOL   H20213954   2.590   6.553   7.628  0.7877 -0.2926 -2.4628
   37MOL   H20313955   2.466   6.444   7.676 -0.6737 -0.4932 -1.2656
   37MOL   H20413956   2.502   6.458   7.409  3.1200  0.3024 -0.5727
   37MOL   H20513957   2.639   6.357   7.448 -0.9330 -1.2535 -2.3375
   37MOL   H20613958   2.348   6.282   7.498 -0.4133  0.5074  1.8485
   37MOL   H20713959   2.484   6.184   7.544 -0.5946  0.1758  0.2954
   37MOL   H20813960   2.380   6.120   7.305 -0.0930  0.3960 -1.5513
   37MOL   H20913961   2.453   6.274   7.246 -0.9388  0.2308 -0.3667
   37MOL   H21013962   2.551   6.141   7.319  0.3528  0.1946 -2.0845
   37MOL   C21113963   2.768   6.253   0.048 -0.0093 -0.1803 -0.3551
   37MOL   C21213964   2.730   6.113   0.007  0.1833 -0.8239  0.4298
   37MOL   O21313965   2.849   6.033   7.778  0.7334 -0.5388 -0.6259
   37MOL   C21413966   2.911   6.050   7.653 -0.2715  0.0944  0.0037
   37MOL   C21513967   2.993   5.917   7.652  0.3854  0.4796  0.1958
   37MOL   C21613968   3.030   5.885   7.504 -0.4438  1.0444  0.2037
   37MOL   C21713969   3.091   5.743   7.481  0.0248  0.2084 -0.2211
   37MOL   H21813970   2.802   6.247   0.151 -2.6786 -0.5934  0.5341
   37MOL   H21913971   2.854   6.275   7.787  0.2862  0.8312  0.3870
   37MOL   H22013972   2.659   6.113   7.725  0.2060  1.0621  0.3865
   37MOL   H22113973   2.839   6.058   7.572  0.6602  2.1072 -0.6739
   37MOL   H22213974   2.983   6.132   7.653 -0.0573 -0.0925  1.0155
   37MOL   H22313975   3.081   5.927   7.716 -0.5382  0.9253  1.4224
   37MOL   H22413976   2.927   5.839   7.692  1.9622 -1.2734 -0.5260
   37MOL   H22513977   3.103   5.962   7.479 -0.3008  1.1629  0.9634
   37MOL   H22613978   2.944   5.902   7.440 -1.0947 -1.1931  0.4618
   37MOL   H22713979   3.187   5.725   7.530  0.3557  2.7056  0.1034
   37MOL   H22813980   3.098   5.720   7.374  1.3539  3.3458 -0.8706
   37MOL   H22913981   3.021   5.673   7.526  0.1316 -0.0020 -0.3759
   37MOL   C23013982   2.656   6.032   0.113 -0.0821 -0.1856 -0.4671
   37MOL   C23113983   2.615   5.884   0.068 -0.2157  0.5390 -0.4569
   37MOL   O23213984   2.511   5.838   0.150  0.3587 -0.3437  0.2150
   37MOL   C23313985   2.551   5.755   0.257  0.0626 -0.5992  0.5277
   37MOL   C23413986   2.423   5.726   0.326  0.2574 -0.5191  0.9268
   37MOL   C23513987   2.382   5.850   0.399  0.2789  0.2193  0.1009
   37MOL   C23613988   2.238   5.851   0.457 -0.0864  0.2356 -0.1701
   37MOL   H23713989   2.566   6.084   0.145 -0.7043 -1.9488  0.7716
   37MOL   H23813990   2.713   6.021   0.206 -0.2759  0.2008 -0.3015
   37MOL   H23913991   2.703   5.822   0.053 -0.6347 -0.0068 -0.7119
   37MOL   H24013992   2.603   5.667   0.218 -0.6105 -0.1525 -1.4320
   37MOL   H24113993   2.620   5.814   0.316 -1.3792 -0.3906  2.0372
   37MOL   H24213994   2.343   5.699   0.257 -0.1557  0.1765  1.1285
   37MOL   H24313995   2.434   5.641   0.393 -0.6553 -2.3210 -1.1608
   37MOL   H24413996   2.380   5.934   0.330  0.8271 -1.5018 -2.0489
   37MOL   H24513997   2.443   5.878   0.486  0.4566  0.2057 -0.0193
   37MOL   H24613998   2.173   5.844   0.370  1.6530 -1.9114 -1.3562
   37MOL   H24713999   2.222   5.937   0.522  4.2352 -0.4349  1.9828
   37MOL   H24814000   2.223   5.758   0.511 -3.2284  0.0508 -1.2962
   37MOL   C24914001   2.545   5.870   7.732 -0.2015  0.2708 -0.1761
   37MOL   C25014002   2.519   5.727   7.687 -0.0368 -0.5208 -0.4098
   37MOL   O25114003   2.650   5.668   7.674  0.0354  0.0553  0.0508
   37MOL   C25214004   2.667   5.531   7.678  0.2428 -0.4918 -0.0458
   37MOL   C25314005   2.814   5.512   7.686  0.5758  0.8098 -0.1377
   37MOL   C25414006   2.851   5.367   7.707  0.0654 -0.0029  0.4949
   37MOL   C25514007   2.994   5.342   7.756 -0.1815 -0.3488  0.0774
   37MOL   H25614008   2.612   5.916   7.658 -0.8964 -1.8403 -2.1729
   37MOL   H25714009   2.458   5.936   7.732 -0.8462 -0.5834  0.1471
   37MOL   H25814010   2.465   5.677   7.767 -0.1162  2.2984  1.3981
   37MOL   H25914011   2.614   5.479   7.599 -0.6381 -0.9150  0.8114
   37MOL   H26014012   2.628   5.488   7.770 -0.9688  0.4605 -0.1135
   37MOL   H26114013   2.869   5.549   7.600  1.7680  2.2788  1.2306
   37MOL   H26214014   2.853   5.565   7.773  2.7534 -0.7540 -0.1232
   37MOL   H26314015   2.789   5.322   7.785 -0.6576  2.9360  1.6775
   37MOL   H26414016   2.848   5.325   7.606  2.1529  1.9856 -0.4389
   37MOL   H26514017   3.051   5.385   7.673 -0.7130 -0.9222 -0.5822
   37MOL   H26614018   3.001   5.234   7.759  1.1393 -0.2964 -0.5437
   37MOL   H26714019   3.013   5.399   0.045  0.0209 -1.5132  0.7755
   37MOL   C26814020   2.437   5.726   7.557 -0.4495 -0.0464  0.0982
   37MOL   C26914021   2.294   5.771   7.576  0.1299 -0.2230  0.5470
   37MOL   O27014022   2.244   5.774   7.446 -0.1632 -0.1691  0.3821
   37MOL   C27114023   2.230   5.902   7.387 -0.8280  0.0398  0.4599
   37MOL   C27214024   2.222   5.885   7.230 -0.3203 -0.5753 -0.3202
   37MOL   C27314025   2.359   5.863   7.169 -0.4646  0.7389  0.1102
   37MOL   C27414026   2.349   5.834   7.022  0.0950 -0.7494 -0.3762
   37MOL   H27514027   2.483   5.780   7.475 -1.0906 -2.7972 -2.1742
   37MOL   H27614028   2.432   5.621   7.527 -0.9806  0.2843 -0.9960
   37MOL   H27714029   2.278   5.861   7.636 -3.4331 -1.2003  1.1721
   37MOL   H27814030   2.142   5.943   7.434  0.1461  1.3410  1.1836
   37MOL   H27914031   2.305   5.977   7.412 -0.6808 -0.5554  1.8721
   37MOL   H28014032   2.159   5.803   7.197 -1.1660  0.7224 -2.0589
   37MOL   H28114033   2.186   5.977   7.183  0.2637  0.2248  0.7740
   37MOL   H28214034   2.401   5.769   7.205 -2.0379  0.3596  0.9928
   37MOL   H28314035   2.438   5.934   7.194  0.6488 -0.7276  0.9135
   37MOL   H28414036   2.317   5.734   6.994 -1.8756  0.5088 -2.8923
   37MOL   H28514037   2.442   5.866   6.976 -0.7503  2.2072 -0.1923
   37MOL   H28614038   2.279   5.899   6.969  0.7234 -0.0028 -0.3140
   37MOL   C28714039   2.205   5.663   7.643  0.5461 -0.5308  0.4967
   37MOL   C28814040   2.072   5.713   7.691 -0.5921  0.0762 -0.5560
   37MOL   O28914041   2.090   5.803   0.002 -0.4541 -0.2571  0.4537
   37MOL   C29014042   1.996   5.909   7.801 -0.5030 -0.1213  0.1362
   37MOL   C29114043   2.015   5.977   0.131 -0.3852  0.4350 -0.8393
   37MOL   C29214044   2.162   6.032   0.152  0.3469  0.0316 -0.0715
   37MOL   C29314045   2.213   6.123   0.028 -0.3679  0.8426  0.0653
   37MOL   H29414046   2.266   5.615   7.720  1.2436 -0.3147  0.0796
   37MOL   H29514047   2.187   5.584   7.570  0.2053  0.1163 -0.1240
   37MOL   H29614048   2.024   5.766   7.608 -0.5197  1.4735  0.2781
   37MOL   H29714049   2.010   5.965   7.709  1.8888 -0.6767  0.1413
   37MOL   H29814050   1.899   5.860   7.784 -0.4583  0.2431 -1.2615
   37MOL   H29914051   1.986   5.909   0.211 -0.9669  0.7149 -0.8082
   37MOL   H30014052   1.946   6.060   0.148  0.4767  0.7690  1.2175
   37MOL   H30114053   2.224   5.943   0.162  1.0671  0.3319 -1.7531
   37MOL   H30214054   2.166   6.085   0.248 -0.8630 -0.1901  0.1016
   37MOL   H30314055   2.149   6.212   0.022 -1.8696 -0.1702  0.9409
   37MOL   H30414056   2.316   6.154   0.045 -0.2437 -0.4697  1.7933
   37MOL   H30514057   2.202   6.058   7.743  0.5307 -1.5541  1.7305
   37MOL   C30614058   1.982   5.597   7.752 -0.1325 -0.3741 -0.0063
   37MOL   C30714059   1.918   5.502   7.654 -0.7058 -0.2766 -0.0764
   37MOL   O30814060   1.830   5.581   7.575 -0.6483  0.8680  0.2353
   37MOL   C30914061   1.802   5.540   7.448  0.6388 -0.1391 -0.1098
   37MOL   C31014062   1.695   5.634   7.395  1.3827 -0.4415 -0.2082
   37MOL   C31114063   1.732   5.783   7.377 -0.9522  0.2777 -0.3111
   37MOL   C31214064   1.718   5.844   7.241  0.6539 -0.0206  0.9201
   37MOL   H31314065   2.055   5.542   0.010  1.5011  1.4880 -0.2111
   37MOL   H31414066   1.903   5.639   0.012  0.4779 -0.2550  0.6976
   37MOL   H31514067   1.998   5.471   7.586  0.3580 -0.2060  1.1406
   37MOL   H31614068   1.759   5.443   7.427 -0.9795  0.4750  0.3287
   37MOL   H31714069   1.892   5.543   7.387  1.0677 -1.2793  0.4455
   37MOL   H31814070   1.602   5.619   7.449 -0.3735  2.0239 -2.4138
   37MOL   H31914071   1.664   5.596   7.297  0.5603 -0.7833  0.1775
   37MOL   H32014072   1.680   5.846   7.450  0.7765  1.0268  0.2926
   37MOL   H32114073   1.837   5.793   7.404 -2.0185  1.5657  3.8160
   37MOL   H32214074   1.749   5.785   7.154 -0.9789 -0.2744  0.4845
   37MOL   H32314075   1.763   5.943   7.231  0.2449 -0.1243 -3.0878
   37MOL   H32414076   1.612   5.858   7.219  1.1389 -0.7881 -2.2848
   37MOL   C32514077   1.853   5.385   7.723  0.3002  0.2391 -0.1136
   37MOL   C32614078   1.947   5.266   7.761 -0.0483  0.0286 -0.0519
   37MOL   O32714079   2.007   5.307   0.080 -0.2185 -0.1373  0.5355
   37MOL   C32814080   2.149   5.274   0.091 -0.6912 -0.0219  0.3288
   37MOL   C32914081   2.211   5.357   0.209  0.0096  0.4237  0.3928
   37MOL   C33014082   2.144   5.328   0.341 -0.4033 -0.3718  0.0116
   37MOL   C33114083   2.225   5.383   0.457  0.0466  0.3689 -0.2325
   37MOL   H33214084   1.789   5.344   7.645 -1.5413  1.8532  0.5112
   37MOL   H33314085   1.781   5.418   7.798  2.3670  2.7237  0.8685
   37MOL   H33414086   2.024   5.251   7.685  1.2453 -0.3595  1.3045
   37MOL   H33514087   2.198   5.302   7.800 -1.0931  0.6348  0.3141
   37MOL   H33614088   2.159   5.166   0.100 -1.0651  0.0306  1.5647
   37MOL   H33714089   2.312   5.318   0.220  0.0471  0.9904  2.1471
   37MOL   H33814090   2.211   5.462   0.182  1.8993  0.9810  2.3989
   37MOL   H33914091   2.149   5.221   0.365  1.7830 -0.2173  0.3036
   37MOL   H34014092   2.037   5.351   0.335 -0.3441  0.6499  2.5021
   37MOL   H34114093   2.325   5.340   0.464 -1.1367 -2.4028  0.5758
   37MOL   H34214094   2.185   5.343   0.550  0.2321 -1.0567 -0.7464
   37MOL   H34314095   2.239   5.490   0.443 -0.8682  0.3581 -1.3158
   37MOL   C34414096   1.860   5.136   7.777 -0.5641 -0.7609  0.3310
   37MOL   C34514097   1.926   5.000   7.800  0.3722  0.1019 -0.0854
   37MOL   O34614098   2.006   4.972   7.690 -0.6428  0.2086 -0.0861
   37MOL   C34714099   2.116   4.885   7.725  0.1172 -0.3151  0.1619
   37MOL   C34814100   2.195   4.817   7.609  0.7356 -0.2447 -0.4532
   37MOL   C34914101   2.104   4.727   7.522 -0.2755 -0.1225  0.3611
   37MOL   C35014102   2.179   4.688   7.398  0.3201 -0.8888 -0.5085
   37MOL   H35114103   1.787   5.158   0.053 -0.7734 -1.2281  0.2691
   37MOL   H35214104   1.799   5.126   7.687 -1.2293  1.1463  0.5484
   37MOL   H35314105   1.982   5.006   0.092 -1.5646 -0.8347  1.1662
   37MOL   H35414106   2.083   4.806   7.793  1.2285  0.3623  1.5222
   37MOL   H35514107   2.188   4.949   7.777  1.8794  0.0808 -2.6558
   37MOL   H35614108   2.276   4.759   7.655 -0.1748 -0.5020  0.8656
   37MOL   H35714109   2.231   4.907   7.560  0.0448  1.3911  1.9812
   37MOL   H35814110   2.074   4.637   7.574 -1.0121 -0.5794 -0.8340
   37MOL   H35914111   2.015   4.781   7.490 -0.0609 -0.7167 -1.3160
   37MOL   H36014112   2.202   4.772   7.332  2.8340 -0.0323  1.3614
   37MOL   H36114113   2.133   4.607   7.341  0.9623 -2.5382  1.2740
   37MOL   H36214114   2.279   4.649   7.419  0.2929 -1.2630 -1.0471
   37MOL   C36314115   1.821   4.886   0.010 -0.0172  0.8460  0.1244
   37MOL   C36414116   1.716   4.905   0.123  1.0444 -0.2906  0.3369
   37MOL   O36514117   1.625   4.801   0.129  0.1312 -0.2509  0.7034
   37MOL   C36614118   1.529   4.799   0.230 -0.0679  0.1899 -0.0489
   37MOL   C36714119   1.483   4.658   0.233 -0.4917 -0.4624 -0.7657
   37MOL   C36814120   1.592   4.564   0.289  0.2495  0.0567  0.1490
   37MOL   C36914121   1.540   4.427   0.329  0.3782 -1.0190 -0.2911
   37MOL   H37014122   1.866   4.787   0.026  0.1952  0.4170 -2.8733
   37MOL   H37114123   1.765   4.872   7.719 -0.0321  3.9318 -0.3740
   37MOL   H37214124   1.650   4.989   0.099  2.3360  1.1587  1.7593
   37MOL   H37314125   1.462   4.878   0.195  1.3033  0.5953 -1.8516
   37MOL   H37414126   1.558   4.819   0.333  0.7285  0.7413 -0.3768
   37MOL   H37514127   1.448   4.637   0.131  3.3226  1.2185 -2.5053
   37MOL   H37614128   1.405   4.650   0.308  1.0424  1.4452  1.0907
   37MOL   H37714129   1.649   4.601   0.374  3.0483 -0.4237 -1.4438
   37MOL   H37814130   1.673   4.564   0.216  2.4720  0.0647  2.5309
   37MOL   H37914131   1.507   4.375   0.239 -1.7092  1.6572 -1.1398
   37MOL   H38014132   1.629   4.373   0.361  2.1735  2.0000  0.0662
   37MOL   H38114133   1.472   4.425   0.414  0.6443 -0.8195 -0.0740
   37MOL   H38214134   1.763   4.924   0.219  1.1778  0.7225  0.0744
   38MOL     C114135   4.877   6.866   0.339  0.5198  0.5841  0.3365
   38MOL     C214136   4.862   7.014   0.323 -0.6789 -0.6643 -0.3011
   38MOL     O314137   4.930   7.080   0.435  0.6543  0.6714 -0.5579
   38MOL     C414138   4.870   7.053   0.562 -0.4206  0.2888 -0.5894
   38MOL     C514139   4.929   7.151   0.669  0.6514 -0.4313  0.4363
   38MOL     C614140   4.889   7.301   0.650 -0.0666 -0.3384 -0.0820
   38MOL     C714141   4.965   7.401   0.737 -0.4186 -0.2824 -0.0232
   38MOL     H814142   4.817   6.815   0.414  0.7162  2.5891  1.9145
   38MOL     H914143   4.839   6.828   0.244  0.4733  1.7532 -0.1276
   38MOL    H1014144   4.759   7.046   0.337  0.0943  1.0441  1.9503
   38MOL    H1114145   4.763   7.075   0.557 -0.3000  0.8695 -0.6877
   38MOL    H1214146   4.874   6.946   0.582  0.4406  0.0069 -2.1513
   38MOL    H1314147   5.038   7.142   0.679  0.6627  2.4754  4.2596
   38MOL    H1414148   4.880   7.132   0.764 -0.8859  0.1924 -0.2191
   38MOL    H1514149   4.786   7.321   0.677  0.7554  0.2475  2.7504
   38MOL    H1614150   4.908   7.319   0.544  1.1017  1.0302  0.3335
   38MOL    H1714151   4.909   7.414   0.829 -0.3870  1.1045 -0.1966
   38MOL    H1814152   4.971   7.497   0.687 -2.5332 -0.6917 -1.1099
   38MOL    H1914153   5.068   7.385   0.768 -0.0699  0.4187 -0.7977
   38MOL    H2014154   4.982   6.837   0.344  1.3195  3.4140  0.6971
   38MOL    C2114155   4.914   7.073   0.191  0.2509 -0.0285 -0.4562
   38MOL    C2214156   4.873   7.220   0.163  0.1034  0.6133  0.1427
   38MOL    O2314157   4.978   7.264   0.072 -0.1623 -0.4115  0.5240
   38MOL    C2414158   5.070   7.338   0.143  0.1273 -0.0961 -0.8561
   38MOL    C2514159   5.205   7.308   0.078 -0.2116 -0.1602  0.7195
   38MOL    C2614160   5.311   7.394   0.148  0.2784  0.0649 -0.1447
   38MOL    C2714161   5.454   7.384   0.082  0.3766 -0.5884  0.4890
   38MOL    H2814162   4.882   7.012   0.106 -2.4166  0.0689  0.4117
   38MOL    H2914163   5.022   7.084   0.194  0.0780  1.8815 -0.5123
   38MOL    H3014164   4.864   7.281   0.252  3.6295  1.7320 -0.1858
   38MOL    H3114165   5.088   7.314   0.248  0.9612  0.5608 -0.8487
   38MOL    H3214166   5.036   7.442   0.141  1.2891  0.3019 -0.3570
   38MOL    H3314167   5.237   7.205   0.066  3.6308  1.2183 -1.8370
   38MOL    H3414168   5.213   7.335   7.774  1.9608 -0.4677  0.7942
   38MOL    H3514169   5.275   7.497   0.144 -0.4495 -0.1867 -0.0039
   38MOL    H3614170   5.322   7.376   0.255  0.9191  2.0605  0.1441
   38MOL    H3714171   5.461   7.419   7.781  0.0646 -0.1058  0.6284
   38MOL    H3814172   5.522   7.449   0.137  1.9088  0.4161 -2.5040
   38MOL    H3914173   5.488   7.281   0.073  0.5031 -0.5763  0.8009
   38MOL    C4014174   4.732   7.233   0.093 -0.8745 -0.6328 -0.9135
   38MOL    C4114175   4.675   7.375   0.070  0.2739 -0.0095  0.0359
   38MOL    O4214176   4.611   7.424   0.191 -0.4041 -0.5445 -0.5571
   38MOL    C4314177   4.693   7.517   0.270  0.4177  0.7000 -0.1085
   38MOL    C4414178   4.594   7.593   0.364 -0.2396  0.2015 -0.4451
   38MOL    C4514179   4.652   7.701   0.462 -0.1014 -0.3960  0.2340
   38MOL    C4614180   4.540   7.777   0.527 -0.4930  0.4073  0.0427
   38MOL    H4714181   4.656   7.188   0.157 -1.5128  0.2819 -1.0211
   38MOL    H4814182   4.740   7.170   0.004 -0.1746 -0.5599 -0.9059
   38MOL    H4914183   4.751   7.445   0.034 -1.5425  1.6818 -0.6370
   38MOL    H5014184   4.751   7.591   0.215  0.8434  1.0625  0.8201
   38MOL    H5114185   4.756   7.456   0.334  0.6985  0.2999 -0.7583
   38MOL    H5214186   4.540   7.530   0.434  1.0847 -0.2826  0.1604
   38MOL    H5314187   4.531   7.649   0.296 -0.8962 -0.1676 -0.1399
   38MOL    H5414188   4.712   7.770   0.402 -0.0264 -0.4048  0.2979
   38MOL    H5514189   4.718   7.653   0.535  1.1740  0.1935 -0.5058
   38MOL    H5614190   4.490   7.711   0.597 -0.7111  0.4885 -0.0363
   38MOL    H5714191   4.589   0.058   0.579  3.5351 -1.2440 -0.9027
   38MOL    H5814192   4.474   0.018   0.452 -0.0052  1.3277  0.1224
   38MOL    C5914193   4.561   7.386   7.777 -0.2600 -0.3954  0.1837
   38MOL    C6014194   4.494   7.519   7.760 -0.3413  0.2585 -0.5035
   38MOL    O6114195   4.567   7.610   7.684 -0.4669  0.2834 -0.2275
   38MOL    C6214196   4.638   7.707   7.749 -0.9024  0.1702  0.1513
   38MOL    C6314197   4.691   0.011   7.641 -0.2437 -0.4960 -0.2400
   38MOL    C6414198   4.756   0.141   7.696 -0.4303  0.1568 -0.7515
   38MOL    C6514199   4.776   0.249   7.583  0.1474  0.2787  0.2892
   38MOL    H6614200   4.601   7.351   7.682 -0.1231  2.0514 -0.7053
   38MOL    H6714201   4.483   7.320   0.010 -0.7137  0.2681  0.4440
   38MOL    H6814202   4.484   7.558   0.059  0.5784  1.3147 -0.8125
   38MOL    H6914203   4.727   7.670   7.800 -1.1013 -0.4229  0.0724
   38MOL    H7014204   4.576   7.753   0.025 -1.6692  0.6371 -0.7296
   38MOL    H7114205   4.755   7.766   7.566 -0.2664  0.2267 -0.7052
   38MOL    H7214206   4.598   0.042   7.594 -0.8622 -2.8973 -0.6904
   38MOL    H7314207   4.687   0.183   7.770  0.3884 -1.7255  1.1282
   38MOL    H7414208   4.853   0.124   7.741 -0.6878  1.0665  0.1626
   38MOL    H7514209   4.687   0.281   7.529 -0.0541  2.6085  1.9262
   38MOL    H7614210   4.824   0.342   7.615  1.3978 -0.4223  0.5025
   38MOL    H7714211   4.837   0.203   7.506  0.6383 -0.2918  1.0077
   38MOL    C7814212   4.354   7.499   7.696 -0.0314 -0.1257  1.2237
   38MOL    C7914213   4.274   7.629   7.684 -0.4425  0.2344 -0.3735
   38MOL    O8014214   4.274   7.692   0.011 -0.1565 -0.7203 -0.3301
   38MOL    C8114215   4.300   0.028   0.016 -0.1330  0.0565 -0.2310
   38MOL    C8214216   4.327   0.084   0.161 -0.0387 -0.0405  1.1171
   38MOL    C8314217   4.338   0.240   0.165 -0.1579  0.4335  0.4096
   38MOL    C8414218   4.330   0.297   0.306  0.1325  0.0435 -0.3655
   38MOL    H8514219   4.290   7.434   7.756 -2.2248 -0.9707 -1.8781
   38MOL    H8614220   4.367   7.466   7.593  0.1465  0.7943  0.9503
   38MOL    H8714221   4.317   7.694   7.608  1.6363 -1.8591 -1.0573
   38MOL    H8814222   4.214   0.085   7.783  0.3709  1.4565  0.7859
   38MOL    H8914223   4.378   0.051   7.745  0.4576  0.0801  0.4065
   38MOL    H9014224   4.249   0.045   0.226 -0.3407  0.9839  1.3761
   38MOL    H9114225   4.425   0.045   0.189  0.6980  1.0942  0.1671
   38MOL    H9214226   4.254   0.269   0.102 -0.8547 -0.6455  0.8085
   38MOL    H9314227   4.425   0.272   0.109  0.5550 -0.2211  1.1369
   38MOL    H9414228   4.321   0.406   0.302  0.8493  0.1035 -0.3585
   38MOL    H9514229   4.246   0.265   0.366 -1.1296  4.9469  0.7297
   38MOL    H9614230   4.424   0.261   0.349 -0.9461  0.8376  2.7723
   38MOL    C9714231   4.134   7.581   7.645 -0.3025 -0.3915  0.2719
   38MOL    C9814232   4.047   7.687   7.570  0.5416 -0.5336 -0.1266
   38MOL    O9914233   4.109   7.705   7.444  0.1737 -0.3552 -0.0603
   38MOL   C10014234   4.111   0.038   7.388  0.3636  0.4435 -0.0539
   38MOL   C10114235   4.219   0.126   7.455  0.2868 -0.4642  0.0960
   38MOL   C10214236   4.235   0.256   7.374  0.1132 -0.6877 -0.6895
   38MOL   C10314237   4.363   0.331   7.397  0.2589 -0.1410 -0.0414
   38MOL   H10414238   4.073   7.548   7.728 -0.4672 -1.8107 -0.4084
   38MOL   H10514239   4.142   7.488   7.588 -2.1836 -0.5052  0.1599
   38MOL   H10614240   4.040   7.774   7.635 -1.0494 -1.2656  0.7328
   38MOL   H10714241   4.010   0.076   7.400  0.4546  0.1900  1.7039
   38MOL   H10814242   4.123   0.032   7.280 -0.8097 -0.7439 -0.1355
   38MOL   H10914243   4.318   0.078   7.453  0.5600  0.1166 -0.5513
   38MOL   H11014244   4.194   0.133   7.561  0.5532 -0.1672  0.1388
   38MOL   H11114245   4.152   0.324   7.392 -1.3833 -3.1612  2.2549
   38MOL   H11214246   4.218   0.230   7.270  0.0375 -1.6966 -0.4308
   38MOL   H11314247   4.354   0.431   7.353  0.4854 -0.8625 -1.7518
   38MOL   H11414248   4.390   0.352   7.501 -1.2604 -0.0886  0.3528
   38MOL   H11514249   4.447   0.282   7.347 -1.6574 -0.5697 -2.9736
   38MOL   C11614250   3.907   7.627   7.529 -0.7564 -0.1434  0.1367
   38MOL   C11714251   3.805   7.592   7.643  0.2511 -0.6558  0.4776
   38MOL   O11814252   3.807   7.715   7.702 -0.7337 -0.0242 -0.3080
   38MOL   C11914253   3.823   7.709   0.041  0.2616  0.2904 -1.2865
   38MOL   C12014254   3.689   7.722   0.108 -0.0147  0.2180  0.1375
   38MOL   C12114255   3.688   7.792   0.243  0.0608 -0.7350 -0.0460
   38MOL   C12214256   3.791   7.747   0.349 -1.1968 -0.3555 -0.3797
   38MOL   H12314257   3.860   7.705   7.469 -0.8300 -0.4525 -0.2123
   38MOL   H12414258   3.915   7.538   7.467 -3.4770 -0.1312 -0.3252
   38MOL   H12514259   3.851   7.513   7.703  0.3164 -0.7379  0.3181
   38MOL   H12614260   3.888   7.784   0.087  0.7351 -0.1332 -1.2581
   38MOL   H12714261   3.868   7.615   0.073  1.6859  1.7540  1.2202
   38MOL   H12814262   3.646   7.622   0.119  0.7716  0.0415  1.6058
   38MOL   H12914263   3.627   7.780   0.039  0.3723  0.8523  0.3217
   38MOL   H13014264   3.707   0.095   0.218  1.3172 -1.3097 -1.5209
   38MOL   H13114265   3.589   7.800   0.288  1.0058 -0.3076  2.0212
   38MOL   H13214266   3.788   7.800   0.445 -1.2738 -1.5088  0.2659
   38MOL   H13314267   3.892   7.772   0.317 -0.8774  0.9558  1.5415
   38MOL   H13414268   3.783   7.642   0.377  0.4261 -0.1459  0.9722
   38MOL   C13514269   3.659   7.551   7.592 -0.0200  0.5861  0.1411
   38MOL   C13614270   3.650   7.409   7.527 -0.1241 -0.0415  0.1617
   38MOL   O13714271   3.523   7.355   7.564 -0.8552  0.3306 -0.0012
   38MOL   C13814272   3.519   7.264   7.676  0.1230  0.1800 -0.0567
   38MOL   C13914273   3.377   7.235   7.703  0.3738 -0.7167  0.1714
   38MOL   C14014274   3.367   7.111   0.004 -0.1280  0.0604 -0.3983
   38MOL   C14114275   3.219   7.071   0.022  0.0375 -0.6393  0.3821
   38MOL   H14214276   3.624   7.644   7.547 -0.3056 -0.0671 -1.0154
   38MOL   H14314277   3.596   7.555   7.681 -0.4375 -0.2643 -0.1046
   38MOL   H14414278   3.728   7.340   7.561 -0.4154 -0.2711  0.3655
   38MOL   H14514279   3.573   7.309   7.759  0.9261 -0.9272  0.0314
   38MOL   H14614280   3.575   7.173   7.655 -0.5696 -0.4320  0.7356
   38MOL   H14714281   3.324   7.212   7.610  1.5292  1.1962 -1.0031
   38MOL   H14814282   3.328   7.319   7.751 -1.3569 -1.4087 -0.3423
   38MOL   H14914283   3.411   7.024   7.758  1.0791  0.8634 -0.7914
   38MOL   H15014284   3.424   7.130   0.095  0.0334 -2.2134 -0.0142
   38MOL   H15114285   3.165   7.162   0.046  0.8339 -0.1246  0.2720
   38MOL   H15214286   3.169   7.031   7.735  0.6141 -1.3761  0.3860
   38MOL   H15314287   3.206   7.000   0.103 -0.9613 -1.1160 -0.1928
   38MOL   C15414288   3.670   7.426   7.376  0.4143  0.3279 -1.2448
   38MOL   C15514289   3.694   7.297   7.301 -0.3675  0.6515  0.4618
   38MOL   O15614290   3.769   7.326   7.181  0.7178  0.0435 -0.3227
   38MOL   C15714291   3.845   7.213   7.149 -0.3069  0.1295  0.6802
   38MOL   C15814292   3.867   7.213   6.999 -0.1375 -0.3108 -0.0838
   38MOL   C15914293   3.953   7.340   6.965  0.0661  0.2284  0.2283
   38MOL   C16014294   4.066   7.305   6.857 -0.2186 -0.0136  0.8832
   38MOL   H16114295   3.757   7.490   7.363  1.1935 -0.1590  1.3260
   38MOL   H16214296   3.605   7.501   7.333  1.0187  0.9043 -1.1667
   38MOL   H16314297   3.760   7.237   7.363 -0.9302 -0.6374 -0.1781
   38MOL   H16414298   3.936   7.211   7.210  0.0356  2.1284  0.2578
   38MOL   H16514299   3.796   7.122   7.183  0.6250 -0.0139  1.6639
   38MOL   H16614300   3.769   7.223   6.952 -0.8681 -0.6419  1.3365
   38MOL   H16714301   3.907   7.114   6.975 -1.5615 -1.2078  1.1853
   38MOL   H16814302   3.882   7.416   6.933 -0.8784 -0.7533 -0.0260
   38MOL   H16914303   4.009   7.376   7.051 -0.8772  2.1492  0.0536
   38MOL   H17014304   4.143   7.245   6.905 -0.9365  0.0780  2.1786
   38MOL   H17114305   4.026   7.245   6.775  0.7360  0.4855  0.0418
   38MOL   H17214306   4.104   7.400   6.820  0.5091 -0.3353  0.8062
   38MOL   C17314307   3.557   7.227   7.274  0.6935 -0.1376 -0.1770
   38MOL   C17414308   3.445   7.305   7.198  0.3601  0.6792 -0.3313
   38MOL   O17514309   3.475   7.354   7.064 -0.5017  0.0694 -0.2415
   38MOL   C17614310   3.533   7.477   7.054  0.5465 -0.3851 -0.0296
   38MOL   C17714311   3.552   7.516   6.914  0.5881 -0.1187  0.5104
   38MOL   C17814312   3.628   7.649   6.891 -0.6236 -0.0121 -0.0744
   38MOL   C17914313   3.685   7.677   6.751 -0.4646  0.2530  0.2236
   38MOL   H18014314   3.506   7.191   7.364 -2.1812 -1.2604 -2.1906
   38MOL   H18114315   3.567   7.138   7.213  0.8873 -0.0342 -0.2931
   38MOL   H18214316   3.420   7.391   7.260  1.0142 -0.9513  2.2982
   38MOL   H18314317   3.623   7.479   7.116 -1.6365  0.1686  3.2555
   38MOL   H18414318   3.460   7.538   7.106  1.4821 -0.4197  1.3754
   38MOL   H18514319   3.456   7.524   6.864  1.6455 -0.0331 -1.5998
   38MOL   H18614320   3.592   7.426   6.866  1.7787  0.0152  1.2104
   38MOL   H18714321   3.573   7.736   6.926  1.5832  1.9564 -1.3905
   38MOL   H18814322   3.717   7.651   6.954 -1.1893 -1.2420  0.7891
   38MOL   H18914323   3.763   7.604   6.727 -1.2624 -0.3539 -0.5666
   38MOL   H19014324   3.615   7.685   6.667  0.2499  0.2322 -0.3817
   38MOL   H19114325   3.726   7.777   6.759 -0.1807  0.3135 -1.7361
   38MOL   C19214326   3.326   7.210   7.177 -0.0652  0.7357 -0.4049
   38MOL   C19314327   3.235   7.203   7.305 -0.4069 -0.0903 -0.2329
   38MOL   O19414328   3.177   7.330   7.311 -0.1284 -0.4586 -0.0607
   38MOL   C19514329   3.174   7.385   7.442 -0.4758  0.4180  0.4441
   38MOL   C19614330   3.111   7.527   7.436  0.1601 -0.0869  0.2266
   38MOL   C19714331   3.110   7.595   7.565 -0.0235 -0.2253 -0.2513
   38MOL   C19814332   3.004   7.538   7.662 -0.2407 -0.1086  0.7990
   38MOL   H19914333   3.355   7.113   7.135  0.1990 -0.2393  1.9584
   38MOL   H20014334   3.258   7.247   7.101 -1.7400  0.6882  1.0462
   38MOL   H20114335   3.295   7.189   7.395  0.1280  1.5112 -0.3352
   38MOL   H20214336   3.276   7.386   7.481 -0.5513  1.0803  0.6456
   38MOL   H20314337   3.122   7.308   7.497 -0.1444 -0.6559 -0.7266
   38MOL   H20414338   3.165   7.589   7.365 -0.0748 -2.0464 -1.7316
   38MOL   H20514339   3.006   7.528   7.405 -1.1720 -0.0036  4.4284
   38MOL   H20614340   3.076   7.697   7.546  0.3454 -0.2975 -1.3396
   38MOL   H20714341   3.214   7.596   7.598 -0.2158  0.4525  0.3620
   38MOL   H20814342   2.910   7.529   7.609 -0.8614  2.3402  1.4392
   38MOL   H20914343   3.043   7.443   7.700  1.3228  0.1243 -0.1502
   38MOL   H21014344   2.986   7.598   7.751  0.7451 -1.4137  1.9206
   38MOL   C21114345   3.132   7.094   7.289 -0.2319 -0.3583 -0.1706
   38MOL   C21214346   3.196   6.951   7.274 -0.7603  0.0169 -0.9088
   38MOL   O21314347   3.282   6.931   7.389  0.6948  0.2927 -0.7768
   38MOL   C21414348   3.387   6.842   7.377 -0.2707  0.2574  0.0085
   38MOL   C21514349   3.488   6.889   7.478  0.3213  0.7649 -0.3546
   38MOL   C21614350   3.628   6.826   7.467  0.2452  0.9103 -0.5783
   38MOL   C21714351   3.728   6.894   7.557 -0.3872 -0.1642 -0.1904
   38MOL   H21814352   3.066   7.118   7.206 -1.5354 -0.1112  0.9141
   38MOL   H21914353   3.066   7.090   7.375  0.4994  1.5813  0.5083
   38MOL   H22014354   3.253   6.935   7.183 -0.3834  1.5278 -0.9463
   38MOL   H22114355   3.353   6.739   7.389  3.3943 -1.2524 -1.6775
   38MOL   H22214356   3.432   6.868   7.281 -1.2894 -2.0450 -1.1397
   38MOL   H22314357   3.498   6.997   7.476 -0.0018  0.8519  1.4625
   38MOL   H22414358   3.447   6.861   7.575 -0.5277  1.1845 -0.5895
   38MOL   H22514359   3.669   6.848   7.368  2.6655  1.1698  0.4291
   38MOL   H22614360   3.624   6.719   7.486  0.5300  0.9187 -0.4625
   38MOL   H22714361   3.706   6.877   7.663 -1.2111  0.5327 -0.2360
   38MOL   H22814362   3.728   7.002   7.540 -1.7998  0.0000  0.6711
   38MOL   H22914363   3.832   6.871   7.537 -0.9781 -3.1461 -0.0912
   38MOL   C23014364   3.087   6.835   7.288  0.6034 -0.3639  0.8348
   38MOL   C23114365   2.987   6.821   7.171  0.0260  0.3046  0.4626
   38MOL   O23214366   3.060   6.784   7.054  0.0413 -0.1151 -0.3246
   38MOL   C23314367   3.006   6.836   6.934  0.3624  0.0483 -0.0809
   38MOL   C23414368   3.067   6.770   6.810 -0.4571  0.5823 -0.0134
   38MOL   C23514369   3.057   6.831   6.668  0.8791  0.3694 -0.6499
   38MOL   C23614370   3.114   6.737   6.559  0.3885  0.0826 -0.8805
   38MOL   H23714371   3.034   6.849   7.382  1.4353  1.9062  0.9961
   38MOL   H23814372   3.124   6.733   7.292  0.9083 -0.3405 -0.8496
   38MOL   H23914373   2.962   6.925   7.150  1.2922  0.5220 -0.0130
   38MOL   H24014374   2.898   6.835   6.923  0.3360 -0.0141  0.1886
   38MOL   H24114375   3.040   6.940   6.939  2.1217 -0.5691  1.6327
   38MOL   H24214376   3.174   6.762   6.826 -0.6123 -0.6659  0.4914
   38MOL   H24314377   3.031   6.667   6.811  0.4863  0.2485  0.4404
   38MOL   H24414378   3.110   6.926   6.661 -1.2560  1.7350  1.2090
   38MOL   H24514379   2.955   6.854   6.638  0.7075  1.3668  0.6499
   38MOL   H24614380   3.058   6.645   6.539  1.8885 -1.4508  1.7109
   38MOL   H24714381   3.217   6.706   6.573  0.1850 -0.0386  0.3569
   38MOL   H24814382   3.118   6.796   6.467  0.0679  2.3843  0.5603
   38MOL   C24914383   2.858   6.742   7.190 -0.0667 -0.3764  0.9714
   38MOL   C25014384   2.742   6.828   7.246  0.1818 -0.2246  0.3541
   38MOL   O25114385   2.801   6.870   7.370  0.2518  0.1482 -0.2352
   38MOL   C25214386   2.772   7.008   7.388 -1.5547 -0.1790  0.7851
   38MOL   C25314387   2.828   7.066   7.527 -0.1083  0.8063 -0.2897
   38MOL   C25414388   2.764   7.201   7.560 -0.2186  0.8827 -0.3461
   38MOL   C25514389   2.796   7.262   7.696 -0.5287 -0.6413 -0.6495
   38MOL   H25614390   2.865   6.657   7.258 -2.0284 -0.5729  0.9554
   38MOL   H25714391   2.830   6.688   7.099 -0.1936  0.6966  0.3679
   38MOL   H25814392   2.717   6.913   7.182  1.7773  0.4016  0.5657
   38MOL   H25914393   2.664   7.013   7.396 -1.5233 -0.5958  1.4472
   38MOL   H26014394   2.806   7.069   7.304 -4.8642 -1.0326 -1.2797
   38MOL   H26114395   2.804   7.002   7.611  0.6817 -0.8157 -1.2787
   38MOL   H26214396   2.937   7.076   7.531 -0.0581  3.1784 -4.4629
   38MOL   H26314397   2.783   7.271   7.479  3.4304  1.1289  0.6444
   38MOL   H26414398   2.655   7.190   7.562 -0.1423 -0.1255 -1.1929
   38MOL   H26514399   2.897   7.230   7.722 -1.6116 -2.9589  0.9218
   38MOL   H26614400   2.727   7.222   7.770  0.7653  2.8772  2.6484
   38MOL   H26714401   2.796   7.370   7.709  1.6124 -1.0523  3.5796
   38MOL   C26814402   2.615   6.744   7.293 -0.1419 -0.1947 -0.1196
   38MOL   C26914403   2.493   6.765   7.209 -0.4622  0.6671 -0.0373
   38MOL   O27014404   2.525   6.722   7.072  0.1544  0.1383 -0.0653
   38MOL   C27114405   2.501   6.823   6.979 -0.2445  1.5135 -0.2773
   38MOL   C27214406   2.528   6.761   6.843 -0.8362 -0.0497 -0.3904
   38MOL   C27314407   2.508   6.867   6.728 -1.1138  0.0889 -0.0063
   38MOL   C27414408   2.549   6.817   6.587 -0.0319 -0.0514 -0.1697
   38MOL   H27514409   2.648   6.641   7.306  2.6514  0.6669  0.0520
   38MOL   H27614410   2.585   6.765   7.395 -0.3959 -0.1699 -0.2015
   38MOL   H27714411   2.477   6.873   7.207  0.0008  0.8104  2.1381
   38MOL   H27814412   2.406   6.875   6.986 -1.4911 -0.8115  0.4707
   38MOL   H27914413   2.580   6.898   6.993 -0.8492  1.9679  0.7749
   38MOL   H28014414   2.625   6.711   6.846 -1.3804 -1.0694  2.7908
   38MOL   H28114415   2.461   6.677   6.831 -2.7167  1.2352  0.7610
   38MOL   H28214416   2.572   6.955   6.740  0.9961 -1.4877  0.5716
   38MOL   H28314417   2.406   6.904   6.739 -0.6926  0.8315  1.6203
   38MOL   H28414418   2.654   6.789   6.592 -0.4387 -1.7487 -0.8870
   38MOL   H28514419   2.518   6.887   6.510  0.5235  0.8984  0.4449
   38MOL   H28614420   2.500   6.720   6.588  1.2995 -0.7356  0.1320
   38MOL   C28714421   2.369   6.686   7.265 -0.2764 -0.9232  0.2011
   38MOL   C28814422   2.295   6.761   7.381 -0.1947  0.1147  0.9020
   38MOL   O28914423   2.259   6.684   7.496  0.1158  0.1131  0.0333
   38MOL   C29014424   2.155   6.582   7.481 -0.0184 -0.2869 -0.0849
   38MOL   C29114425   2.104   6.554   7.620  0.1754  0.1684 -0.5840
   38MOL   C29214426   2.209   6.490   7.718  0.2042  0.1192  0.3962
   38MOL   C29314427   2.156   6.494   0.058 -0.4225 -0.3677  0.0143
   38MOL   H29414428   2.400   6.585   7.294 -1.4889 -1.0696  1.0079
   38MOL   H29514429   2.304   6.663   7.181  0.6025  1.6372 -1.2261
   38MOL   H29614430   2.369   6.831   7.422 -0.6891  2.5021 -2.1113
   38MOL   H29714431   2.071   6.611   7.418 -1.5970 -0.0830  2.0612
   38MOL   H29814432   2.205   6.496   7.437 -0.3034 -0.5412  0.0922
   38MOL   H29914433   2.015   6.491   7.617  0.3182  0.0153 -1.7816
   38MOL   H30014434   2.074   6.654   7.651  1.6632  0.1928  0.8701
   38MOL   H30114435   2.301   6.547   7.719  1.6066 -2.0959  1.9103
   38MOL   H30214436   2.230   6.386   7.697  0.3595  0.4410 -1.0930
   38MOL   H30314437   2.138   6.599   0.080  2.0162  0.1085 -0.1416
   38MOL   H30414438   2.058   6.447   0.058 -0.3408 -0.5366  0.9195
   38MOL   H30514439   2.237   6.467   0.125 -0.6683 -3.8094 -0.9713
   38MOL   C30614440   2.173   6.843   7.327 -0.1226  0.0750  0.4683
   38MOL   C30714441   2.117   6.962   7.409 -0.0757  0.3237 -0.7101
   38MOL   O30814442   1.991   7.009   7.350  0.4502  0.5459 -0.4807
   38MOL   C30914443   1.912   7.090   7.428  0.4527  0.5253  0.7826
   38MOL   C31014444   1.790   7.131   7.352 -0.2205  0.2842  0.1765
   38MOL   C31114445   1.688   7.019   7.323  0.4311 -0.5866 -0.8114
   38MOL   C31214446   1.549   7.067   7.276  0.3896 -0.1974 -0.3075
   38MOL   H31314447   2.186   6.881   7.226 -4.0656 -0.8073 -0.4503
   38MOL   H31414448   2.086   6.781   7.308 -2.2553  2.2270  2.7720
   38MOL   H31514449   2.095   6.932   7.511 -1.3865 -2.0682 -1.6674
   38MOL   H31614450   1.983   7.172   7.434 -0.0851  1.3461 -2.9561
   38MOL   H31714451   1.891   7.044   7.525  0.7746 -0.3943  0.4240
   38MOL   H31814452   1.819   7.181   7.260  0.0501 -0.3290 -0.0734
   38MOL   H31914453   1.732   7.205   7.407 -1.4481  0.8309 -1.8012
   38MOL   H32014454   1.724   6.958   7.241  0.7215 -0.0608 -1.0764
   38MOL   H32114455   1.674   6.955   7.410  0.1010  1.9790  1.1023
   38MOL   H32214456   1.474   7.086   7.353  0.1161  2.9372 -1.2935
   38MOL   H32314457   1.502   6.994   7.211  1.6738 -2.1183  0.8463
   38MOL   H32414458   1.564   7.154   7.212 -2.9295  0.5845 -0.1142
   38MOL   C32514459   2.224   7.075   7.405 -0.4984 -0.2862 -0.4986
   38MOL   C32614460   2.272   7.119   7.543  0.0039  0.2190 -0.4081
   38MOL   O32714461   2.371   7.023   7.588  0.6522 -0.8115  0.6777
   38MOL   C32814462   2.320   6.937   7.687  1.0643  0.0966  0.9385
   38MOL   C32914463   2.439   6.868   7.760  0.1950 -1.1853  0.2450
   38MOL   C33014464   2.517   6.983   0.025 -0.4805  0.5016 -0.3194
   38MOL   C33114465   2.635   6.929   0.108  0.0692  0.3211 -0.3999
   38MOL   H33214466   2.167   7.158   7.363  0.0797 -0.5508 -1.8306
   38MOL   H33314467   2.311   7.062   7.340 -1.4246 -0.0422 -1.7960
   38MOL   H33414468   2.191   7.133   7.615 -0.0084  1.4833 -0.6484
   38MOL   H33514469   2.252   6.860   7.649 -0.1115  1.7802 -0.4818
   38MOL   H33614470   2.252   6.984   7.758 -1.2090  1.7371 -2.1613
   38MOL   H33714471   2.405   6.794   0.031  0.0083 -0.8041  0.5442
   38MOL   H33814472   2.499   6.818   7.685  0.9985  3.5432 -2.4732
   38MOL   H33914473   2.460   7.036   0.101 -0.4085  2.2869 -1.5037
   38MOL   H34014474   2.565   7.055   7.760  2.6969 -1.6762 -0.4991
   38MOL   H34114475   2.687   7.014   0.150 -1.6424  1.4107 -0.4203
   38MOL   H34214476   2.699   6.868   0.044 -0.7962 -0.7489 -0.2837
   38MOL   H34314477   2.604   6.867   0.193  0.4311  1.0613  0.2722
   38MOL   C34414478   2.349   7.249   7.536  1.3709 -0.1715 -0.5161
   38MOL   C34514479   2.266   7.380   7.568 -0.5776  0.0129  0.8510
   38MOL   O34614480   2.152   7.394   7.478  0.7880 -0.4655 -0.3696
   38MOL   C34714481   2.034   7.433   7.534 -0.4224 -0.0482 -0.2110
   38MOL   C34814482   1.918   7.454   7.429  0.7583  0.1937  0.1771
   38MOL   C34914483   1.785   7.499   7.498 -0.1920 -0.6237  0.1576
   38MOL   C35014484   1.664   7.529   7.401  0.1835  0.9565 -0.1253
   38MOL   H35114485   2.412   7.247   7.624  0.3142 -0.2319  0.2465
   38MOL   H35214486   2.403   7.264   7.442 -0.1541 -0.3447 -1.4409
   38MOL   H35314487   2.237   7.380   7.673 -0.0988  0.0608  0.9861
   38MOL   H35414488   2.056   7.525   7.589 -0.9529  0.1888 -0.3904
   38MOL   H35514489   1.996   7.361   7.607 -2.0679  0.0914 -0.8905
   38MOL   H35614490   1.890   7.363   7.376  0.8693 -0.1960  0.7887
   38MOL   H35714491   1.954   7.525   7.353  3.2151 -0.8871  0.3021
   38MOL   H35814492   1.746   7.418   7.560  0.0726  0.3041  1.5583
   38MOL   H35914493   1.809   7.583   7.563  1.6490 -0.3874 -0.8029
   38MOL   H36014494   1.673   7.469   7.311  2.2139 -0.2198  0.8246
   38MOL   H36114495   1.678   7.629   7.359  1.8333  1.6734  2.0187
   38MOL   H36214496   1.564   7.524   7.445  0.2686  0.1793 -0.0245
   38MOL   C36314497   2.355   7.500   7.538 -0.2792 -0.0004 -0.1533
   38MOL   C36414498   2.480   7.508   7.624  0.4521  0.3215  0.1495
   38MOL   O36514499   2.535   7.645   7.617  0.2991  0.3496 -0.0225
   38MOL   C36614500   2.608   7.680   7.492 -0.8636  0.3140 -0.6954
   38MOL   C36714501   2.646   0.025   7.487  0.7572 -0.1517 -0.2141
   38MOL   C36814502   2.524   0.119   7.499 -0.2097 -0.8600 -0.6632
   38MOL   C36914503   2.570   0.269   7.474  0.3243  0.4694  0.2418
   38MOL   H37014504   2.299   7.590   7.565 -2.1175 -0.5419 -2.0145
   38MOL   H37114505   2.378   7.508   7.431  0.0634  1.0211 -0.0112
   38MOL   H37214506   2.555   7.431   7.605 -0.0993 -0.6423  1.7842
   38MOL   H37314507   2.550   7.649   7.405  1.0500  0.5202 -2.0660
   38MOL   H37414508   2.702   7.625   7.486 -1.0433 -0.1369  0.4576
   38MOL   H37514509   2.683   0.054   7.388 -0.0563  1.0037 -0.1865
   38MOL   H37614510   2.723   0.050   7.560 -0.4886  0.1397  1.0024
   38MOL   H37714511   2.478   0.116   7.598 -0.3003  0.7421 -0.6337
   38MOL   H37814512   2.441   0.095   7.433 -0.9330  0.6706 -0.3377
   38MOL   H37914513   2.626   0.270   7.381  0.3774 -0.7241  0.2526
   38MOL   H38014514   2.478   0.326   7.461  0.1690  0.0903 -0.3552
   38MOL   H38114515   2.636   0.307   7.552  3.6509 -2.4202 -1.0073
   38MOL   H38214516   2.454   7.507   7.730 -1.5725  2.3049 -0.3069
   39MOL     C114517   6.982   3.791   7.368  0.4907 -0.8119  0.6679
   39MOL     C214518   6.974   3.942   7.390 -0.0875  0.2240  0.4096
   39MOL     O314519   6.877   3.991   7.476 -0.3208 -0.4983 -0.2569
   39MOL     C414520   6.747   3.951   7.450  0.5427 -0.3468 -0.0023
   39MOL     C514521   6.691   4.021   7.323  0.7853  0.0765 -0.6799
   39MOL     C614522   6.535   4.033   7.320  0.0385 -0.7418  0.1803
   39MOL     C714523   6.492   4.112   7.197  0.4164 -1.3118  0.1636
   39MOL     H814524   7.076   3.761   7.321 -0.8853 -1.1587 -1.9710
   39MOL     H914525   6.964   3.738   7.462  2.1988 -0.1656  1.3769
   39MOL    H1014526   6.961   3.996   7.297 -2.3335  0.1745  0.6740
   39MOL    H1114527   6.749   3.842   7.446 -0.5348 -0.5112  2.9517
   39MOL    H1214528   6.689   3.967   7.541  2.2677 -0.7452  1.1985
   39MOL    H1314529   6.726   3.974   7.231 -1.4984 -0.2724 -1.4059
   39MOL    H1414530   6.732   4.122   7.313 -1.0728  0.6376 -3.1651
   39MOL    H1514531   6.497   4.086   7.407  0.1338 -2.8669  1.5494
   39MOL    H1614532   6.495   3.932   7.316  2.6420 -1.8354  0.7710
   39MOL    H1714533   6.384   4.123   7.205  0.6279  0.9722  0.3846
   39MOL    H1814534   6.506   4.054   7.106  0.9769 -1.1356  0.1302
   39MOL    H1914535   6.543   4.208   7.207 -2.4947  0.3055  0.0684
   39MOL    H2014536   6.910   3.768   7.289  2.4187 -1.0723 -1.0545
   39MOL    C2114537   7.115   3.989   7.433  0.7535 -0.7022  0.1965
   39MOL    C2214538   7.112   4.146   7.455  0.5838 -0.8560 -0.6114
   39MOL    O2314539   7.248   4.184   7.488  0.4507 -0.1429 -0.4097
   39MOL    C2414540   7.262   4.240   7.617  0.3118  0.3637 -0.5015
   39MOL    C2514541   7.412   4.263   7.654  0.9897 -0.4781 -1.0494
   39MOL    C2614542   7.487   4.133   7.673 -0.0430 -1.1795  0.5465
   39MOL    C2714543   7.631   4.157   7.628 -0.2828 -0.2700  0.3378
   39MOL    H2814544   7.196   3.966   7.365  0.7381  0.4082 -0.2087
   39MOL    H2914545   7.143   3.928   7.518  1.7667 -0.6943 -0.1335
   39MOL    H3014546   7.044   4.174   7.536 -1.9026 -2.6697 -1.9976
   39MOL    H3114547   7.237   4.161   7.688  0.2819 -0.7295 -1.7136
   39MOL    H3214548   7.189   4.320   7.630  0.2386  0.0940  0.8369
   39MOL    H3314549   7.452   4.306   7.563  3.2504  0.2794  0.2648
   39MOL    H3414550   7.418   4.336   7.735  0.0911  0.4120 -1.7651
   39MOL    H3514551   7.476   4.083   7.769 -1.2759  0.4163  1.2606
   39MOL    H3614552   7.440   4.069   7.598 -4.1319  1.5763  0.6300
   39MOL    H3714553   7.672   4.235   7.692  0.1793 -0.9170  0.8322
   39MOL    H3814554   7.704   4.076   7.624  0.3538  0.2771  0.6752
   39MOL    H3914555   7.628   4.205   7.530 -2.1132 -1.1477 -0.0622
   39MOL    C4014556   7.091   4.236   7.334 -0.2693  0.0839 -0.5754
   39MOL    C4114557   7.043   4.384   7.375 -0.0071 -0.5616  0.3501
   39MOL    O4214558   6.907   4.370   7.404 -0.7318  0.1494  0.2731
   39MOL    C4314559   6.872   4.441   7.527 -0.1551 -0.0524 -0.6339
   39MOL    C4414560   6.723   4.417   7.537  0.1564  0.0325 -0.0369
   39MOL    C4514561   6.661   4.502   7.428 -0.4853 -0.1138 -0.3395
   39MOL    C4614562   6.506   4.499   7.424  0.1169  0.3799  0.1387
   39MOL    H4714563   7.006   4.205   7.274 -0.1009 -0.6616 -0.4364
   39MOL    H4814564   7.181   4.237   7.273  1.0195  2.1481  1.3026
   39MOL    H4914565   7.103   4.419   7.458  2.8358  0.0206 -1.8653
   39MOL    H5014566   6.890   4.548   7.538 -0.3411 -0.2532  1.7487
   39MOL    H5114567   6.900   4.382   7.614  1.5874  1.0963 -0.3890
   39MOL    H5214568   6.691   4.457   7.633 -1.6002 -2.3751  0.4299
   39MOL    H5314569   6.688   4.314   7.537 -1.9901  0.7181 -1.2571
   39MOL    H5414570   6.690   4.461   7.331 -1.2175  0.3313 -0.7565
   39MOL    H5514571   6.684   4.608   7.441  0.0583 -0.3435  0.5887
   39MOL    H5614572   6.460   4.402   7.410 -1.1783  0.8612  0.9888
   39MOL    H5714573   6.475   4.544   7.518 -0.4023 -0.3174  0.3013
   39MOL    H5814574   6.466   4.564   7.345 -2.4634  0.1766  1.2365
   39MOL    C5914575   7.046   4.488   7.257 -0.3411  0.7615 -0.1177
   39MOL    C6014576   7.182   4.548   7.228 -0.3898  0.1588  0.8485
   39MOL    O6114577   7.199   4.575   7.091  0.3741  0.3419  0.2323
   39MOL    C6214578   7.335   4.594   7.049 -0.8480 -0.0119  0.4541
   39MOL    C6314579   7.346   4.613   6.897 -0.4633  0.3297 -0.0798
   39MOL    C6414580   7.260   4.513   6.822  0.4663  0.4999  0.6832
   39MOL    C6514581   7.278   4.510   6.671 -0.0193 -0.0425 -0.1873
   39MOL    H6614582   7.011   4.438   7.167 -1.3082 -0.3561  0.8488
   39MOL    H6714583   6.976   4.570   7.268 -0.5207  0.5127  0.6760
   39MOL    H6814584   7.263   4.479   7.252 -0.8151 -0.5054  0.4071
   39MOL    H6914585   7.400   4.508   7.068  1.0200  1.3293  0.2669
   39MOL    H7014586   7.388   4.678   7.093  0.1079  0.4447 -1.5275
   39MOL    H7114587   7.325   4.714   6.864 -1.0277  0.0843 -0.4795
   39MOL    H7214588   7.452   4.593   6.880 -1.0099  0.0359 -3.3037
   39MOL    H7314589   7.267   4.411   6.861 -0.1885  0.2083  0.0621
   39MOL    H7414590   7.156   4.541   6.838  0.4382  0.7037  0.1454
   39MOL    H7514591   7.196   4.458   6.620  0.1539  0.5820 -1.1296
   39MOL    H7614592   7.273   4.611   6.631  2.0938 -0.7133 -2.2634
   39MOL    H7714593   7.371   4.473   6.627 -0.0495  0.3875 -0.6213
   39MOL    C7814594   7.198   4.685   7.294  0.1458  0.5677  0.0488
   39MOL    C7914595   7.222   4.689   7.449 -0.9472 -0.2654  0.2658
   39MOL    O8014596   7.210   4.826   7.485 -0.0733  0.0898 -0.5572
   39MOL    C8114597   7.124   4.846   7.590 -0.2123  0.6341 -0.1332
   39MOL    C8214598   7.131   4.988   7.647 -0.2247  0.7739 -0.1882
   39MOL    C8314599   7.046   5.003   7.771  0.3094  0.2768  0.3571
   39MOL    C8414600   7.021   5.147   0.015 -0.6797  0.6205 -0.3061
   39MOL    H8514601   7.109   4.746   7.278 -0.9253 -0.1184  3.1167
   39MOL    H8614602   7.266   4.750   7.239  1.5909 -0.3902  0.6780
   39MOL    H8714603   7.149   4.632   7.507  1.0575 -1.7658  1.3436
   39MOL    H8814604   7.133   4.777   7.674  1.2653 -0.0574 -0.8561
   39MOL    H8914605   7.018   4.836   7.566  0.1725 -4.0299 -0.2561
   39MOL    H9014606   7.233   5.006   7.679  0.1488  0.0858 -0.9690
   39MOL    H9114607   7.107   5.062   7.570  2.0660  2.8183  1.0047
   39MOL    H9214608   7.079   4.936   0.049  0.9327 -1.3590 -1.2414
   39MOL    H9314609   6.949   4.958   7.748  1.4335 -1.6020 -0.9208
   39MOL    H9414610   6.954   5.163   0.099  1.2715 -0.9592  1.6031
   39MOL    H9514611   7.103   5.213   0.042 -0.6778 -0.3244  2.1225
   39MOL    H9614612   6.973   5.196   7.731 -1.8677  2.0920  1.1699
   39MOL    C9714613   7.365   4.647   7.500 -0.3996 -0.0534  0.1705
   39MOL    C9814614   7.403   4.662   7.648 -0.4976  0.0172  0.3635
   39MOL    O9914615   7.312   4.576   7.711 -0.8421  0.3434 -0.0120
   39MOL   C10014616   7.286   4.608   0.044  0.5905 -0.1048  0.3060
   39MOL   C10114617   7.176   4.524   0.100  0.3077 -0.3255  0.1718
   39MOL   C10214618   7.033   4.545   0.024 -0.3173 -0.8562  0.1928
   39MOL   C10314619   6.929   4.449   0.074 -0.2883  0.3044  0.3767
   39MOL   H10414620   7.440   4.696   7.438 -1.1948  2.5472  1.1717
   39MOL   H10514621   7.368   4.543   7.471 -0.5409  0.2751 -1.0458
   39MOL   H10614622   7.396   4.765   7.684  0.1762 -0.2195  1.1744
   39MOL   H10714623   7.269   4.715   0.035 -0.9885 -0.1628  2.2798
   39MOL   H10814624   7.374   4.604   0.107 -0.4223  1.2761  1.8253
   39MOL   H10914625   7.163   4.556   0.203  0.7285  2.1037 -0.4860
   39MOL   H11014626   7.212   4.421   0.095 -1.4376 -1.0092  1.2437
   39MOL   H11114627   7.053   4.540   7.718  0.0262 -0.4238  0.2300
   39MOL   H11214628   7.002   4.648   0.041  0.1797 -0.3481 -1.7576
   39MOL   H11314629   6.965   4.349   0.049  1.1549  0.5678  1.2865
   39MOL   H11414630   6.931   4.456   0.183  1.5592 -0.1491  0.3847
   39MOL   H11514631   6.828   4.461   0.036  0.3034 -1.4546 -1.8701
   39MOL   C11614632   7.545   4.610   7.683  0.2299 -0.1762  0.0195
   39MOL   C11714633   7.661   4.697   7.635  0.8190 -0.4374 -0.0122
   39MOL   O11814634   7.658   4.820   7.703  0.3389  0.2100 -0.4246
   39MOL   C11914635   7.661   4.928   7.614 -0.0043  0.1587  0.0768
   39MOL   C12014636   7.761   5.043   7.656 -0.5243  0.0665 -0.2196
   39MOL   C12114637   0.098   5.002   7.705  0.3677  0.1071  0.0551
   39MOL   C12214638   0.183   5.102   7.782 -0.1352  0.3504  0.1923
   39MOL   H12314639   7.555   4.594   7.790  0.4068  2.3002  0.4140
   39MOL   H12414640   7.552   4.515   7.631 -0.4635 -0.3493  0.2319
   39MOL   H12514641   7.669   4.708   7.527 -0.2534  0.8109  0.0207
   39MOL   H12614642   7.559   4.966   7.624 -0.9828 -2.7596  1.5754
   39MOL   H12714643   7.673   4.907   7.508 -1.0265 -2.2481  0.4007
   39MOL   H12814644   7.724   5.120   7.724 -1.1333 -0.5478  0.1523
   39MOL   H12914645   7.771   5.110   7.571  0.5336  0.1523 -0.0294
   39MOL   H13014646   0.080   4.915   7.768  1.6796 -0.8820 -0.9025
   39MOL   H13114647   0.164   4.962   7.628  1.5600 -0.9035  1.5567
   39MOL   H13214648   0.200   5.185   7.713  0.7699  0.0966  0.1070
   39MOL   H13314649   0.275   5.068   0.027 -2.3100 -1.3068  3.4197
   39MOL   H13414650   0.123   5.141   0.062 -0.7920  0.8186 -0.4996
   39MOL   C13514651   7.795   4.633   7.668  0.0249 -0.7806 -0.4003
   39MOL   C13614652   0.046   4.504   7.596  0.4580  0.1223 -0.9027
   39MOL   O13714653   0.062   4.530   7.463 -0.3065 -0.0541  0.7174
   39MOL   C13814654   0.071   4.421   7.367 -0.2895 -0.4882 -0.5415
   39MOL   C13914655   0.054   4.478   7.228 -0.5177  0.1988 -0.2806
   39MOL   C14014656   7.723   4.552   7.208  0.6203  0.6006 -0.1292
   39MOL   C14114657   7.700   4.593   7.062  0.3357 -0.5358 -0.7392
   39MOL   H14214658   0.013   4.622   7.774 -0.9701 -0.6320 -0.1957
   39MOL   H14314659   0.070   4.707   7.643  1.2848 -1.3095  1.7532
   39MOL   H14414660   7.771   4.429   7.616 -2.0110  2.0406 -2.8539
   39MOL   H14514661   7.792   4.352   7.389  0.0325 -0.6649  0.0666
   39MOL   H14614662   0.171   4.378   7.373  0.7291  1.6968 -1.0165
   39MOL   H14714663   0.063   4.407   7.146  2.8862  0.8796 -0.5565
   39MOL   H14814664   0.136   4.550   7.216 -0.3533  0.2106  0.9110
   39MOL   H14914665   7.639   4.487   7.233  0.8703  0.8492  1.4266
   39MOL   H15014666   7.712   4.634   7.279  0.2184  0.0462  0.4612
   39MOL   H15114667   7.607   4.649   7.055  0.0958 -0.7312  0.6892
   39MOL   H15214668   7.785   4.652   7.027  1.1586 -0.8416  0.6937
   39MOL   H15314669   7.687   4.512   6.991 -0.3363 -0.5306 -0.6212
   39MOL   C15414670   0.186   4.469   7.652  0.5537  0.5993 -0.6800
   39MOL   C15514671   0.203   4.398   7.796  0.7370  0.4338  0.7569
   39MOL   O15614672   0.330   4.424   0.046 -0.2106 -0.0331 -0.4149
   39MOL   C15714673   0.342   4.550   0.111  0.0051  0.1151 -0.3536
   39MOL   C15814674   0.485   4.561   0.168 -0.6998  0.5998  0.1971
   39MOL   C15914675   0.537   4.444   0.251 -0.0105 -0.2208  0.6951
   39MOL   C16014676   0.686   4.449   0.292 -0.2433  0.3800 -0.2288
   39MOL   H16114677   0.247   4.560   7.649  0.7364  0.5115  0.2959
   39MOL   H16214678   0.242   4.410   7.580 -0.5593  0.8275 -1.7425
   39MOL   H16314679   0.133   4.433   0.071  1.1243  1.8897  0.4576
   39MOL   H16414680   0.315   4.637   0.052 -1.9162  0.2367  0.6679
   39MOL   H16514681   0.264   4.564   0.185 -0.2398 -1.0390 -0.3810
   39MOL   H16614682   0.475   4.660   0.212  0.9622  0.6005  0.6012
   39MOL   H16714683   0.556   4.588   0.090 -0.0978 -1.4087  0.0250
   39MOL   H16814684   0.474   4.432   0.339 -1.2192  1.1384  0.0351
   39MOL   H16914685   0.520   4.351   0.196 -0.2899 -0.1000  0.5740
   39MOL   H17014686   0.735   4.469   0.197 -1.0183 -0.4144 -0.8163
   39MOL   H17114687   0.714   4.544   0.336  2.0248  0.4535 -1.7789
   39MOL   H17214688   0.736   4.362   0.335  1.4117  1.7204  0.5888
   39MOL   C17314689   0.197   4.245   7.786  0.1722  0.0632 -0.2882
   39MOL   C17414690   0.207   4.166   0.124  0.3944  0.4515 -0.6575
   39MOL   O17514691   0.080   4.172   0.187 -0.4481  0.3296  0.1173
   39MOL   C17614692   0.072   4.261   0.295 -0.7577 -0.1782  0.1476
   39MOL   C17714693   7.730   4.271   0.346 -0.3136 -0.0660  0.3726
   39MOL   C17814694   7.630   4.330   0.245  0.1846  0.1115 -0.4000
   39MOL   C17914695   7.485   4.322   0.282 -0.2069 -0.4582  0.0825
   39MOL   H18014696   0.291   4.225   7.735  1.5548 -1.5750  2.7765
   39MOL   H18114697   0.117   4.222   7.715 -0.5719  2.1469 -0.1651
   39MOL   H18214698   0.283   4.219   0.180  1.3428 -2.0339  0.4741
   39MOL   H18314699   0.119   4.357   0.274 -0.6654 -0.1633  0.4208
   39MOL   H18414700   0.124   4.210   0.376  0.5615  0.7077 -0.1127
   39MOL   H18514701   7.723   4.333   0.435  0.4301  0.0085  0.3757
   39MOL   H18614702   7.700   4.172   0.382  0.4677 -0.1562  0.7682
   39MOL   H18714703   7.656   4.433   0.221 -0.1407  0.2441 -0.2042
   39MOL   H18814704   7.636   4.272   0.154 -1.3197 -3.2115  1.5213
   39MOL   H18914705   7.450   4.395   0.355 -2.7327 -2.1107  0.5673
   39MOL   H19014706   7.426   4.349   0.194 -1.1995  0.7463  1.0959
   39MOL   H19114707   7.471   4.223   0.325  0.2714 -0.5311  0.0700
   39MOL   C19214708   0.248   4.020   0.102  0.1668  0.5164 -0.0129
   39MOL   C19314709   0.258   3.943   0.233 -0.4625  0.2706 -0.1742
   39MOL   O19414710   0.277   3.808   0.200 -0.3105  0.5080 -0.1218
   39MOL   C19514711   0.152   3.738   0.190  1.0827 -0.0320 -0.4626
   39MOL   C19614712   0.156   3.605   0.122 -0.0611  0.1992 -0.3862
   39MOL   C19714713   0.016   3.559   0.096  0.5210 -0.2988 -0.5591
   39MOL   C19814714   7.797   3.414   0.048 -1.1238 -0.3492 -0.7485
   39MOL   H19914715   0.335   4.015   0.037  0.3498  0.8493  0.2066
   39MOL   H20014716   0.179   3.974   0.032  0.5065 -3.2734  1.9933
   39MOL   H20114717   0.167   3.961   0.291  0.2478  0.5550  0.8669
   39MOL   H20214718   0.073   3.794   0.140 -0.5346  0.1140  2.1313
   39MOL   H20314719   0.114   3.724   0.292  1.2210  1.8911 -0.1273
   39MOL   H20414720   0.213   3.602   0.029  0.0118 -0.1684 -0.3343
   39MOL   H20514721   0.214   3.532   0.179 -0.2144  3.6931  4.5245
   39MOL   H20614722   7.765   3.621   0.023 -0.6425 -0.0920  0.4439
   39MOL   H20714723   7.750   3.570   0.181  0.4075 -0.7043 -0.5936
   39MOL   H20814724   0.015   3.336   0.121 -1.4725 -1.1770 -1.5219
   39MOL   H20914725   7.693   3.395   0.025 -0.5677 -0.8350 -2.9985
   39MOL   H21014726   0.040   3.397   7.751  2.5151  0.6022  0.6441
   39MOL   C21114727   0.379   3.976   0.329  0.3042 -0.3873 -0.1277
   39MOL   C21214728   0.374   3.916   0.475 -0.3572 -0.6108 -0.2743
   39MOL   O21314729   0.393   3.776   0.457 -0.0475 -0.3993 -0.0649
   39MOL   C21414730   0.299   3.698   0.525  0.4076 -0.1561 -0.3341
   39MOL   C21514731   0.320   3.547   0.498 -0.1566 -0.4027 -0.5748
   39MOL   C21614732   0.440   3.482   0.568 -0.2628 -0.0704  0.1918
   39MOL   C21714733   0.447   3.332   0.544 -0.6488  0.3374 -1.1846
   39MOL   H21814734   0.397   4.083   0.342  1.0858 -0.4064 -0.9738
   39MOL   H21914735   0.475   3.952   0.284  0.7206  1.0326 -0.0293
   39MOL   H22014736   0.273   3.928   0.514 -0.8272  0.3395 -1.7423
   39MOL   H22114737   0.310   3.719   0.631 -2.7505  1.2182 -0.2146
   39MOL   H22214738   0.199   3.726   0.492 -0.7369 -1.5929  1.7520
   39MOL   H22314739   0.231   3.491   0.531 -0.0776  0.2176  0.7086
   39MOL   H22414740   0.318   3.521   0.392 -3.4410  0.4516 -0.7821
   39MOL   H22514741   0.424   3.497   0.675  1.2934 -0.5393  0.5057
   39MOL   H22614742   0.531   3.530   0.533 -1.2345  2.3105  0.8266
   39MOL   H22714743   0.353   3.284   0.571  0.1263 -0.5611  0.0397
   39MOL   H22814744   0.517   3.282   0.611 -1.8510  0.8761  0.5006
   39MOL   H22914745   0.478   3.312   0.442 -0.8535 -0.9099 -1.0101
   39MOL   C23014746   0.480   3.970   0.568 -0.2191  0.1679 -0.0906
   39MOL   C23114747   0.627   3.972   0.529 -0.5402 -0.5639  0.1638
   39MOL   O23214748   0.705   4.056   0.615 -0.0735 -0.1603  0.9186
   39MOL   C23314749   0.716   4.188   0.558  1.0327  0.6852  0.3552
   39MOL   C23414750   0.802   4.268   0.662  0.5094  0.6739  0.1320
   39MOL   C23514751   0.823   4.410   0.627 -0.7658 -0.5838 -1.0515
   39MOL   C23614752   0.914   4.476   0.735  0.0768  0.3267 -0.0903
   39MOL   H23714753   0.475   3.919   0.664 -2.0831 -0.3081 -0.4330
   39MOL   H23814754   0.451   4.074   0.576 -2.0978 -0.4568  1.4082
   39MOL   H23914755   0.637   4.010   0.428  0.4126 -2.4728 -0.4837
   39MOL   H24014756   0.756   4.185   0.456 -1.8167 -2.1084 -0.7956
   39MOL   H24114757   0.618   4.233   0.545  1.3195  1.1282 -0.2970
   39MOL   H24214758   0.747   4.268   0.755 -1.9612  3.4423 -1.2442
   39MOL   H24314759   0.894   4.214   0.684 -0.5496 -0.2726  2.3121
   39MOL   H24414760   0.730   4.467   0.620 -0.6390 -0.4111 -1.3530
   39MOL   H24514761   0.869   4.424   0.529  0.4970  1.0199 -0.2579
   39MOL   H24614762   1.018   4.445   0.720 -0.6280 -2.9577  1.2855
   39MOL   H24714763   0.890   4.443   0.836 -1.0909 -1.6062 -0.9613
   39MOL   H24814764   0.919   4.584   0.722 -0.6272  0.3331 -0.3104
   39MOL   C24914765   0.685   3.834   0.533  0.2146 -0.1718 -0.5386
   39MOL   C25014766   0.831   3.815   0.489  0.0861 -0.0665  0.1664
   39MOL   O25114767   0.830   3.844   0.355 -0.3431 -0.0972 -0.6746
   39MOL   C25214768   0.915   3.945   0.314 -0.0835  0.0798  0.2477
   39MOL   C25314769   0.894   3.984   0.162 -0.6160  0.5413 -0.1404
   39MOL   C25414770   0.787   4.092   0.147  0.3451 -0.2570  0.1970
   39MOL   C25514771   0.770   4.117   7.798  0.2903  0.6332  0.1936
   39MOL   H25614772   0.628   3.763   0.472 -0.6843  1.1098 -1.2177
   39MOL   H25714773   0.680   3.806   0.639  1.9087  1.0791 -0.1220
   39MOL   H25814774   0.895   3.886   0.542  2.3489 -2.0440  0.1560
   39MOL   H25914775   1.010   3.893   0.322  0.5047  1.5531  3.4342
   39MOL   H26014776   0.906   4.028   0.384  2.0059 -0.0557  0.6907
   39MOL   H26114777   0.988   4.017   0.118  1.2477 -1.2735  2.3171
   39MOL   H26214778   0.866   3.895   0.106  0.4856 -0.9580  1.6630
   39MOL   H26314779   0.689   4.068   0.190  0.7325  0.2746  1.3749
   39MOL   H26414780   0.819   4.182   0.199  3.4884 -0.5039 -1.2308
   39MOL   H26514781   0.862   4.131   7.741  0.5478 -0.3350  0.3719
   39MOL   H26614782   0.696   4.195   7.783  0.1567  0.1829 -1.5463
   39MOL   H26714783   0.734   4.021   7.762  0.6612  0.7961 -0.6288
   39MOL   C26814784   0.900   3.682   0.504 -1.1089 -0.5022  0.5835
   39MOL   C26914785   0.916   3.624   0.645  0.2221  0.2192  0.4229
   39MOL   O27014786   0.961   3.493   0.630  0.0252 -0.1453 -0.4828
   39MOL   C27114787   0.873   3.391   0.673 -0.7082 -0.0613  0.4570
   39MOL   C27214788   0.948   3.255   0.654 -0.9578  0.3048 -0.0303
   39MOL   C27314789   0.868   3.136   0.707 -0.2178 -0.2961 -0.3005
   39MOL   C27414790   0.945   3.006   0.707  0.4532  0.7395 -0.1406
   39MOL   H27514791   0.851   3.605   0.445  0.0025 -0.2331 -0.7185
   39MOL   H27614792   0.993   3.708   0.453 -1.0782 -1.0142  0.3763
   39MOL   H27714793   0.819   3.623   0.695 -0.3203 -1.6088 -0.6339
   39MOL   H27814794   0.847   3.407   0.777 -1.9039  0.9743  0.0135
   39MOL   H27914795   0.780   3.401   0.616 -0.4581 -0.0175  0.0593
   39MOL   H28014796   0.954   3.232   0.547 -0.6772  0.0849  0.0343
   39MOL   H28114797   1.046   3.261   0.699 -0.8299  0.0412 -0.2761
   39MOL   H28214798   0.778   3.125   0.647  1.1697 -0.0890 -2.4863
   39MOL   H28314799   0.837   3.150   0.811  3.5655 -1.0168  1.0012
   39MOL   H28414800   0.985   2.992   0.606  1.7887 -0.4094  0.5236
   39MOL   H28514801   0.887   2.924   0.747  1.9153 -0.2710 -0.0358
   39MOL   H28614802   1.041   3.001   0.760  0.3619 -2.6383 -0.1993
   39MOL   C28714803   1.028   3.689   0.723  0.1028 -0.6815  0.2351
   39MOL   C28814804   1.048   3.620   0.862 -0.0826 -0.1998  0.4766
   39MOL   O28914805   0.945   3.661   0.947 -0.5658  0.0147 -0.1669
   39MOL   C29014806   0.897   3.562   1.029 -0.0276 -0.3713 -0.5592
   39MOL   C29114807   0.781   3.617   1.108  0.4636  0.1282  0.1322
   39MOL   C29214808   0.820   3.729   1.201  0.0126 -0.2815  0.0796
   39MOL   C29314809   0.709   3.771   1.297  0.5091 -0.6845 -0.0254
   39MOL   H29414810   1.003   3.794   0.736 -1.5098 -1.4067  3.7035
   39MOL   H29514811   1.119   3.682   0.663 -0.0208  0.2725 -0.0605
   39MOL   H29614812   1.039   3.512   0.849  1.7316 -0.3391  0.2011
   39MOL   H29714813   0.861   3.476   0.973  0.9528 -0.1677 -1.5259
   39MOL   H29814814   0.975   3.531   1.098  0.0996 -1.4551 -1.1754
   39MOL   H29914815   0.736   3.541   1.170  0.9479 -2.9618 -3.1509
   39MOL   H30014816   0.693   3.643   1.050  0.7460 -0.3141 -0.4981
   39MOL   H30114817   0.844   3.815   1.139  0.7998 -0.3265  0.3165
   39MOL   H30214818   0.911   3.703   1.256  0.4228  4.3218  1.7213
   39MOL   H30314819   0.730   3.861   1.355  1.5146  0.2104 -1.7341
   39MOL   H30414820   0.615   3.800   1.250  1.7136  2.4848 -0.5688
   39MOL   H30514821   0.702   3.696   1.375  2.4594  1.1404  1.9611
   39MOL   C30614822   1.177   3.674   0.933  0.3378 -0.1261  0.3783
   39MOL   C30714823   1.311   3.623   0.867 -0.1855  0.4057  0.2405
   39MOL   O30814824   1.351   3.676   0.740  0.1382 -0.1155  0.3634
   39MOL   C30914825   1.417   3.804   0.747 -0.1172 -0.7413 -0.0185
   39MOL   C31014826   1.486   3.831   0.611 -0.4284  0.5583  0.3144
   39MOL   C31114827   1.590   3.722   0.574 -0.1249 -0.8012  0.7503
   39MOL   C31214828   1.670   3.757   0.449  0.1772 -0.5097 -0.2730
   39MOL   H31314829   1.171   3.782   0.928 -3.2934 -0.2987 -0.0561
   39MOL   H31414830   1.180   3.641   1.037 -1.2569 -0.0188  0.4635
   39MOL   H31514831   1.392   3.642   0.937 -0.7494 -0.7296  1.2204
   39MOL   H31614832   1.484   3.818   0.831 -1.5519 -1.1269  1.2204
   39MOL   H31714833   1.338   3.879   0.756  0.7793  0.4810 -1.9970
   39MOL   H31814834   1.531   3.930   0.623  0.2146  0.0950  1.8470
   39MOL   H31914835   1.408   3.838   0.536 -0.2671  1.7194  0.2357
   39MOL   H32014836   1.660   3.715   0.657  0.0454  2.6544  0.9768
   39MOL   H32114837   1.546   3.625   0.552  3.8586 -2.2718 -1.2441
   39MOL   H32214838   1.723   3.851   0.464  1.6924 -0.8928 -2.8265
   39MOL   H32314839   1.608   3.760   0.359 -3.5063  1.3878  2.1830
   39MOL   H32414840   1.734   3.671   0.429 -0.3495 -0.7769 -0.8428
   39MOL   C32514841   1.300   3.472   0.838 -0.5465  0.1983  0.2901
   39MOL   C32614842   1.422   3.392   0.796 -0.0924  0.1469  0.5623
   39MOL   O32714843   1.505   3.376   0.909  0.3567  0.0158  0.3526
   39MOL   C32814844   1.629   3.449   0.893  0.8363  0.6281 -0.3858
   39MOL   C32914845   1.709   3.421   1.019  0.0153 -0.5462  0.1083
   39MOL   C33014846   1.832   3.512   1.033 -0.0328  0.7398  0.0641
   39MOL   C33114847   1.923   3.447   1.138  0.4167 -0.2602  0.3777
   39MOL   H33214848   1.227   3.463   0.758  0.5302 -0.0420 -0.6854
   39MOL   H33314849   1.253   3.432   0.928  2.0057  0.6118  1.8676
   39MOL   H33414850   1.466   3.444   0.711  0.1448 -0.1924  0.4745
   39MOL   H33514851   1.603   3.555   0.890 -0.1093  0.6383  4.3527
   39MOL   H33614852   1.685   3.426   0.803  2.9029  1.0275  0.7737
   39MOL   H33714853   1.630   3.434   1.094 -1.2408  0.2625 -1.3283
   39MOL   H33814854   1.742   3.318   1.011  0.4464 -0.3961 -0.0083
   39MOL   H33914855   1.799   3.609   1.070 -1.7063  0.6975 -1.2536
   39MOL   H34014856   1.884   3.529   0.939 -0.4179  0.6809 -0.1592
   39MOL   H34114857   1.856   3.409   1.215 -1.8347  2.3833 -0.1816
   39MOL   H34214858   1.985   3.524   1.184  0.5934  0.2791 -0.7464
   39MOL   H34314859   1.978   3.367   1.090  0.6297  0.4300 -0.5651
   39MOL   C34414860   1.383   3.257   0.737 -0.4896  0.3934  0.6685
   39MOL   C34514861   1.512   3.185   0.693  0.4709  0.4069  0.1381
   39MOL   O34614862   1.564   3.252   0.573 -0.2818  0.0205  0.0093
   39MOL   C34714863   1.705   3.229   0.556  0.4562  0.4126  0.2506
   39MOL   C34814864   1.764   3.347   0.483 -0.2927 -0.1166  0.7339
   39MOL   C34914865   1.917   3.335   0.463 -0.3778  0.5457  0.2173
   39MOL   C35014866   1.972   3.456   0.392  0.1535 -0.3703  0.1354
   39MOL   H35114867   1.336   3.201   0.818 -0.3370 -2.1874 -0.9585
   39MOL   H35214868   1.308   3.258   0.658 -0.7554 -1.2159  0.8775
   39MOL   H35314869   1.579   3.186   0.779 -0.3194  0.9500  0.7618
   39MOL   H35414870   1.706   3.132   0.507  0.2103  0.1524  0.7514
   39MOL   H35514871   1.748   3.204   0.653 -2.2847 -1.2431  1.0940
   39MOL   H35614872   1.733   3.435   0.539 -1.8157 -0.0983 -0.1269
   39MOL   H35714873   1.705   3.365   0.393  2.2210  1.2929 -0.6795
   39MOL   H35814874   1.975   3.312   0.552  1.0959  1.2066 -0.5489
   39MOL   H35914875   1.943   3.248   0.401  1.9525 -0.2079  2.1756
   39MOL   H36014876   2.081   3.455   0.384  0.1497  0.1653 -0.0240
   39MOL   H36114877   1.954   3.549   0.447 -2.9392 -0.3978 -0.7261
   39MOL   H36214878   1.926   3.479   0.296 -1.6732  0.2127  1.1276
   39MOL   C36314879   1.489   3.033   0.671 -0.1087 -0.2281  0.2178
   39MOL   C36414880   1.376   2.991   0.576  0.3062  0.0041  0.1391
   39MOL   O36514881   1.396   2.857   0.556 -0.3739 -0.1122 -0.1869
   39MOL   C36614882   1.297   2.808   0.472 -0.5270 -1.0558 -0.2448
   39MOL   C36714883   1.344   2.666   0.465  0.1651  0.3471 -0.0521
   39MOL   C36814884   1.466   2.667   0.370 -0.9645  0.0496 -0.3408
   39MOL   C36914885   1.531   2.522   0.354  0.4864  0.0705  0.5238
   39MOL   H37014886   1.484   2.981   0.766  2.0890  1.2209  1.1495
   39MOL   H37114887   1.582   2.998   0.627 -0.0474  0.0149  0.1495
   39MOL   H37214888   1.391   3.055   0.489  0.0916  1.2216  0.9858
   39MOL   H37314889   1.293   2.853   0.374 -1.8028  1.3643  0.8870
   39MOL   H37414890   1.198   2.815   0.516 -0.8603 -0.1528 -1.1319
   39MOL   H37514891   1.271   2.594   0.429  0.1671  0.2458  0.1425
   39MOL   H37614892   1.362   2.627   0.566 -1.4978 -1.4311 -0.4115
   39MOL   H37714893   1.544   2.737   0.399  1.0366 -2.7397  1.1363
   39MOL   H37814894   1.428   2.674   0.268 -0.3452 -0.4819 -0.6081
   39MOL   H37914895   1.593   2.513   0.265  0.2846 -2.0650  0.5910
   39MOL   H38014896   1.575   2.486   0.447  2.8006  2.0146  0.2449
   39MOL   H38114897   1.448   2.455   0.334  0.0127  1.4553 -2.4503
   39MOL   H38214898   1.275   2.999   0.618  0.8726 -0.8548  1.7180
   40MOL     C114899   0.232   0.842   0.013 -0.1745 -0.5935  0.2528
   40MOL     C214900   0.231   0.718   7.716 -0.3206  0.0816  0.0592
   40MOL     O314901   0.306   0.623   7.784 -0.1881  0.0838  0.2656
   40MOL     C414902   0.443   0.624   7.746  0.5437 -0.4965  0.3578
   40MOL     C514903   0.496   0.483   7.772 -0.0305 -0.3031 -0.4352
   40MOL     C614904   0.643   0.463   7.733 -0.0207  0.4969  0.1725
   40MOL     C714905   0.686   0.317   7.724  0.1125  0.3978 -0.0417
   40MOL     H814906   0.168   0.919   7.772 -1.5255 -1.1377  1.2755
   40MOL     H914907   0.198   0.813   0.113 -1.0961 -1.8837 -0.4256
   40MOL    H1014908   0.263   0.737   7.613 -0.0773 -1.1345 -0.0897
   40MOL    H1114909   0.464   0.647   7.641  1.4650 -1.7879  0.2398
   40MOL    H1214910   0.491   0.702   0.004 -1.8230  1.3080 -0.0244
   40MOL    H1314911   0.447   0.405   7.714  0.6578 -0.1083 -1.2955
   40MOL    H1414912   0.491   0.456   0.076  1.4977 -1.4282 -0.6293
   40MOL    H1514913   0.707   0.518   0.001  2.2571  0.8483 -2.0803
   40MOL    H1614914   0.668   0.504   7.634  1.4880 -0.4225  0.1613
   40MOL    H1714915   0.651   0.270   0.014 -0.2169  0.8282  0.0575
   40MOL    H1814916   0.794   0.308   7.710  0.0133 -0.8510 -0.0421
   40MOL    H1914917   0.636   0.269   7.640  1.2206 -1.7986  0.5264
   40MOL    H2014918   0.325   0.899   0.011  0.4350 -1.6198 -2.1766
   40MOL    C2114919   0.089   0.654   7.726 -0.1848  0.0669  0.0469
   40MOL    C2214920   0.086   0.518   7.645  0.2813  0.0375 -0.1842
   40MOL    O2314921   7.760   0.462   7.661 -0.2741  0.0533 -0.1628
   40MOL    C2414922   7.774   0.333   7.727  0.8752  0.5876 -0.6698
   40MOL    C2514923   7.626   0.282   7.744 -0.7606  0.0602 -1.1093
   40MOL    C2614924   7.552   0.257   7.611  0.3096 -0.1927  0.1024
   40MOL    C2714925   7.411   0.185   7.626 -1.2635  0.4481  0.2927
   40MOL    H2814926   0.008   0.725   7.707 -0.9116 -0.1167  2.3778
   40MOL    H2914927   0.078   0.628   0.029 -0.9126  1.1865  0.2551
   40MOL    H3014928   0.174   0.464   7.681 -0.0103  0.6515  1.4552
   40MOL    H3114929   0.013   0.341   0.026  0.9882 -2.4165 -0.4426
   40MOL    H3214930   0.038   0.261   7.677  1.4006  2.1920 -2.3575
   40MOL    H3314931   7.628   0.189   7.800  1.9258  0.4757 -0.4480
   40MOL    H3414932   7.570   0.361   7.794  0.9442  0.3019  0.4833
   40MOL    H3514933   7.536   0.348   7.552 -1.3357  0.4836  1.5763
   40MOL    H3614934   7.624   0.200   7.551  0.3996 -0.2809  0.2932
   40MOL    H3714935   7.337   0.245   7.679 -3.1612 -0.0572 -1.6626
   40MOL    H3814936   7.361   0.168   7.530 -0.5627 -0.5022  0.0828
   40MOL    H3914937   7.418   0.092   7.682 -1.3969  1.7549  2.5163
   40MOL    C4014938   0.082   0.545   7.491  0.6980  0.1369 -0.0242
   40MOL    C4114939   0.104   0.420   7.407  0.1481  0.5624 -0.1855
   40MOL    O4214940   0.238   0.388   7.391  0.1423  0.6741  0.2468
   40MOL    C4314941   0.285   0.263   7.451  0.0092  0.0470 -0.3922
   40MOL    C4414942   0.433   0.257   7.443 -0.2489 -0.2173 -0.2416
   40MOL    C4514943   0.486   0.221   7.302  0.1476  0.2564 -0.4782
   40MOL    C4614944   0.642   0.206   7.287 -0.6093 -0.4664 -0.6771
   40MOL    H4714945   0.150   0.625   7.461  0.7661 -0.7276 -2.2976
   40MOL    H4814946   7.785   0.578   7.459  0.1284 -1.4556  0.0864
   40MOL    H4914947   0.049   0.338   7.456 -0.1394  1.0526  0.3187
   40MOL    H5014948   0.235   0.176   7.408 -1.5403 -0.0325  1.5033
   40MOL    H5114949   0.247   0.253   7.553  0.0239  3.2809 -0.0251
   40MOL    H5214950   0.470   0.174   7.504 -0.8944 -0.4039 -0.0940
   40MOL    H5314951   0.472   0.354   7.474 -0.0208 -0.5834  0.6318
   40MOL    H5414952   0.450   0.291   7.227  0.7580  0.6994 -0.3668
   40MOL    H5514953   0.438   0.125   7.286  0.6585  0.1025 -1.0942
   40MOL    H5614954   0.661   0.202   7.180 -1.2644  4.8196 -1.1565
   40MOL    H5714955   0.695   0.293   7.328  2.2207 -2.0999 -0.7429
   40MOL    H5814956   0.684   0.119   7.337 -1.4013 -1.3831 -1.5871
   40MOL    C5914957   0.040   0.440   7.265  0.2210 -1.1597 -0.2086
   40MOL    C6014958   0.057   0.322   7.160 -0.3447  0.1479 -0.8766
   40MOL    O6114959   7.784   0.205   7.201 -0.3883  0.2729 -0.2433
   40MOL    C6214960   0.043   0.078   7.184 -0.0124  0.4953 -0.0671
   40MOL    C6314961   7.752   7.761   7.217  0.1240 -0.4471 -0.8726
   40MOL    C6414962   7.668   7.794   7.338  0.7979  0.5203 -0.0154
   40MOL    C6514963   7.746   7.766   7.467  0.1909  0.4407  0.5259
   40MOL    H6614964   7.736   0.459   7.279  0.9041  2.7531  0.2601
   40MOL    H6714965   0.074   0.536   7.226 -0.4763 -0.9631 -0.3430
   40MOL    H6814966   0.163   0.296   7.165 -0.6448 -1.3766 -2.2293
   40MOL    H6914967   0.138   0.062   7.234 -0.3625 -4.2935 -0.6852
   40MOL    H7014968   0.068   0.057   7.080  1.3785 -1.5466  0.6591
   40MOL    H7114969   7.683   7.765   7.132 -1.9687  0.2519  0.8025
   40MOL    H7214970   7.799   7.664   7.230 -0.5717 -0.4291  2.1513
   40MOL    H7314971   7.619   0.090   7.335  1.2786  0.7245 -1.9604
   40MOL    H7414972   7.585   7.725   7.348  0.4269  0.7322 -1.5487
   40MOL    H7514973   7.696   7.798   7.558 -2.2179 -1.3036 -0.1193
   40MOL    H7614974   7.757   7.657   7.461 -0.8232  0.3263  0.7842
   40MOL    H7714975   0.041   0.015   7.458 -0.3886  1.7348  1.4991
   40MOL    C7814976   7.799   0.355   7.024  0.4487 -0.2604 -0.2145
   40MOL    C7914977   0.089   0.433   6.928 -0.7098  0.6750  0.8072
   40MOL    O8014978   7.799   0.468   6.826 -0.0110  0.5289 -0.4220
   40MOL    C8114979   7.774   0.610   6.829  0.6758 -0.0584 -0.6963
   40MOL    C8214980   7.675   0.645   6.715 -0.3003  0.0340 -0.4760
   40MOL    C8314981   7.543   0.563   6.716 -0.0184 -0.1148  0.1962
   40MOL    C8414982   7.468   0.565   6.849  0.3021 -0.0458 -0.4708
   40MOL    H8514983   7.707   0.409   7.048  0.6996 -0.5242  1.4014
   40MOL    H8614984   7.776   0.258   6.979 -0.2897 -1.0972  1.8945
   40MOL    H8714985   0.126   0.520   6.982  1.1353  1.8764 -2.2789
   40MOL    H8814986   0.063   0.670   6.819  0.2015  0.4687 -1.8763
   40MOL    H8914987   7.718   0.636   6.919  0.0795  1.4024 -1.4684
   40MOL    H9014988   7.645   0.750   6.718  1.9955  0.7244 -0.2855
   40MOL    H9114989   7.722   0.636   6.617  0.2234  2.1904 -0.4478
   40MOL    H9214990   7.550   0.456   6.695 -0.4641  0.2131 -1.7199
   40MOL    H9314991   7.479   0.600   6.636 -0.4297  0.8091  0.9625
   40MOL    H9414992   7.522   0.521   6.933  1.9729 -0.4230 -1.7163
   40MOL    H9514993   7.435   0.667   6.865 -3.1580 -0.8954 -1.8197
   40MOL    H9614994   7.382   0.499   6.836  0.5881 -0.9727  2.1294
   40MOL    C9714995   0.210   0.351   6.874  0.2090  0.4933  1.1415
   40MOL    C9814996   0.304   0.447   6.799  0.6173 -0.0862  0.7383
   40MOL    O9914997   0.368   0.539   6.895  0.1114 -0.3022 -0.2483
   40MOL   C10014998   0.384   0.666   6.834  0.2434 -0.6027 -0.2675
   40MOL   C10114999   0.476   0.757   6.912  0.1040 -0.1577  0.1225
   40MOL   C10215000   0.473   0.905   6.856  0.2903 -0.5163  0.3044
   40MOL   C10315001   0.587   0.991   6.921 -0.3124 -0.7308 -0.6439
   40MOL   H10415002   0.180   0.272   6.806 -1.8875  2.2534 -0.0721
   40MOL   H10515003   0.256   0.307   6.962 -0.8946  2.7289  2.8851
   40MOL   H10615004   0.243   0.490   6.720  1.1522 -2.2013 -0.8930
   40MOL   H10715005   0.282   0.703   6.824  1.0738  1.7108 -0.3883
   40MOL   H10815006   0.421   0.660   6.732 -0.0624  1.8368 -0.5400
   40MOL   H10915007   0.575   0.713   6.910  0.5414  0.8274 -0.3122
   40MOL   H11015008   0.457   0.770   7.018 -0.1446  1.5775 -0.1135
   40MOL   H11115009   0.373   0.949   6.864  1.0061  1.0980  0.5989
   40MOL   H11215010   0.505   0.906   6.752 -0.0383  0.6320  0.2056
   40MOL   H11315011   0.682   0.970   6.873 -0.0383  1.2755 -0.9951
   40MOL   H11415012   0.556   1.095   6.915 -1.8291 -0.9809  1.7605
   40MOL   H11515013   0.602   0.967   7.026 -0.4150  2.9241  0.2565
   40MOL   C11615014   0.424   0.373   6.721 -0.0389  0.0052 -0.0296
   40MOL   C11715015   0.385   0.276   6.607 -0.5746  0.0749  0.0502
   40MOL   O11815016   0.374   0.143   6.664 -0.0047  0.4742  0.4077
   40MOL   C11915017   0.355   0.043   6.571  0.1983 -1.2949  0.0131
   40MOL   C12015018   0.376   7.715   6.643  0.2034 -0.2502 -0.4865
   40MOL   C12115019   0.389   7.594   6.550 -0.7004 -0.0793  0.5807
   40MOL   C12215020   0.246   7.564   6.493 -0.3804 -0.3168  0.0162
   40MOL   H12315021   0.471   0.455   6.666  0.2057 -0.4153 -0.4488
   40MOL   H12415022   0.488   0.312   6.783 -0.3810  0.5708  0.8973
   40MOL   H12515023   0.463   0.274   6.531 -0.3758  1.0025  0.2308
   40MOL   H12615024   0.424   0.048   6.486  1.7760 -0.4460  1.3186
   40MOL   H12715025   0.255   0.066   6.536  1.2821  1.0183 -1.6738
   40MOL   H12815026   0.293   7.708   6.713 -0.2008 -1.8006 -1.0818
   40MOL   H12915027   0.468   7.715   6.701  0.5024 -0.5927 -0.9508
   40MOL   H13015028   0.457   7.614   6.467 -1.8295  0.4822 -0.2179
   40MOL   H13115029   0.422   7.511   6.613 -3.2555 -0.0846  1.9809
   40MOL   H13215030   0.218   7.631   6.412 -1.0322 -0.7520 -0.1211
   40MOL   H13315031   0.177   7.553   6.577 -0.2592 -2.4161 -0.1315
   40MOL   H13415032   0.236   7.463   6.454  2.4200  0.1214 -1.9617
   40MOL   C13515033   0.257   0.325   6.532  0.1360 -0.0173  0.1186
   40MOL   C13615034   0.280   0.449   6.435 -0.2236 -0.2636  0.3004
   40MOL   O13715035   0.360   0.396   6.330 -0.6418  0.2669 -0.7883
   40MOL   C13815036   0.484   0.460   6.323  0.3311 -0.3913  0.1471
   40MOL   C13915037   0.558   0.389   6.211 -0.1630 -1.0605 -0.5609
   40MOL   C14015038   0.691   0.454   6.184  0.0139  0.1808 -0.3069
   40MOL   C14115039   0.772   0.379   6.076  0.7692 -0.3053 -0.0967
   40MOL   H14215040   0.170   0.349   6.594  0.2200  1.7902 -0.4344
   40MOL   H14315041   0.221   0.251   6.460 -1.4402 -0.5307  1.3886
   40MOL   H14415042   0.334   0.525   6.491  0.9152  0.4195 -1.6567
   40MOL   H14515043   0.542   0.450   6.415 -0.4084 -2.1679  0.4379
   40MOL   H14615044   0.469   0.566   6.302  1.7133  0.1296  1.6568
   40MOL   H14715045   0.490   0.389   6.126  1.0323  0.1986 -1.5245
   40MOL   H14815046   0.572   0.282   6.228  0.8784 -1.2630 -2.5999
   40MOL   H14915047   0.689   0.561   6.163  1.2847 -0.0366 -1.5616
   40MOL   H15015048   0.743   0.441   6.279  0.2485 -2.5096 -0.7436
   40MOL   H15115049   0.762   0.271   6.087 -2.3080 -0.0249  0.3301
   40MOL   H15215050   0.729   0.409   5.981 -0.5118 -3.1925 -0.4986
   40MOL   H15315051   0.876   0.411   6.076  0.9896 -0.9982 -0.5038
   40MOL   C15415052   0.150   0.506   6.368  0.1575 -0.3599  0.3173
   40MOL   C15515053   0.168   0.619   6.275  0.0012 -0.6834 -0.1070
   40MOL   O15615054   0.163   0.742   6.345 -0.6315  0.4672 -0.0103
   40MOL   C15715055   0.292   0.806   6.368 -0.0760 -0.1484 -0.8264
   40MOL   C15815056   0.257   0.937   6.432 -0.4753  0.4038 -0.6873
   40MOL   C15915057   0.201   0.928   6.572 -0.9312  0.7572  1.1347
   40MOL   C16015058   0.164   1.063   6.638  0.3376  0.0253 -0.4083
   40MOL   H16115059   0.076   0.533   6.443 -1.8370  1.4380 -2.2098
   40MOL   H16215060   0.102   0.429   6.308  1.4478 -0.8524 -0.0873
   40MOL   H16315061   0.264   0.610   6.224 -0.1746 -2.7360 -0.1171
   40MOL   H16415062   0.357   0.738   6.423  0.6760  2.6377  1.8710
   40MOL   H16515063   0.337   0.836   6.274  1.1277 -0.1147 -0.2504
   40MOL   H16615064   0.197   0.997   6.364  1.0158 -0.7536 -3.0963
   40MOL   H16715065   0.352   0.989   6.435 -0.7001  0.7304  1.6594
   40MOL   H16815066   0.115   0.862   6.566 -0.9858  0.9806 -0.7408
   40MOL   H16915067   0.283   0.881   6.627 -0.6853 -0.8361 -0.5448
   40MOL   H17015068   0.131   1.074   6.741 -0.6471 -1.4256 -0.5512
   40MOL   H17115069   0.255   1.121   6.626 -1.4879  2.5228 -2.9696
   40MOL   H17215070   0.102   1.128   6.576 -1.8987 -0.8653  0.8554
   40MOL   C17315071   0.055   0.608   6.161  0.6016 -1.0503  0.6757
   40MOL   C17415072   0.064   0.740   6.073  0.3843  0.6528  0.3261
   40MOL   O17515073   0.005   0.692   5.948 -0.5498  0.0248  0.1150
   40MOL   C17615074   0.100   0.692   5.839  0.2088  0.0503 -0.0491
   40MOL   C17715075   0.014   0.637   5.722  0.4265  0.0037  0.8181
   40MOL   C17815076   7.719   0.743   5.671 -0.6962  0.5769 -0.2652
   40MOL   C17915077   7.623   0.701   5.566  0.4028  0.2927 -0.2098
   40MOL   H18015078   7.754   0.594   6.195  0.4701  2.0862  1.7149
   40MOL   H18115079   0.078   0.512   6.116  1.1646 -0.1447 -0.9962
   40MOL   H18215080   0.169   0.768   6.061  0.0790  1.8294  0.3473
   40MOL   H18315081   0.183   0.622   5.854  0.4031 -0.4326 -3.0472
   40MOL   H18415082   0.135   0.791   5.812  0.3996  0.2065  0.7585
   40MOL   H18515083   7.768   0.545   5.755  0.8927 -1.3418 -2.1715
   40MOL   H18615084   0.070   0.608   5.634 -3.0329  0.4810 -1.6512
   40MOL   H18715085   7.659   0.779   5.755  1.8880  1.6519  1.1864
   40MOL   H18815086   7.778   0.829   5.636  1.2500 -0.4973  0.3142
   40MOL   H18915087   7.550   0.778   5.543  1.0043  1.1800  0.7857
   40MOL   H19015088   7.677   0.683   5.473 -0.5347  1.1812 -0.9340
   40MOL   H19115089   7.570   0.609   5.591  0.5124  0.1623 -0.4620
   40MOL   C19215090   7.781   0.863   6.127  0.0410 -0.4703  1.1152
   40MOL   C19315091   7.785   0.997   6.051  0.3404  0.7775 -0.5237
   40MOL   O19415092   7.690   1.087   6.109  0.4464 -0.4464 -0.5278
   40MOL   C19515093   7.725   1.148   6.238  0.0521  0.0459  0.7693
   40MOL   C19615094   7.611   1.240   6.269 -0.6464 -0.1836  0.1772
   40MOL   C19715095   7.616   1.369   6.180  0.2284 -0.3297 -0.2073
   40MOL   C19815096   7.486   1.448   6.198 -0.0496 -0.0222  0.0046
   40MOL   H19915097   0.014   0.880   6.229  0.0807  2.2428  0.6813
   40MOL   H20015098   7.681   0.819   6.132 -0.9371  1.0186 -2.9166
   40MOL   H20115099   7.745   0.976   5.952 -0.0901  0.3145 -0.2534
   40MOL   H20215100   0.023   1.193   6.237  0.1262 -0.1060  1.2800
   40MOL   H20315101   7.737   1.072   6.315 -0.0869  0.8903  1.6351
   40MOL   H20415102   7.517   1.186   6.256 -0.9786 -0.2128  2.4951
   40MOL   H20515103   7.610   1.264   6.376  2.0341  0.6272  0.0534
   40MOL   H20615104   7.620   1.318   6.084  1.8973 -2.4998  0.9723
   40MOL   H20715105   7.705   1.429   6.196  1.4779 -2.0630 -0.5504
   40MOL   H20815106   7.396   1.388   6.191 -1.2533  1.7347  0.1171
   40MOL   H20915107   7.475   1.490   6.298  1.1465 -2.5243  1.2220
   40MOL   H21015108   7.481   1.529   6.125 -1.6654 -0.2230 -0.1155
   40MOL   C21115109   0.133   1.059   6.050  0.2624  0.0207  0.4294
   40MOL   C21215110   0.136   1.207   5.989 -0.4050 -0.2111 -0.6195
   40MOL   O21315111   0.232   1.275   6.073  0.0389 -0.0548 -0.0849
   40MOL   C21415112   0.212   1.417   6.099 -0.0147 -0.1511 -0.1925
   40MOL   C21515113   0.293   1.454   6.224 -0.4735 -0.6897 -0.1912
   40MOL   C21615114   0.233   1.391   6.348 -0.8073 -0.4089 -1.4467
   40MOL   C21715115   0.292   1.447   6.477  0.0716  0.1703 -1.1020
   40MOL   H21815116   0.209   1.000   5.999 -1.3306 -2.5430  0.9207
   40MOL   H21915117   0.176   1.058   6.150 -0.8750  1.3250  0.9453
   40MOL   H22015118   0.040   1.255   6.003 -0.3710  1.0452 -4.0737
   40MOL   H22115119   0.249   1.459   6.006  2.1330  1.8941  1.5060
   40MOL   H22215120   0.110   1.449   6.119 -0.1342  0.2692 -1.4621
   40MOL   H22315121   0.391   1.412   6.202 -1.1868 -1.9230 -1.1081
   40MOL   H22415122   0.304   1.560   6.248 -1.5223 -0.6262  0.0434
   40MOL   H22515123   0.242   1.283   6.334  0.4966 -0.7161  1.3893
   40MOL   H22615124   0.127   1.410   6.357 -0.6691 -0.7971  1.6156
   40MOL   H22715125   0.219   1.416   6.553 -1.5629  1.7873 -1.9715
   40MOL   H22815126   0.312   1.554   6.476 -0.7883  0.3316 -1.5884
   40MOL   H22915127   0.380   1.392   6.509 -2.3440 -1.2415  3.6291
   40MOL   C23015128   0.178   1.212   5.841 -0.3772 -0.2008 -0.5217
   40MOL   C23115129   0.075   1.143   5.747  0.2021  0.2406 -0.1136
   40MOL   O23215130   7.753   1.207   5.782  0.2372  0.0872  0.0719
   40MOL   C23315131   7.636   1.151   5.737  1.0691  0.6047  0.0990
   40MOL   C23415132   7.517   1.227   5.800 -0.0516  0.3065  0.7420
   40MOL   C23515133   7.507   1.375   5.786  0.3960 -0.5735 -0.3913
   40MOL   C23615134   7.379   1.423   5.860 -0.3344 -0.1781  0.4818
   40MOL   H23715135   0.279   1.173   5.825 -0.1523 -0.4185  1.3553
   40MOL   H23815136   0.189   1.315   5.807  0.3738  0.3653  1.3617
   40MOL   H23915137   0.083   1.037   5.769  3.7814  0.0334 -2.0113
   40MOL   H24015138   7.623   1.150   5.629 -1.2958  0.5686  0.3572
   40MOL   H24115139   7.616   1.046   5.756 -0.7486  0.9508  0.1218
   40MOL   H24215140   7.429   1.180   5.757 -0.0181 -1.5857  2.6074
   40MOL   H24315141   7.510   1.193   5.904  2.3606  0.5999  1.0388
   40MOL   H24415142   7.499   1.391   5.678 -0.4671  0.5137 -0.1693
   40MOL   H24515143   7.598   1.413   5.833  0.7654 -2.6513  0.6193
   40MOL   H24615144   7.289   1.408   5.800 -0.6415  2.1626  0.3113
   40MOL   H24715145   7.385   1.530   5.879 -0.1978  0.2739 -1.8973
   40MOL   H24815146   7.369   1.379   5.959  0.8834 -0.7669  0.3499
   40MOL   C24915147   0.108   1.166   5.595  0.4636  0.3794  0.5783
   40MOL   C25015148   0.248   1.114   5.549 -0.5024  0.8283 -0.5704
   40MOL   O25115149   0.245   1.162   5.418 -0.0526 -0.1938 -0.3978
   40MOL   C25215150   0.354   1.230   5.377  0.5943 -0.2282  0.6870
   40MOL   C25315151   0.333   1.264   5.233  0.1043 -0.4221 -0.2989
   40MOL   C25415152   0.349   1.146   5.134 -0.8609  0.0214 -0.0014
   40MOL   C25515153   0.304   1.166   4.991  0.0921 -0.3781  0.0778
   40MOL   H25615154   0.085   1.270   5.573 -2.1552  0.3021  2.6954
   40MOL   H25715155   0.032   1.122   5.530  0.6214  1.4876 -0.3672
   40MOL   H25815156   0.316   1.171   5.614 -0.3176  2.2820 -2.0181
   40MOL   H25915157   0.442   1.166   5.388  0.0505 -1.2166 -0.5625
   40MOL   H26015158   0.376   1.325   5.425 -0.0392  0.1110  0.3195
   40MOL   H26115159   0.234   1.311   5.232  0.4130  0.2487  0.1228
   40MOL   H26215160   0.397   1.344   5.196 -0.8890  0.1476 -0.8129
   40MOL   H26315161   0.451   1.109   5.130 -1.4382 -1.8937  1.8276
   40MOL   H26415162   0.290   1.064   5.175  1.2273 -1.5034 -0.0092
   40MOL   H26515163   0.292   1.067   4.947 -0.9318 -0.0509 -0.4008
   40MOL   H26615164   0.373   1.219   4.925 -1.2130  0.3313 -0.7241
   40MOL   H26715165   0.207   1.214   4.988  1.1889  1.8614 -1.0379
   40MOL   C26815166   0.248   0.957   5.561  0.2148 -0.4358  0.4579
   40MOL   C26915167   0.379   0.899   5.620  0.5490 -0.2010 -0.4523
   40MOL   O27015168   0.495   0.942   5.554  0.2669 -0.3180  0.0258
   40MOL   C27115169   0.508   0.878   5.432 -0.7829 -0.3412  0.4261
   40MOL   C27215170   0.651   0.907   5.385  0.2118  0.4678  0.2981
   40MOL   C27315171   0.689   0.866   5.240  0.3891 -0.5003 -0.3009
   40MOL   C27415172   0.836   0.860   5.202 -0.1120 -0.0046  0.0829
   40MOL   H27515173   0.163   0.925   5.620  0.1426 -1.5383 -0.2338
   40MOL   H27615174   0.231   0.917   5.461 -1.0473  0.0884  0.4554
   40MOL   H27715175   0.377   0.791   5.607 -0.3264 -0.4970  2.0979
   40MOL   H27815176   0.498   0.770   5.429 -2.5658 -0.1414 -1.5620
   40MOL   H27915177   0.438   0.924   5.363  1.6571  1.1383 -1.1623
   40MOL   H28015178   0.655   1.015   5.393  0.0652  0.4560  0.5220
   40MOL   H28115179   0.731   0.872   5.450  0.4311  0.4539  0.0223
   40MOL   H28215180   0.650   0.933   5.163  0.2607 -0.1606  0.0584
   40MOL   H28315181   0.656   0.764   5.220 -0.1521 -0.8566  2.2889
   40MOL   H28415182   0.844   0.798   5.113  0.1116 -0.0816  0.1573
   40MOL   H28515183   0.889   0.798   5.275  0.1593  0.2960  0.1410
   40MOL   H28615184   0.879   0.955   5.172 -0.2640  0.9159  2.6806
   40MOL   C28715185   0.401   0.918   5.773  0.3249  0.4308 -0.1101
   40MOL   C28815186   0.489   0.816   5.845  0.6463  1.0807  0.2101
   40MOL   O28915187   0.440   0.682   5.827  0.0475  0.1599 -1.1008
   40MOL   C29015188   0.532   0.587   5.784  0.0890 -0.0550  0.4548
   40MOL   C29115189   0.441   0.463   5.750 -0.7765  0.3829 -0.8314
   40MOL   C29215190   0.522   0.361   5.667  0.1880  0.6488 -0.5554
   40MOL   C29315191   0.443   0.240   5.640  0.5971  0.3570 -0.2650
   40MOL   H29415192   0.302   0.921   5.818  0.4961 -0.2463  0.3117
   40MOL   H29515193   0.441   1.019   5.785  0.5559  0.4801 -1.2253
   40MOL   H29615194   0.588   0.820   5.800  0.7555  2.0526  0.5260
   40MOL   H29715195   0.570   0.622   5.688  0.6362 -2.5138 -0.2809
   40MOL   H29815196   0.611   0.562   5.855  0.4773  1.6487  0.6354
   40MOL   H29915197   0.358   0.495   5.687 -2.5311 -0.8193  0.8367
   40MOL   H30015198   0.402   0.415   5.839  0.2638  0.3108 -0.4066
   40MOL   H30115199   0.608   0.335   5.729 -0.7828 -0.2886  0.4101
   40MOL   H30215200   0.564   0.399   5.574  0.0440  0.9776 -0.4894
   40MOL   H30315201   0.422   0.196   5.738  2.6501 -1.4212 -0.5731
   40MOL   H30415202   0.352   0.258   5.583  0.5439  2.1062  0.3339
   40MOL   H30515203   0.495   0.154   5.598 -0.4808 -0.7305  0.5751
   40MOL   C30615204   0.499   0.854   5.992 -0.3903 -0.4011 -0.1806
   40MOL   C30715205   0.588   0.970   6.026  0.5168  0.8792 -0.1331
   40MOL   O30815206   0.719   0.918   6.042  0.4839 -0.3671 -0.6199
   40MOL   C30915207   0.821   0.985   5.963  0.4668 -0.1283 -0.5787
   40MOL   C31015208   0.960   0.967   6.028 -0.2396 -0.3198  0.2643
   40MOL   C31115209   1.014   0.823   6.027  0.2912 -0.4758  0.7524
   40MOL   C31215210   1.146   0.805   6.103  0.6454 -0.2575  0.6544
   40MOL   H31315211   0.399   0.878   6.029 -1.0195 -1.5330 -1.1209
   40MOL   H31415212   0.529   0.764   6.045 -0.9062 -1.5369 -1.7681
   40MOL   H31515213   0.585   1.036   5.939 -0.0670 -2.5992 -2.8674
   40MOL   H31615214   0.793   1.089   5.943  0.8660  0.4639  1.8021
   40MOL   H31715215   0.814   0.926   5.872  1.7990 -2.4769  0.7948
   40MOL   H31815216   0.951   1.016   6.124 -2.8709  0.3433 -0.2945
   40MOL   H31915217   1.020   1.038   5.970 -0.2770 -0.8104 -0.3857
   40MOL   H32015218   0.949   0.763   6.090  0.7906 -0.7140  1.0418
   40MOL   H32115219   1.019   0.796   5.922  0.8619  0.6572  0.4773
   40MOL   H32215220   1.179   0.702   6.094  0.1270 -0.3384 -0.4571
   40MOL   H32315221   1.126   0.838   6.205 -0.0410  1.1716  0.0728
   40MOL   H32415222   1.229   0.870   6.074  0.5067  0.0406  0.9239
   40MOL   C32515223   0.548   1.029   6.161  0.8742 -0.0074  0.4037
   40MOL   C32615224   0.614   1.163   6.198  0.1125  0.3882 -0.8293
   40MOL   O32715225   0.578   1.253   6.093 -0.1813  0.6127 -0.0573
   40MOL   C32815226   0.669   1.361   6.077 -0.1404  0.5326  0.3080
   40MOL   C32915227   0.636   1.445   5.948  0.4164  0.9561 -0.0779
   40MOL   C33015228   0.739   1.553   5.907  0.1276  0.3059  0.1319
   40MOL   C33115229   0.672   1.639   5.803 -0.6964  0.3008 -0.4140
   40MOL   H33215230   0.569   0.957   6.241  1.4613  1.4258  1.5553
   40MOL   H33315231   0.442   1.051   6.159  0.1679 -3.1124 -0.0247
   40MOL   H33415232   0.722   1.146   6.198 -0.0017 -0.4129  0.6657
   40MOL   H33515233   0.760   1.301   6.076 -1.4432 -1.5472  1.6949
   40MOL   H33615234   0.672   1.427   6.164 -3.6973 -1.3586  1.9634
   40MOL   H33715235   0.623   1.383   5.860  0.5976 -0.0057  0.5671
   40MOL   H33815236   0.533   1.479   5.953  0.5855  1.1783  3.2383
   40MOL   H33915237   0.822   1.493   5.870  1.7684  2.1483  0.7531
   40MOL   H34015238   0.771   1.614   5.991  1.6136  1.0677 -0.9682
   40MOL   H34115239   0.662   1.593   5.705 -1.1964  1.1268 -0.7566
   40MOL   H34215240   0.720   1.736   5.791  1.9491 -0.7919  0.9396
   40MOL   H34315241   0.569   1.663   5.830 -0.4389  1.7444 -0.6474
   40MOL   C34415242   0.580   1.220   6.337  0.7610  0.3911  0.1767
   40MOL   C34515243   0.690   1.188   6.444  0.1901 -0.1333  0.2666
   40MOL   O34615244   0.701   1.047   6.446 -1.0059 -0.3763  0.2919
   40MOL   C34715245   0.817   0.992   6.495  0.1503  0.0862  0.8117
   40MOL   C34815246   0.816   0.842   6.470 -0.1639 -0.5242 -0.4634
   40MOL   C34915247   0.713   0.763   6.549  0.4349  0.1459 -0.0902
   40MOL   C35015248   0.744   0.608   6.535  0.3564 -0.8677  0.2627
   40MOL   H35115249   0.561   1.327   6.325 -0.0862  0.0830 -1.4032
   40MOL   H35215250   0.482   1.176   6.358 -0.5352  2.4986 -1.1989
   40MOL   H35315251   0.778   1.243   6.411  1.1491 -0.3042  2.4836
   40MOL   H35415252   0.817   1.007   6.603 -3.2254 -1.6231  1.1307
   40MOL   H35515253   0.902   1.025   6.436 -2.9339  2.0087 -2.8519
   40MOL   H35615254   0.916   0.812   6.502  0.1984  3.7326  2.8519
   40MOL   H35715255   0.809   0.817   6.365  1.1119 -0.7787 -0.4927
   40MOL   H35815256   0.703   0.780   6.656 -3.5117 -0.6060 -0.2551
   40MOL   H35915257   0.614   0.790   6.512  0.8787  0.2995 -1.1910
   40MOL   H36015258   0.666   0.544   6.575 -0.3215 -0.1200  0.1521
   40MOL   H36115259   0.847   0.592   6.568  0.1762  0.2263  1.4019
   40MOL   H36215260   0.744   0.583   6.429 -2.6749  1.9779 -0.5117
   40MOL   C36315261   0.640   1.220   6.591 -0.1742  0.6804  0.4439
   40MOL   C36415262   0.750   1.278   6.681  0.5916  0.4639 -0.5467
   40MOL   O36515263   0.693   1.331   6.806 -0.1092  0.1365  0.2489
   40MOL   C36615264   0.780   1.406   6.880  0.2699  0.1914 -0.0395
   40MOL   C36715265   0.733   1.426   7.029  0.6072 -0.0142 -0.1892
   40MOL   C36815266   0.826   1.522   7.108 -0.5251  0.3519  0.6169
   40MOL   C36915267   0.768   1.564   7.245 -0.3603  0.2262 -0.0068
   40MOL   H37015268   0.587   1.141   6.644 -0.2606  0.2173 -0.3383
   40MOL   H37115269   0.561   1.296   6.590 -1.8389 -1.0432 -0.0922
   40MOL   H37215270   0.800   1.353   6.620  2.9468 -1.4550 -1.0316
   40MOL   H37315271   0.776   1.507   6.838 -1.6397 -0.2444 -0.9345
   40MOL   H37415272   0.882   1.369   6.867  0.3518  0.9259 -1.6262
   40MOL   H37515273   0.732   1.329   7.080  3.3200  0.7241  1.3819
   40MOL   H37615274   0.628   1.454   7.030  0.6669  0.3546 -2.5999
   40MOL   H37715275   0.849   1.619   7.063 -0.5849 -0.0275 -0.2414
   40MOL   H37815276   0.921   1.470   7.115 -1.2829 -1.4447 -1.6849
   40MOL   H37915277   0.781   1.497   7.331 -0.4491  0.6368  0.3281
   40MOL   H38015278   0.816   1.658   7.273 -0.9020  0.6028 -0.3436
   40MOL   H38115279   0.661   1.585   7.244 -0.0624  1.7358 -2.2618
   40MOL   H38215280   0.820   1.198   6.705 -0.9682 -1.1436 -1.2115
   41MOL     C115281   5.413   4.707   5.573  0.2411  0.1401 -0.0927
   41MOL     C215282   5.257   4.702   5.588  0.1206 -0.3184 -0.3238
   41MOL     O315283   5.195   4.627   5.486  0.4263 -0.0990 -0.2038
   41MOL     C415284   5.177   4.690   5.361  0.4073  0.4279  0.4732
   41MOL     C515285   5.031   4.753   5.358  0.0071  0.5641 -0.0689
   41MOL     C615286   4.925   4.641   5.349  0.2897  0.8794 -0.1031
   41MOL     C715287   4.782   4.688   5.329 -0.2844 -0.2865 -0.3010
   41MOL     H815288   5.450   4.612   5.612  1.3679  0.5109 -0.2287
   41MOL     H915289   5.453   4.728   5.474 -1.4032  1.4545 -0.5171
   41MOL    H1015290   5.222   4.805   5.577  1.5801  0.2019 -0.2509
   41MOL    H1115291   5.258   4.755   5.327 -0.9610  1.7777 -0.2877
   41MOL    H1215292   5.185   4.607   5.291 -0.7160 -0.6746  1.6343
   41MOL    H1315293   5.032   4.817   5.270 -0.1863 -0.8393 -1.1044
   41MOL    H1415294   5.004   4.811   5.447 -0.0310  0.3478  0.0631
   41MOL    H1515295   4.923   4.573   5.434  0.1324 -0.1384 -0.9119
   41MOL    H1615296   4.954   4.589   5.257  0.1190 -0.0059  0.3374
   41MOL    H1715297   4.740   4.732   5.419 -3.8020  2.5205 -3.1401
   41MOL    H1815298   4.712   4.608   5.305  0.6139 -1.1422 -0.1118
   41MOL    H1915299   4.763   4.763   5.252 -1.4923  0.7773  1.0065
   41MOL    H2015300   5.456   4.788   5.633 -0.9247  1.1766 -0.6269
   41MOL    C2115301   5.212   4.657   5.726  0.3176 -0.6119 -0.1375
   41MOL    C2215302   5.069   4.697   5.769 -0.4760  0.4095 -0.2916
   41MOL    O2315303   5.020   4.607   5.864 -0.3371 -0.3401 -0.6884
   41MOL    C2415304   4.926   4.509   5.825 -0.0768 -0.8174  0.2431
   41MOL    C2515305   4.921   4.409   5.932 -0.0489  0.2730  0.1280
   41MOL    C2615306   4.811   4.303   5.910 -0.1111 -0.5920 -0.3325
   41MOL    C2715307   4.671   4.357   5.905  0.4777  0.3274 -0.4834
   41MOL    H2815308   5.283   4.705   5.793  0.3194 -0.8017 -0.0048
   41MOL    H2915309   5.218   4.548   5.725  0.5931 -0.6472  2.1229
   41MOL    H3015310   5.006   4.693   5.680 -1.9680  0.0926  0.7468
   41MOL    H3115311   4.960   4.464   5.732  0.7641  1.4592 -0.5993
   41MOL    H3215312   4.835   4.561   5.798  0.8082  1.2596  1.1207
   41MOL    H3315313   5.015   4.354   5.939 -0.5929 -0.5855  0.7399
   41MOL    H3415314   4.901   4.456   6.028  2.7677  1.5812  0.1091
   41MOL    H3515315   4.849   4.247   5.824 -0.2781 -1.0353 -0.1217
   41MOL    H3615316   4.830   4.225   5.984  1.1447  0.2562  0.2663
   41MOL    H3715317   4.602   4.276   5.881  0.4219  0.6291 -1.3600
   41MOL    H3815318   4.640   4.394   6.002 -0.9109 -0.7872 -0.4828
   41MOL    H3915319   4.644   4.431   5.830  0.3930  2.5799  1.7348
   41MOL    C4015320   5.068   4.824   5.861 -0.5397  0.1304 -0.0740
   41MOL    C4115321   4.924   4.878   5.865  0.9698  0.3429  0.4244
   41MOL    O4215322   4.895   4.928   5.736 -0.3646  0.6988  0.2568
   41MOL    C4315323   4.759   4.904   5.688 -0.0592  0.5622 -0.3087
   41MOL    C4415324   4.742   4.974   5.547  0.0688 -0.2559 -0.4325
   41MOL    C4515325   4.736   5.129   5.562  0.4731  0.4331  0.0785
   41MOL    C4615326   4.608   5.183   5.633 -0.8506 -0.3733 -0.0302
   41MOL    H4715327   5.117   4.908   5.811 -0.7877  0.4641  0.2480
   41MOL    H4815328   5.109   4.802   5.959 -1.6967 -1.6854  0.0389
   41MOL    H4915329   4.852   4.798   5.879  0.6120  0.3219 -1.3840
   41MOL    H5015330   4.684   4.930   5.763 -0.5663 -0.9220 -0.2800
   41MOL    H5115331   4.747   4.797   5.669 -1.5873  0.9507 -1.6157
   41MOL    H5215332   4.658   4.931   5.491 -0.5712  1.3368 -0.7298
   41MOL    H5315333   4.831   4.944   5.492 -0.2281 -1.3540 -0.3352
   41MOL    H5415334   4.729   5.168   5.461 -0.5878 -0.5970 -0.2431
   41MOL    H5515335   4.823   5.171   5.614  1.0798  0.2007 -0.7412
   41MOL    H5615336   4.620   5.290   5.653 -0.1006 -0.6860  1.2488
   41MOL    H5715337   4.516   5.168   5.578 -1.0555  0.9988 -0.0879
   41MOL    H5815338   4.591   5.139   5.731  0.2271  1.6447  1.1049
   41MOL    C5915339   4.889   4.987   5.966  0.0982 -0.4377  0.6404
   41MOL    C6015340   4.896   4.933   6.111  0.0827  0.0117 -1.0616
   41MOL    O6115341   4.949   5.044   6.188 -0.0038 -0.0662  0.0178
   41MOL    C6215342   5.094   5.041   6.213  0.5502  0.4561  0.1654
   41MOL    C6315343   5.122   5.137   6.330 -0.0077 -0.3266 -0.2148
   41MOL    C6415344   5.272   5.133   6.362 -0.4712 -0.3613  0.3563
   41MOL    C6515345   5.319   5.228   6.472 -0.4352 -0.1312 -0.2078
   41MOL    H6615346   4.960   5.068   5.950 -1.0199  0.5088  0.4302
   41MOL    H6715347   4.789   5.025   5.944 -0.3210 -1.4783  0.7070
   41MOL    H6815348   4.962   4.848   6.127  0.4924  0.6187  0.5235
   41MOL    H6915349   5.140   5.081   6.122 -0.1413  1.8012  0.3990
   41MOL    H7015350   5.111   4.936   6.234  2.4147  0.6074 -0.4543
   41MOL    H7115351   5.075   5.233   6.308  0.4836 -0.3220 -1.2767
   41MOL    H7215352   5.072   5.088   6.413  0.5198 -0.1426  0.2166
   41MOL    H7315353   5.291   5.030   6.394 -0.8154 -0.6782 -0.4517
   41MOL    H7415354   5.335   5.150   6.275 -0.7130  2.1223  0.6210
   41MOL    H7515355   5.417   5.201   6.511 -0.3955  0.2511 -0.0397
   41MOL    H7615356   5.335   5.325   6.426  0.1380 -1.3111 -2.6421
   41MOL    H7715357   5.244   5.237   6.550  2.2385 -0.4978  2.4980
   41MOL    C7815358   4.756   4.887   6.164  0.2695 -0.6135 -0.1509
   41MOL    C7915359   4.759   4.781   6.273 -0.0676  0.6426 -0.3219
   41MOL    O8015360   4.627   4.723   6.287  0.3399  0.1813  1.0074
   41MOL    C8115361   4.631   4.592   6.351  0.3111 -0.4321 -0.2457
   41MOL    C8215362   4.485   4.537   6.365  0.0883 -0.2740  0.3313
   41MOL    C8315363   4.408   4.623   6.464  0.7210 -0.0772  0.8220
   41MOL    C8415364   4.262   4.591   6.480  1.1178 -0.3050 -0.6394
   41MOL    H8515365   4.699   4.849   6.079  1.7642 -2.9500 -0.1197
   41MOL    H8615366   4.701   4.975   6.199 -0.0317 -0.4157 -1.0951
   41MOL    H8715367   4.826   4.700   6.245 -0.6462 -0.0899  0.4076
   41MOL    H8815368   4.669   4.601   6.453 -2.0816 -3.6896  1.0522
   41MOL    H8915369   4.701   4.525   6.302  1.6588  1.1001 -0.4396
   41MOL    H9015370   4.444   4.547   6.264  1.1921 -3.1476 -0.4775
   41MOL    H9115371   4.487   4.432   6.396  0.8020 -0.9198 -1.8023
   41MOL    H9215372   4.414   4.729   6.437 -0.7136 -0.0027  0.7759
   41MOL    H9315373   4.455   4.618   6.562 -0.6765 -3.8449  1.3811
   41MOL    H9415374   4.251   4.490   6.519 -0.8516 -0.8960 -2.6593
   41MOL    H9515375   4.223   4.655   6.559 -0.0878  0.3855 -1.7661
   41MOL    H9615376   4.201   4.593   6.390 -0.8573 -0.6510  0.6778
   41MOL    C9715377   4.807   4.833   6.412  0.1329 -0.4160 -0.3412
   41MOL    C9815378   4.917   4.743   6.488 -0.5903 -0.0452 -0.1675
   41MOL    O9915379   5.040   4.746   6.412  0.0150 -0.8371 -0.0868
   41MOL   C10015380   5.079   4.618   6.355  0.1061  0.3654 -0.1695
   41MOL   C10115381   5.213   4.641   6.284  0.1565 -0.0782  0.2230
   41MOL   C10215382   5.296   4.511   6.261  0.2606 -0.4292 -0.1291
   41MOL   C10315383   5.432   4.530   6.197  0.5286  0.2699  0.3028
   41MOL   H10415384   4.716   4.832   6.472 -0.4538 -2.3280 -1.2315
   41MOL   H10515385   4.833   4.939   6.414  0.9669 -0.6252  0.4038
   41MOL   H10615386   4.888   4.639   6.500 -0.1697 -0.0462  0.9120
   41MOL   H10715387   5.000   4.594   6.285  0.8637 -0.8957 -0.6025
   41MOL   H10815388   5.095   4.548   6.437  3.6849  0.0069 -1.0617
   41MOL   H10915389   5.267   4.710   6.349 -1.4935  0.8180  0.6776
   41MOL   H11015390   5.190   4.696   6.193 -1.8473 -0.0902  0.6967
   41MOL   H11115391   5.243   4.447   6.191  0.0459  0.1467 -0.4953
   41MOL   H11215392   5.300   4.448   6.350 -0.4974 -1.1995 -0.6324
   41MOL   H11315393   5.489   4.439   6.176 -0.2416 -0.0561 -0.4291
   41MOL   H11415394   5.417   4.577   6.100  0.2226 -2.3644 -0.9853
   41MOL   H11515395   5.494   4.589   6.263  2.5878 -0.6884 -0.7364
   41MOL   C11615396   4.943   4.806   6.620 -0.1962  0.5672 -0.3508
   41MOL   C11715397   5.011   4.718   6.727 -0.1651  0.5317  0.3807
   41MOL   O11815398   4.952   4.587   6.729 -0.4091  0.3615  0.0951
   41MOL   C11915399   4.824   4.580   6.793 -0.0725 -0.0130  0.1440
   41MOL   C12015400   4.775   4.434   6.779 -0.6248 -1.3567 -0.0279
   41MOL   C12115401   4.852   4.338   6.858 -0.7401 -0.2753 -0.2899
   41MOL   C12215402   4.818   4.189   6.842 -0.0956  0.5476 -0.1066
   41MOL   H12315403   4.995   4.901   6.607  1.2730 -0.2142 -0.2932
   41MOL   H12415404   4.855   4.840   6.675  0.2317  1.2123 -0.0644
   41MOL   H12515405   4.991   4.763   6.824 -1.5729 -2.3472  1.4743
   41MOL   H12615406   4.744   4.638   6.749  0.0043  1.3726  1.7789
   41MOL   H12715407   4.838   4.618   6.894  2.3741  1.1745 -0.5915
   41MOL   H12815408   4.771   4.401   6.675  2.1503  0.4436 -0.7448
   41MOL   H12915409   4.671   4.432   6.811 -0.8319  3.6466 -0.0876
   41MOL   H13015410   4.960   4.340   6.846 -0.4645 -0.5559  1.8381
   41MOL   H13115411   4.836   4.355   6.965  2.5859  0.3173  0.1597
   41MOL   H13215412   4.755   4.153   6.924  1.7470  0.4825  1.3093
   41MOL   H13315413   4.913   4.138   6.861 -0.0481  1.4581  2.2389
   41MOL   H13415414   4.793   4.139   6.748  1.0012 -0.4023  0.0978
   41MOL   C13515415   5.164   4.703   6.699  0.4188  0.0298  0.9132
   41MOL   C13615416   5.232   4.625   6.805 -0.1740  0.0739  0.0652
   41MOL   O13715417   5.366   4.624   6.766  0.1449  0.8123 -0.0962
   41MOL   C13815418   5.413   4.512   6.695  0.0535  0.4288 -0.5459
   41MOL   C13915419   5.565   4.512   6.660 -0.2846 -0.9763 -0.6443
   41MOL   C14015420   5.657   4.550   6.779  0.2376  0.7079  0.0684
   41MOL   C14115421   5.666   4.431   6.877 -0.2765 -0.0471 -0.8691
   41MOL   H14215422   5.217   4.797   6.683 -1.0195  0.7441  0.2751
   41MOL   H14315423   5.188   4.656   6.604  1.1580 -0.2974  1.2540
   41MOL   H14415424   5.206   4.520   6.815  0.0825  0.1447  1.7247
   41MOL   H14515425   5.358   4.509   6.601 -1.6439 -0.8735  0.4495
   41MOL   H14615426   5.390   4.419   6.747  1.8013  0.8474  1.0277
   41MOL   H14715427   5.565   4.592   6.586 -2.8113 -0.4097 -0.0885
   41MOL   H14815428   5.595   4.415   6.621 -2.6326 -1.7130 -0.7422
   41MOL   H14915429   5.754   4.576   6.737  0.1769  0.7911 -0.0195
   41MOL   H15015430   5.615   4.640   6.824 -1.7286  0.2373 -0.7508
   41MOL   H15115431   5.682   4.341   6.818 -0.0832 -0.5506 -0.0560
   41MOL   H15215432   5.747   4.443   6.948 -1.3009  1.9076  0.0164
   41MOL   H15315433   5.582   4.425   6.946  1.6262 -2.7701  1.3136
   41MOL   C15415434   5.226   4.671   6.952  0.1280 -0.1196 -0.1672
   41MOL   C15515435   5.303   4.587   7.049  0.6199 -0.2466 -0.4880
   41MOL   O15615436   5.225   4.471   7.064  0.1517  0.2176 -0.0930
   41MOL   C15715437   5.306   4.358   7.084  0.9375  0.6490 -0.5445
   41MOL   C15815438   5.217   4.257   7.154  0.6676 -0.0611 -0.2775
   41MOL   C15915439   5.119   4.179   7.060 -0.4691  0.7311 -0.0041
   41MOL   C16015440   5.035   4.071   7.122  0.5248  0.3362 -0.1582
   41MOL   H16115441   5.121   4.671   6.980 -0.4346 -0.9676 -2.1628
   41MOL   H16215442   5.257   4.776   6.954 -0.8662  0.1547  1.6290
   41MOL   H16315443   5.404   4.569   7.010 -0.0509 -0.8622 -2.0120
   41MOL   H16415444   5.345   4.326   6.987  0.0848  0.3994 -0.8135
   41MOL   H16515445   5.389   4.387   7.147 -0.1229 -0.3052  1.3310
   41MOL   H16615446   5.163   4.299   7.239 -1.3761 -0.7069 -1.2479
   41MOL   H16715447   5.288   4.185   7.196 -1.5429 -1.3112  1.4228
   41MOL   H16815448   5.048   4.248   7.014 -1.7382 -0.2986  0.4044
   41MOL   H16915449   5.179   4.134   6.981  1.2452  2.2816  0.3636
   41MOL   H17015450   4.994   4.010   7.042 -1.6656 -1.2193  2.0517
   41MOL   H17115451   5.089   4.001   7.186  1.7690  0.8591 -0.6244
   41MOL   H17215452   4.961   4.117   7.188 -1.6790 -0.9192 -1.6561
   41MOL   C17315453   5.315   4.652   7.185 -0.3186 -0.1131 -0.0642
   41MOL   C17415454   5.416   4.761   7.212  0.0051  0.1006 -1.0382
   41MOL   O17515455   5.360   4.832   7.326 -0.4280 -0.5970  0.0965
   41MOL   C17615456   5.301   4.958   7.299  0.1725 -0.1925 -0.0775
   41MOL   C17715457   5.259   5.029   7.424  0.1431  0.2430 -0.1371
   41MOL   C17815458   5.137   4.962   7.497  0.8193  0.6959  0.1997
   41MOL   C17915459   5.109   5.018   7.635 -0.1678 -0.7247 -0.5351
   41MOL   H18015460   5.346   4.572   7.252  0.4022  1.3973  1.4426
   41MOL   H18115461   5.217   4.688   7.217  0.3235  0.9148  0.7981
   41MOL   H18215462   5.420   4.821   7.121 -1.5120 -0.1780 -1.3062
   41MOL   H18315463   5.204   4.955   7.249 -1.2151 -0.6773  2.4933
   41MOL   H18415464   5.366   5.019   7.237 -0.1535 -1.0653 -1.3065
   41MOL   H18515465   5.228   5.129   7.395  2.4183  1.0612  0.1450
   41MOL   H18615466   5.341   5.039   7.495 -1.2385 -2.5700  1.9454
   41MOL   H18715467   5.058   4.975   7.423 -0.1333 -0.6766  0.9583
   41MOL   H18815468   5.158   4.856   7.505 -2.0775  0.1607  1.3668
   41MOL   H18915469   5.016   4.977   7.674 -0.2567 -0.0669 -0.0542
   41MOL   H19015470   5.185   4.994   7.710  0.6310  1.2017 -0.7122
   41MOL   H19115471   5.099   5.126   7.632  0.1942 -0.6949 -0.7184
   41MOL   C19215472   5.559   4.703   7.248  0.4544  0.0781  0.0658
   41MOL   C19315473   5.674   4.797   7.238  0.1080  0.1759 -0.5643
   41MOL   O19415474   5.769   4.779   7.340 -1.3042 -0.3874 -0.2976
   41MOL   C19515475   5.753   4.852   7.459 -0.1121  0.1722  0.7482
   41MOL   C19615476   5.881   4.837   7.535 -0.5091  0.0711  0.6443
   41MOL   C19715477   5.877   4.916   7.664 -0.0509  0.2369  0.6923
   41MOL   C19815478   5.897   5.072   7.645 -0.1084 -0.2876 -0.2375
   41MOL   H19915479   5.572   4.610   7.192 -1.6542  1.2356 -2.4126
   41MOL   H20015480   5.543   4.673   7.352 -2.1681 -0.5626 -0.4616
   41MOL   H20115481   5.640   4.901   7.241  0.4775  0.2689  2.1890
   41MOL   H20215482   5.673   4.801   7.511 -0.1013 -0.0740  0.5231
   41MOL   H20315483   5.730   4.958   7.442 -1.6345 -0.2225  0.3306
   41MOL   H20415484   5.886   4.732   7.566 -1.5937 -0.0815  0.3226
   41MOL   H20515485   5.961   4.875   7.472  0.6055  0.8696  2.4737
   41MOL   H20615486   5.960   4.878   7.724  0.0363  0.2621  0.5901
   41MOL   H20715487   5.784   4.896   7.716 -0.2236 -0.8012  0.0031
   41MOL   H20815488   5.996   5.079   7.599  0.3481 -1.6512  0.5081
   41MOL   H20915489   5.819   5.114   7.582  1.5259  0.0611 -2.0766
   41MOL   H21015490   5.903   5.123   7.741 -2.6848 -2.6447  1.2557
   41MOL   C21115491   5.747   4.794   7.102 -0.6694 -0.1666 -0.2236
   41MOL   C21215492   5.840   4.915   7.084  0.7006 -0.2047  0.1567
   41MOL   O21315493   5.905   4.862   6.966  0.3208 -0.3316  0.4054
   41MOL   C21415494   6.042   4.851   6.973 -0.0044  0.1696  0.0205
   41MOL   C21515495   6.113   4.829   6.838 -0.1070  0.3208 -0.2856
   41MOL   C21615496   6.075   4.692   6.773 -0.0447  0.0555 -0.0391
   41MOL   C21715497   6.157   4.662   6.644 -0.7946 -0.1846  0.3486
   41MOL   H21815498   5.680   4.792   7.015 -0.8569 -1.2471 -0.0646
   41MOL   H21915499   5.811   4.707   7.092  0.4664  0.9745 -3.5669
   41MOL   H22015500   5.905   4.924   7.171  1.4745 -1.2932 -0.2866
   41MOL   H22115501   6.081   4.936   7.029 -0.3609  0.8652 -0.7819
   41MOL   H22215502   6.073   4.763   7.030 -0.9000 -1.5401 -2.0593
   41MOL   H22315503   6.099   4.916   6.775 -0.6187 -0.5831 -1.4564
   41MOL   H22415504   6.218   4.809   6.858 -0.0806 -1.7398 -2.2461
   41MOL   H22515505   5.968   4.691   6.752 -0.4840 -0.8392  2.0409
   41MOL   H22615506   6.076   4.612   6.848 -1.9791 -0.4392 -0.5148
   41MOL   H22715507   6.172   4.759   6.595  2.4011 -1.3089 -1.0209
   41MOL   H22815508   6.111   4.590   6.577  0.3430 -2.1276  1.6090
   41MOL   H22915509   6.258   4.622   6.655 -0.6349  0.8162  2.9891
   41MOL   C23015510   5.767   5.050   7.052  0.1411  0.0665 -0.2216
   41MOL   C23115511   5.857   5.164   7.012  0.6233 -0.1928 -0.1212
   41MOL   O23215512   5.759   5.262   6.967 -0.7448 -0.1410 -0.4225
   41MOL   C23315513   5.781   5.301   6.833  0.0330 -0.1686 -0.5827
   41MOL   C23415514   5.704   5.421   6.793  0.4009 -0.5702 -0.3464
   41MOL   C23515515   5.550   5.397   6.796  0.4243 -0.2278 -0.4514
   41MOL   C23615516   5.468   5.528   6.817  0.4089  0.2017 -0.2806
   41MOL   H23715517   5.722   5.076   7.148 -0.9144  1.2512 -1.0107
   41MOL   H23815518   5.700   5.035   6.968  0.8505 -0.9187 -0.6091
   41MOL   H23915519   5.925   5.125   6.937 -0.7361 -0.7279 -1.0891
   41MOL   H24015520   5.882   5.340   6.832  0.3088 -0.8839 -0.2822
   41MOL   H24115521   5.771   5.211   6.772 -2.0698 -1.1600  1.1151
   41MOL   H24215522   5.717   5.496   6.871  1.8561 -0.9079 -0.2577
   41MOL   H24315523   5.737   5.468   6.700 -1.1875  2.1980  0.4233
   41MOL   H24415524   5.534   5.339   6.887  0.9063  0.2778 -0.0325
   41MOL   H24515525   5.524   5.344   6.705 -1.3357 -1.0205  0.4944
   41MOL   H24615526   5.362   5.502   6.818  0.2957  0.6693  0.4480
   41MOL   H24715527   5.493   5.600   6.740  2.0579  1.3225  1.2853
   41MOL   H24815528   5.494   5.563   6.917  0.5671 -0.7603  0.0226
   41MOL   C24915529   5.919   5.232   7.131 -0.1257  0.0632  0.3008
   41MOL   C25015530   6.011   5.351   7.089 -0.3512  0.3299 -0.6218
   41MOL   O25115531   6.127   5.276   7.042 -0.1765 -0.0549 -0.3292
   41MOL   C25215532   6.203   5.337   6.941 -0.5701  0.2418 -0.0764
   41MOL   C25315533   6.325   5.259   6.892 -0.6820  0.3990 -0.4084
   41MOL   C25415534   6.297   5.109   6.852  0.3443 -1.1878  0.0726
   41MOL   C25515535   6.421   5.044   6.793 -0.4531  0.4772  0.1210
   41MOL   H25615536   5.985   5.166   7.187  0.3614 -1.0178 -1.5049
   41MOL   H25715537   5.835   5.268   7.190  0.1721 -1.2545  1.5370
   41MOL   H25815538   5.969   5.408   7.006  0.8453 -0.3812 -1.7433
   41MOL   H25915539   6.227   5.436   6.980  0.7455 -0.1126  0.0430
   41MOL   H26015540   6.139   5.354   6.854 -0.3642 -2.3051 -0.7730
   41MOL   H26115541   6.360   5.314   6.805  1.4753  0.1139  0.2550
   41MOL   H26215542   6.409   5.258   6.961  0.7483 -0.6609 -2.1150
   41MOL   H26315543   6.274   5.052   6.942  1.3025 -2.3431 -0.3950
   41MOL   H26415544   6.204   5.101   6.797  0.6433 -0.1829 -0.5868
   41MOL   H26515545   6.388   4.958   6.735 -0.3211  0.7514 -0.3613
   41MOL   H26615546   6.488   4.998   6.865 -0.4990 -1.2274 -0.8821
   41MOL   H26715547   6.471   5.108   6.721 -0.0516 -0.8579 -0.8146
   41MOL   C26815548   6.054   5.458   7.195  0.0357 -0.2979 -0.3511
   41MOL   C26915549   5.943   5.545   7.254 -0.1638 -0.2267 -0.4975
   41MOL   O27015550   5.972   5.583   7.387  0.6188  0.3516 -0.5402
   41MOL   C27115551   5.941   5.495   7.495  0.3676  0.6767 -0.0058
   41MOL   C27215552   5.952   5.574   7.627 -0.0473  0.6676  0.4698
   41MOL   C27315553   5.859   5.696   7.636  0.1426 -0.4135  0.2646
   41MOL   C27415554   5.854   5.764   7.774 -0.1612  0.5887 -0.3186
   41MOL   H27515555   6.119   5.407   7.267 -0.0576 -1.8424 -1.3433
   41MOL   H27615556   6.128   5.529   7.159 -0.7442  1.4117  1.3120
   41MOL   H27715557   5.857   5.478   7.255  0.5608 -1.1690  2.1077
   41MOL   H27815558   5.835   5.472   7.493  0.6541 -1.9230  4.9491
   41MOL   H27915559   6.004   5.406   7.499 -0.1658  0.2243 -1.5015
   41MOL   H28015560   5.919   5.509   7.708 -0.0375 -1.2537 -1.0207
   41MOL   H28115561   6.055   5.599   7.654  0.2075  0.6921 -0.5217
   41MOL   H28215562   5.756   5.660   7.628  0.8519 -1.9043 -3.5767
   41MOL   H28315563   5.882   5.770   7.559 -0.1868  0.3040  0.8459
   41MOL   H28415564   5.955   5.797   7.798 -0.1843 -0.3061  1.0363
   41MOL   H28515565   5.816   5.707   0.057  0.5054  2.0637  0.9881
   41MOL   H28615566   5.791   5.853   7.768 -1.0584  0.0102  0.4474
   41MOL   C28715567   5.911   5.666   7.168  0.6592 -0.0758 -0.2002
   41MOL   C28815568   5.782   5.743   7.205  0.3331 -0.5695 -1.2240
   41MOL   O28915569   5.671   5.651   7.209  0.3077 -0.3134  0.0833
   41MOL   C29015570   5.570   5.675   7.304 -0.7006  0.2242 -0.6771
   41MOL   C29115571   5.483   5.548   7.304 -1.1425  0.5154  0.3502
   41MOL   C29215572   5.558   5.422   7.351  0.2236 -0.3816  0.4249
   41MOL   C29315573   5.462   5.297   7.368  0.2075  0.5108  0.4758
   41MOL   H29415574   5.896   5.607   7.077  0.0981  0.2966 -0.3532
   41MOL   H29515575   5.999   5.729   7.158  0.3976  0.7975  2.4836
   41MOL   H29615576   5.795   5.790   7.303  0.9096  0.8878 -1.9859
   41MOL   H29715577   5.612   5.694   7.404 -2.2268  1.3587 -0.2277
   41MOL   H29815578   5.515   5.765   7.277  2.6582  2.2753 -1.0671
   41MOL   H29915579   5.442   5.525   7.205  0.8832 -0.6790 -0.2528
   41MOL   H30015580   5.394   5.570   7.364 -1.2104  0.2726  0.3407
   41MOL   H30115581   5.614   5.444   7.441 -0.7079  2.4727  0.3524
   41MOL   H30215582   5.635   5.396   7.278  1.6599  0.9285  1.4493
   41MOL   H30315583   5.528   5.221   7.409 -1.4714 -1.4029 -0.3107
   41MOL   H30415584   5.378   5.312   7.436 -1.9297  0.8842 -2.1545
   41MOL   H30515585   5.419   5.251   7.279 -1.8170 -0.4301  1.8999
   41MOL   C30615586   5.743   5.847   7.099  0.8598 -0.4481  0.4029
   41MOL   C30715587   5.851   5.943   7.039  0.1742  0.1725 -0.1791
   41MOL   O30815588   5.939   5.855   6.969 -0.0051 -0.0386 -0.2336
   41MOL   C30915589   6.021   5.912   6.870  0.1488  0.3108  0.1042
   41MOL   C31015590   6.056   5.786   6.793  0.0931  0.3674 -0.8610
   41MOL   C31115591   5.942   5.722   6.712  0.4766 -0.3504 -0.0865
   41MOL   C31215592   5.979   5.600   6.628  0.3682 -0.5880  0.4365
   41MOL   H31315593   5.692   5.791   7.020  0.7747 -0.4950  0.4913
   41MOL   H31415594   5.666   5.915   7.136  0.2671 -0.4307 -0.8352
   41MOL   H31515595   5.808   6.018   6.973  0.9720 -0.8355 -1.8688
   41MOL   H31615596   6.110   5.950   6.920  0.4448  1.0261 -0.9517
   41MOL   H31715597   5.974   5.983   6.801 -1.5304 -1.1725 -0.3153
   41MOL   H31815598   6.093   5.714   6.866 -1.1483 -0.5708 -1.1462
   41MOL   H31915599   6.140   5.805   6.726  0.4406  0.4230 -0.4126
   41MOL   H32015600   5.867   5.688   6.784 -0.2884  0.0399 -0.6900
   41MOL   H32115601   5.902   5.803   6.651  1.1888 -1.0311 -1.4660
   41MOL   H32215602   6.048   5.629   6.548 -2.1971 -1.6302 -2.2758
   41MOL   H32315603   5.897   5.567   6.564  0.3361  1.2535 -0.5282
   41MOL   H32415604   6.017   5.512   6.679 -1.8772 -0.6312  2.1218
   41MOL   C32515605   5.920   6.027   7.145 -0.3936 -0.7577  0.0683
   41MOL   C32615606   5.829   6.105   7.244 -0.5023 -0.0542  0.2243
   41MOL   O32715607   5.909   6.148   7.351 -0.3059 -0.0505  0.0393
   41MOL   C32815608   5.916   6.062   7.462 -0.0139  0.5875  0.2081
   41MOL   C32915609   6.015   6.118   7.566  0.8124 -0.0246  0.0485
   41MOL   C33015610   6.056   6.034   7.688  0.0279 -0.3932  0.0659
   41MOL   C33115611   6.156   6.118   7.766  0.2119  0.1989  0.1203
   41MOL   H33215612   5.998   6.084   7.095  0.4200 -1.1983  0.8054
   41MOL   H33315613   5.980   5.950   7.194  1.6878 -0.2452 -1.6183
   41MOL   H33415614   5.747   6.051   7.292 -0.6505  0.1209  0.1637
   41MOL   H33515615   5.958   5.966   7.430 -0.8488  0.9243 -1.9944
   41MOL   H33615616   5.818   6.034   7.500 -0.8794  0.3598 -2.0811
   41MOL   H33715617   6.099   6.147   7.503 -1.4950  1.6727 -2.4009
   41MOL   H33815618   5.963   6.210   7.593 -2.5526 -1.7906 -0.1888
   41MOL   H33915619   6.092   5.934   7.666 -0.4098 -0.6016  0.2725
   41MOL   H34015620   5.963   6.013   7.742 -0.8399 -0.0040 -1.2506
   41MOL   H34115621   6.110   6.217   7.776 -2.0813 -1.0726  2.7337
   41MOL   H34215622   6.252   6.128   7.717  0.5333  2.1016  1.0908
   41MOL   H34315623   6.176   6.081   0.065  0.2014  0.2793  0.1520
   41MOL   C34415624   5.783   6.231   7.167 -0.1619 -0.1561 -0.4969
   41MOL   C34515625   5.697   6.325   7.248 -0.2084 -0.3513  0.0947
   41MOL   O34615626   5.570   6.264   7.279  0.4302 -0.9633  0.1931
   41MOL   C34715627   5.538   6.273   7.414 -0.4421  0.0286 -0.4165
   41MOL   C34815628   5.409   6.201   7.451 -0.5737  0.0051 -0.4150
   41MOL   C34915629   5.401   6.047   7.431 -0.4899  0.6452 -0.4790
   41MOL   C35015630   5.268   5.979   7.478 -0.7889  0.2443 -0.5277
   41MOL   H35115631   5.863   6.289   7.121 -0.6518 -0.6917 -2.0573
   41MOL   H35215632   5.720   6.199   7.084 -0.8886  0.8288 -0.3384
   41MOL   H35315633   5.750   6.338   7.343  1.1219 -1.6964 -0.4355
   41MOL   H35415634   5.528   6.378   7.442 -0.1132 -0.2096  0.6260
   41MOL   H35515635   5.607   6.222   7.481  0.5961  2.2580  0.2624
   41MOL   H35615636   5.329   6.249   7.395  1.5473  1.2330 -2.4843
   41MOL   H35715637   5.398   6.220   7.558  1.9054  2.9051 -0.6142
   41MOL   H35815638   5.415   6.036   7.324  0.8656 -2.5642 -0.0220
   41MOL   H35915639   5.485   6.006   7.487  0.5860  0.8191 -1.9369
   41MOL   H36015640   5.174   6.020   7.442 -0.7134  2.0270  1.1943
   41MOL   H36115641   5.263   5.998   7.585  0.3004  0.4141 -0.4974
   41MOL   H36215642   5.284   5.872   7.473 -1.1647  0.0779  1.3550
   41MOL   C36315643   5.671   6.468   7.189  0.3142  0.2809 -0.3071
   41MOL   C36415644   5.603   6.457   7.046 -0.3220  0.1657  0.1894
   41MOL   O36515645   5.595   6.588   7.004  0.3373  0.6682  0.1180
   41MOL   C36615646   5.530   6.606   6.883  0.3513 -0.4536  1.7629
   41MOL   C36715647   5.512   6.758   6.873  0.9918 -0.4590 -0.2374
   41MOL   C36815648   5.436   6.806   6.743 -0.8395 -0.0878  0.0520
   41MOL   C36915649   5.435   6.960   6.729 -0.2243 -0.6680 -0.1767
   41MOL   H37015650   5.765   6.520   7.171  0.5420  1.1394  2.9112
   41MOL   H37115651   5.606   6.521   7.259  1.0586  0.8115 -0.0128
   41MOL   H37215652   5.505   6.410   7.051  0.0294 -0.3428  3.1140
   41MOL   H37315653   5.430   6.561   6.879  0.7879 -1.3429  0.7880
   41MOL   H37415654   5.597   6.563   6.809  0.8728  1.4999  1.0692
   41MOL   H37515655   5.607   6.811   6.882  0.8110 -0.3713  1.1213
   41MOL   H37615656   5.456   6.788   6.961  0.7430 -1.9198  0.1187
   41MOL   H37715657   5.335   6.766   6.739 -0.0812 -1.8741 -2.5617
   41MOL   H37815658   5.477   6.759   6.654 -0.5141  1.3715 -0.5895
   41MOL   H37915659   5.363   6.995   6.654  0.9387  0.9447 -0.5737
   41MOL   H38015660   5.403   7.011   6.820 -0.1107 -0.7706 -0.0795
   41MOL   H38115661   5.535   6.991   6.699 -1.1649  3.3186  0.5294
   41MOL   H38215662   5.666   6.395   6.981  0.7555  0.3759  1.0109
   42MOL     C115663   6.149   7.089   5.044 -0.0533 -0.1443 -0.2140
   42MOL     C215664   6.259   7.123   4.945  0.2669 -0.5409 -0.3318
   42MOL     O315665   6.299   7.269   4.926 -0.4683  0.6524 -0.1517
   42MOL     C415666   6.220   7.339   4.834  0.2518  0.1931  0.3005
   42MOL     C515667   6.246   7.490   4.832 -0.4101 -0.2476  0.1978
   42MOL     C615668   6.196   7.558   4.706 -0.5953 -0.2485 -0.2426
   42MOL     C715669   6.229   7.708   4.719  0.4901 -0.1088 -0.0724
   42MOL     H815670   6.183   7.134   5.137 -0.8642 -1.9573  0.9860
   42MOL     H915671   6.051   7.131   5.022 -0.1963  0.2413  1.1232
   42MOL    H1015672   6.230   7.081   4.849 -1.3103  1.0689 -0.5831
   42MOL    H1115673   6.237   7.288   4.739 -2.0369 -0.3628  0.1689
   42MOL    H1215674   6.115   7.327   4.860  0.0525  0.8509 -0.1844
   42MOL    H1315675   6.350   7.519   4.847 -0.5416  0.7200 -0.7455
   42MOL    H1415676   6.199   7.526   4.923  1.7375 -1.1386  1.7014
   42MOL    H1515677   6.090   7.540   4.688 -0.4350 -0.9903 -0.4679
   42MOL    H1615678   6.260   7.510   4.632 -0.8012 -1.4614  0.3423
   42MOL    H1715679   6.333   7.735   4.696 -0.6011  3.0413 -1.6360
   42MOL    H1815680   6.203   7.754   4.814  0.7628  2.0697 -1.0098
   42MOL    H1915681   6.173   7.756   4.639  0.3018  0.1780  0.2296
   42MOL    H2015682   6.124   6.984   5.059 -1.0575  0.0504 -0.4845
   42MOL    C2115683   6.387   7.041   4.988  0.0299  0.5340 -0.1954
   42MOL    C2215684   6.519   7.082   4.922 -0.1106 -0.9159  0.2881
   42MOL    O2315685   6.625   7.000   4.973  0.2085  0.0521 -0.0111
   42MOL    C2415686   6.692   7.062   5.082  0.1889 -0.4804  0.2787
   42MOL    C2515687   6.728   6.956   5.189  0.5639 -0.2938  0.6856
   42MOL    C2615688   6.820   7.001   5.300 -0.1293  0.3593 -0.2191
   42MOL    C2715689   6.761   7.106   5.391 -0.3461  0.4177  0.0484
   42MOL    H2815690   6.359   6.936   4.981 -1.3258  0.9371 -0.9706
   42MOL    H2915691   6.389   7.054   5.096 -0.2852 -0.1907 -0.0989
   42MOL    H3015692   6.540   7.188   4.941 -3.1840 -0.2636  0.3719
   42MOL    H3115693   6.633   7.138   5.134  0.9042 -1.1012  2.0384
   42MOL    H3215694   6.793   7.097   5.062  0.4418 -1.5215 -0.2568
   42MOL    H3315695   6.639   6.902   5.221 -0.5541  0.2738 -1.3850
   42MOL    H3415696   6.784   6.883   5.130  0.0024 -0.6250  0.5570
   42MOL    H3515697   6.840   6.914   5.363 -0.2913  0.2214 -0.3590
   42MOL    H3615698   6.919   7.026   5.261 -0.4329 -1.1760 -2.0143
   42MOL    H3715699   6.806   7.134   5.486  2.3660  2.0775 -1.6606
   42MOL    H3815700   6.751   7.198   5.333 -0.0595  0.7921  0.5841
   42MOL    H3915701   6.661   7.071   5.419  0.3579 -1.6155  0.0923
   42MOL    C4015702   6.509   7.055   4.766  0.1588 -0.1880  0.2751
   42MOL    C4115703   6.639   7.074   4.686 -0.3352  0.3155  0.1379
   42MOL    O4215704   6.630   7.171   4.586  0.3135  0.5788  0.2247
   42MOL    C4315705   6.613   7.305   4.629  0.0608 -0.3670  0.0232
   42MOL    C4415706   6.688   7.391   4.522  0.2608 -0.2322 -0.5356
   42MOL    C4515707   6.657   7.541   4.549 -0.4343 -0.1748 -0.1160
   42MOL    C4615708   6.705   7.606   4.680  0.6083  0.0342  0.3965
   42MOL    H4715709   6.431   7.123   4.733  0.2170  0.2595  1.0471
   42MOL    H4815710   6.467   6.957   4.743 -0.4611  0.3194 -0.8008
   42MOL    H4915711   6.723   7.094   4.752 -0.5227  0.4575  0.3326
   42MOL    H5015712   6.663   7.328   4.723 -0.3983 -0.5960  0.3202
   42MOL    H5115713   6.507   7.331   4.627  0.2152  0.5042  2.3615
   42MOL    H5215714   6.644   7.359   4.428 -1.9170  1.4324 -0.1257
   42MOL    H5315715   6.796   7.373   4.522  0.2856 -0.0713 -1.1782
   42MOL    H5415716   6.550   7.556   4.540 -0.0944  1.5788 -1.6202
   42MOL    H5515717   6.701   7.618   4.485 -0.1903  0.7497  1.1466
   42MOL    H5615718   6.659   7.558   4.766  0.8830 -0.9257  0.0258
   42MOL    H5715719   6.813   7.612   4.685  0.6912 -0.3595 -0.6679
   42MOL    H5815720   6.684   7.713   4.677 -1.0158 -0.2968 -0.9943
   42MOL    C5915721   6.669   6.934   4.621  0.3746  0.8315 -0.4989
   42MOL    C6015722   6.781   6.923   4.523  0.2096  0.0489  0.3349
   42MOL    O6115723   6.908   6.904   4.596  0.4062 -0.6524  0.1535
   42MOL    C6215724   6.980   7.026   4.615  0.7575 -0.1634 -0.8359
   42MOL    C6315725   7.073   6.993   4.731  0.0014  0.8012 -0.4688
   42MOL    C6415726   7.003   6.981   4.866 -0.3507  0.6218 -0.1003
   42MOL    C6515727   7.099   6.944   4.982  0.1552 -0.7452  0.2233
   42MOL    H6615728   6.682   6.871   4.709 -0.3398  2.5494  0.8789
   42MOL    H6715729   6.586   6.885   4.571  1.0256  1.3632 -2.1314
   42MOL    H6815730   6.787   7.011   4.458 -1.1425 -1.5612 -2.0570
   42MOL    H6915731   6.919   7.107   4.656  1.8137  0.8798 -1.2967
   42MOL    H7015732   7.023   7.064   4.522 -1.8187  1.2831 -1.4752
   42MOL    H7115733   7.124   6.897   4.714 -1.0550  0.5041 -1.9842
   42MOL    H7215734   7.153   7.066   4.725 -0.6997  1.8114  1.8576
   42MOL    H7315735   6.949   7.071   4.896  0.9893  0.0270  4.3496
   42MOL    H7415736   6.928   6.904   4.850  0.4569  0.1997 -2.0060
   42MOL    H7515737   7.158   6.859   4.948 -1.8519 -2.3123  0.6108
   42MOL    H7615738   7.174   7.015   5.018 -1.0395  0.0199  1.2198
   42MOL    H7715739   7.049   6.911   5.073  1.8785 -0.0462  1.4646
   42MOL    C7815740   6.769   6.794   4.441  0.4109  0.1270  0.2560
   42MOL    C7915741   6.664   6.789   4.327  0.0980 -0.3020  0.2410
   42MOL    O8015742   6.548   6.733   4.381  0.1874  0.4309  0.5270
   42MOL    C8115743   6.421   6.757   4.314  1.2008 -0.0899  0.1631
   42MOL    C8215744   6.306   6.729   4.414 -0.0415  0.0926  0.2622
   42MOL    C8315745   6.166   6.785   4.385 -0.0210 -0.3147  0.5452
   42MOL    C8415746   6.066   6.751   4.494 -0.4554  0.5942  0.2561
   42MOL    H8515747   6.771   6.701   4.499 -4.8252  0.1714  0.7234
   42MOL    H8615748   6.861   6.793   4.383 -1.1610 -0.1014 -2.3159
   42MOL    H8715749   6.645   6.893   4.298 -0.7908  0.1189  2.2066
   42MOL    H8815750   6.423   6.690   4.228 -0.8373 -0.9752  0.7818
   42MOL    H8915751   6.414   6.863   4.287 -0.0439 -0.4814 -1.1333
   42MOL    H9015752   6.295   6.622   4.429 -0.6506  0.3420  1.6426
   42MOL    H9115753   6.343   6.785   4.500  0.8152 -0.6180  0.3669
   42MOL    H9215754   6.128   6.752   4.288  1.0808  1.2256 -0.4442
   42MOL    H9315755   6.176   6.894   4.381  0.6991 -0.3856  0.2481
   42MOL    H9415756   6.043   6.644   4.493  1.0088  0.2656 -0.2193
   42MOL    H9515757   6.098   6.771   4.596  1.6522  1.0923 -0.4748
   42MOL    H9615758   5.972   6.796   4.465  0.4257  0.7797 -2.4587
   42MOL    C9715759   6.705   6.709   4.206 -0.5749 -0.0348  0.4676
   42MOL    C9815760   6.742   6.557   4.217  0.1509 -0.4829  0.4956
   42MOL    O9915761   6.621   6.482   4.232 -0.3976  0.3350 -0.3080
   42MOL   C10015762   6.605   6.424   4.366  0.1775  0.1416  0.2102
   42MOL   C10115763   6.481   6.338   4.365 -0.0231  0.9214 -0.2328
   42MOL   C10215764   6.481   6.194   4.309 -0.3283 -0.4343 -0.0507
   42MOL   C10315765   6.395   6.098   4.382 -0.4277 -0.0621  0.4409
   42MOL   H10415766   6.791   6.763   4.166  0.2959 -1.8949 -0.2031
   42MOL   H10515767   6.631   6.706   4.125 -0.3194 -1.7911  0.2919
   42MOL   H10615768   6.804   6.536   4.304  0.7634  0.1566  0.2120
   42MOL   H10715769   6.599   6.511   4.432  1.0586  0.3188  0.0679
   42MOL   H10815770   6.694   6.367   4.395 -0.2681 -0.2131  0.8739
   42MOL   H10915771   6.390   6.395   4.346 -1.3402 -0.8745  0.4833
   42MOL   H11015772   6.463   6.329   4.472 -0.3605  2.2415 -0.1724
   42MOL   H11115773   6.587   6.171   4.317 -0.5912 -1.1566  1.7971
   42MOL   H11215774   6.453   6.195   4.204  1.2283  0.8202 -0.4600
   42MOL   H11315775   6.408   5.997   4.343 -1.6962 -0.2321  0.4542
   42MOL   H11415776   6.415   6.108   4.489  1.4779 -1.5219  0.2432
   42MOL   H11515777   6.291   6.126   4.368 -0.4309  0.4133  1.3852
   42MOL   C11615778   6.818   6.496   4.102  0.0236  0.2051  0.2777
   42MOL   C11715779   6.860   6.349   4.116 -0.2490 -0.4090  0.6318
   42MOL   O11815780   6.895   6.296   3.983 -0.5484 -0.7229 -0.3800
   42MOL   C11915781   6.786   6.241   3.905 -0.7480  0.1181  0.0978
   42MOL   C12015782   6.838   6.123   3.824  0.0141 -0.0056  0.1159
   42MOL   C12115783   6.721   6.057   3.750 -0.7169  0.4647  0.3089
   42MOL   C12215784   6.762   5.947   3.652  0.6686  0.1504 -0.0541
   42MOL   H12315785   6.752   6.492   4.016 -4.4887 -0.2967  3.5762
   42MOL   H12415786   6.902   6.554   4.065  0.7670 -0.1489  1.3666
   42MOL   H12515787   6.788   6.286   4.167 -0.0819  0.9560  2.5833
   42MOL   H12615788   6.751   6.323   3.842  0.4708  0.8230  0.3286
   42MOL   H12715789   6.699   6.224   3.970  0.7754 -1.6632  1.7482
   42MOL   H12815790   6.878   6.049   3.894  1.2679  1.0238  0.5086
   42MOL   H12915791   6.918   6.146   3.754  0.1605  1.0857  0.6301
   42MOL   H13015792   6.661   6.007   3.826  0.6178 -0.3411  0.8427
   42MOL   H13115793   6.645   6.123   3.709 -1.0106  0.7907  1.3569
   42MOL   H13215794   6.796   5.979   3.554  3.7933  1.9339  1.5212
   42MOL   H13315795   6.676   5.882   3.640 -0.8462  2.5220 -2.3228
   42MOL   H13415796   6.838   5.883   3.698  0.1844 -1.6013 -1.6505
   42MOL   C13515797   6.978   6.329   4.207  0.2407 -0.1841  0.4577
   42MOL   C13615798   7.033   6.191   4.213 -0.4894  0.3578  0.4738
   42MOL   O13715799   7.130   6.200   4.317 -0.1707 -0.1985  0.1383
   42MOL   C13815800   7.269   6.241   4.286 -0.0995 -0.1345  0.1349
   42MOL   C13915801   7.341   6.273   4.418 -0.3733 -0.0263  0.6924
   42MOL   C14015802   7.357   6.151   4.518  0.3007 -0.1316  0.0114
   42MOL   C14115803   7.436   6.205   4.643 -0.0973  0.3311  0.2408
   42MOL   H14215804   6.963   6.363   4.309  0.9647  2.1237 -0.1872
   42MOL   H14315805   7.052   6.405   4.184  1.1261 -1.3007 -0.4521
   42MOL   H14415806   7.081   6.170   4.118  1.2121 -1.9741  1.8002
   42MOL   H14515807   7.264   6.328   4.221 -0.5800 -1.1672 -1.2374
   42MOL   H14615808   7.315   6.169   4.219  1.5507  2.0567 -1.1520
   42MOL   H14715809   7.275   6.343   4.471 -1.2612 -1.5955  1.6850
   42MOL   H14815810   7.435   6.319   4.388 -1.1123  0.4254 -0.9922
   42MOL   H14915811   7.262   6.141   4.571  1.5390 -1.5003  1.9900
   42MOL   H15015812   7.387   6.054   4.480 -1.2335 -1.4001  1.9531
   42MOL   H15115813   7.538   6.231   4.613  0.1076 -1.2213 -0.4912
   42MOL   H15215814   7.392   6.302   4.665  0.7039  1.3849 -2.4750
   42MOL   H15315815   7.432   6.137   4.728  1.5102  1.1054  0.9428
   42MOL   C15415816   6.939   6.075   4.243  0.2971 -0.3389  0.0332
   42MOL   C15515817   6.977   5.930   4.212  0.3627  0.6081  0.4875
   42MOL   O15615818   6.998   5.919   4.073  0.1549 -0.6267 -0.4297
   42MOL   C15715819   7.081   5.810   4.036  0.2066  0.5168  0.2807
   42MOL   C15815820   7.099   5.802   3.879 -0.1125  0.0156 -0.1695
   42MOL   C15915821   7.177   5.927   3.836  0.4503  0.3707 -0.1194
   42MOL   C16015822   7.199   5.942   3.688 -0.1579 -0.7545  0.1550
   42MOL   H16115823   6.839   6.085   4.201  0.1032  0.6580  0.7177
   42MOL   H16215824   6.913   6.088   4.348  0.6489  0.8434 -0.0220
   42MOL   H16315825   7.070   5.914   4.265  2.0025  0.9627 -2.1592
   42MOL   H16415826   7.182   5.820   4.075  0.7769 -1.8168 -0.4746
   42MOL   H16515827   7.044   5.711   4.065  1.8220 -0.3236 -0.4513
   42MOL   H16615828   7.002   5.795   3.831 -0.3304  0.8839  0.1256
   42MOL   H16715829   7.144   5.705   3.858  3.2481  1.2756  0.8808
   42MOL   H16815830   7.128   6.014   3.878 -0.2805  0.0296 -0.2636
   42MOL   H16915831   7.270   5.910   3.890  2.2301 -0.9741 -3.4195
   42MOL   H17015832   7.268   5.870   3.646  1.3634  0.7304  0.0213
   42MOL   H17115833   7.102   5.931   3.641 -0.6801 -0.2747  1.0822
   42MOL   H17215834   7.234   6.040   3.655 -1.0899 -1.1836 -2.2052
   42MOL   C17315835   6.864   5.826   4.244  0.2624  0.2379 -0.6173
   42MOL   C17415836   6.810   5.823   4.386 -0.0267  0.5194  0.3744
   42MOL   O17515837   6.686   5.752   4.390  0.3675 -1.1176  0.8327
   42MOL   C17615838   6.602   5.777   4.507 -0.7701 -0.6519  0.0877
   42MOL   C17715839   6.458   5.738   4.475 -0.5237  0.3124  0.0222
   42MOL   C17815840   6.446   5.581   4.495 -0.3102 -0.5325 -0.6096
   42MOL   C17915841   6.303   5.527   4.448 -0.4473  0.1690  0.5398
   42MOL   H18015842   6.889   5.725   4.211  1.3608  1.4736 -3.7256
   42MOL   H18115843   6.783   5.855   4.177  0.5077  1.4005 -0.4184
   42MOL   H18215844   6.788   5.926   4.414 -0.1196  0.9210 -1.1464
   42MOL   H18315845   6.606   5.883   4.533 -0.6803 -0.8980  1.0695
   42MOL   H18415846   6.653   5.721   4.585  1.1063 -0.4235 -0.9553
   42MOL   H18515847   6.440   5.772   4.373  1.5398  3.0906  0.5402
   42MOL   H18615848   6.396   5.794   4.546  0.8650 -0.1463  1.6311
   42MOL   H18715849   6.520   5.528   4.436 -0.3384  1.9710 -3.0338
   42MOL   H18815850   6.460   5.555   4.600 -2.8693 -2.2611 -0.6368
   42MOL   H18915851   6.279   5.567   4.350 -0.0179 -1.0884 -0.0890
   42MOL   H19015852   6.289   5.418   4.449  0.7194  0.0089  0.5799
   42MOL   H19115853   6.230   5.561   4.522  1.7281  1.5318  2.1033
   42MOL   C19215854   6.910   5.773   4.492 -0.8455  0.1627  0.2160
   42MOL   C19315855   6.967   5.632   4.474 -0.6155  0.1520 -0.8909
   42MOL   O19415856   7.088   5.630   4.540  0.0421 -0.4962  0.2476
   42MOL   C19515857   7.200   5.661   4.452  0.3142 -0.3683 -0.0335
   42MOL   C19615858   7.331   5.664   4.538 -0.0569 -0.6746  0.0019
   42MOL   C19715859   7.332   5.760   4.656 -0.5555 -0.1237 -0.4540
   42MOL   C19815860   7.468   5.762   4.719  0.8384  0.4432 -0.6252
   42MOL   H19915861   6.879   5.788   4.596  0.3239  0.2856  0.5461
   42MOL   H20015862   6.996   5.839   4.481 -1.7099  0.5971 -5.2664
   42MOL   H20115863   6.979   5.611   4.367 -2.0813 -0.8501 -0.8652
   42MOL   H20215864   7.202   5.760   4.409  3.5820 -0.3876 -0.0726
   42MOL   H20315865   7.218   5.597   4.366 -1.0321  0.8377 -1.2249
   42MOL   H20415866   7.353   5.566   4.580 -0.1665 -0.8704 -0.3935
   42MOL   H20515867   7.418   5.684   4.476 -1.8318  0.7219 -2.1207
   42MOL   H20615868   7.258   5.716   4.723  0.1667 -0.0097  0.4246
   42MOL   H20715869   7.300   5.861   4.634  0.3307 -0.0952 -1.6767
   42MOL   H20815870   7.488   5.662   4.760 -0.7489  1.3056  2.4646
   42MOL   H20915871   7.545   5.793   4.650  0.1291 -0.5783 -1.8996
   42MOL   H21015872   7.459   5.835   4.800 -0.2204  1.1336 -1.3554
   42MOL   C21115873   6.862   5.535   4.529  0.5331 -0.8136  0.0267
   42MOL   C21215874   6.889   5.383   4.546  0.0033 -0.1854 -0.8326
   42MOL   O21315875   6.774   5.333   4.616 -0.0226 -0.2663  1.0836
   42MOL   C21415876   6.792   5.316   4.754 -0.6274  0.7682 -0.1876
   42MOL   C21515877   6.652   5.269   4.802  0.2559  0.1798 -0.0047
   42MOL   C21615878   6.542   5.380   4.804 -0.3712  0.4979  0.5476
   42MOL   C21715879   6.406   5.314   4.786 -0.4976 -0.0506  0.0642
   42MOL   H21815880   6.778   5.544   4.461 -0.8736  2.6309  2.0892
   42MOL   H21915881   6.831   5.573   4.626  1.1287  1.0115 -0.4826
   42MOL   H22015882   6.979   5.369   4.606  0.2393 -0.7944 -1.3179
   42MOL   H22115883   6.851   5.225   4.769 -1.0314  0.7794  1.4863
   42MOL   H22215884   6.827   5.407   4.801  0.9383  1.5176 -2.6700
   42MOL   H22315885   6.636   5.181   4.739  1.6994 -0.8527  1.0295
   42MOL   H22415886   6.653   5.229   4.903  0.7166  2.4914  0.9226
   42MOL   H22515887   6.576   5.440   4.720 -0.4194  2.0817  1.6524
   42MOL   H22615888   6.555   5.448   4.887  0.4441 -0.5674  1.3075
   42MOL   H22715889   6.395   5.231   4.855 -0.1874 -0.8633 -0.8553
   42MOL   H22815890   6.403   5.282   4.682  3.0360  0.0908 -0.1657
   42MOL   H22915891   6.318   5.372   4.811  0.0738  0.6355  0.5057
   42MOL   C23015892   6.921   5.305   4.417  0.0475  0.1608  0.3967
   42MOL   C23115893   6.953   5.157   4.441 -0.5060  0.3557  0.0849
   42MOL   O23215894   6.989   5.097   4.317 -0.3907 -0.0360 -0.6201
   42MOL   C23315895   6.888   5.010   4.268 -0.1034 -0.4129 -0.7276
   42MOL   C23415896   6.925   4.987   4.122 -0.2367  0.7858 -0.7708
   42MOL   C23515897   6.814   4.914   4.049  0.2776 -0.7058 -0.0866
   42MOL   C23615898   6.880   4.849   3.923  0.6003 -0.1572  0.4613
   42MOL   H23715899   7.009   5.342   4.364 -0.7357 -0.5416 -1.4454
   42MOL   H23815900   6.830   5.300   4.357  0.7788  0.3483 -0.7565
   42MOL   H23915901   6.867   5.111   4.490 -0.9742  1.4551  0.3010
   42MOL   H24015902   6.898   4.926   4.337  2.0685  0.9418  0.6676
   42MOL   H24115903   6.791   5.055   4.284  0.1964 -0.3341  0.9033
   42MOL   H24215904   6.966   5.076   4.074  0.8609  0.5750 -0.2525
   42MOL   H24315905   7.011   4.920   4.110  0.3167  1.5659 -1.1950
   42MOL   H24415906   6.727   4.975   4.024  2.0554  2.0156  0.1445
   42MOL   H24515907   6.784   4.823   4.100 -1.9666 -0.2200 -0.4984
   42MOL   H24615908   6.961   4.781   3.951  1.2149  0.7874  1.0082
   42MOL   H24715909   6.910   4.939   3.869 -1.7086  0.6503  0.4952
   42MOL   H24815910   6.812   4.806   3.850 -0.2532  0.7093  0.7431
   42MOL   C24915911   7.067   5.130   4.544  0.5712 -0.6309 -0.1384
   42MOL   C25015912   7.125   4.985   4.555 -0.1082  0.7050  0.1206
   42MOL   O25115913   7.204   4.960   4.673  0.3106 -0.0908 -0.3338
   42MOL   C25215914   7.119   4.939   4.783 -0.1164 -0.5061  0.6855
   42MOL   C25315915   7.202   4.896   4.897  0.0039 -1.1145  0.2685
   42MOL   C25415916   7.120   4.821   5.007  0.1324 -0.0295  0.2647
   42MOL   C25515917   7.104   4.918   5.126 -0.7622  0.7135  0.1365
   42MOL   H25615918   7.015   5.147   4.639 -2.5569 -0.5738 -1.8165
   42MOL   H25715919   7.140   5.211   4.543 -0.5477  0.4428  1.5643
   42MOL   H25815920   7.038   4.920   4.543 -0.5133  1.2233  0.2634
   42MOL   H25915921   7.056   4.851   4.768 -1.8363  1.1654 -2.2189
   42MOL   H26015922   7.054   5.020   4.816 -0.8409 -0.5366 -0.6194
   42MOL   H26115923   7.288   4.837   4.868 -0.3748 -0.0806 -3.1160
   42MOL   H26215924   7.258   4.984   4.928 -2.4470 -0.4219  3.0350
   42MOL   H26315925   7.024   4.790   4.967  0.5254  0.2034 -0.8653
   42MOL   H26415926   7.177   4.733   5.038  2.4267  0.6796 -1.8113
   42MOL   H26515927   7.024   4.878   5.188  0.9304 -2.1648  0.5629
   42MOL   H26615928   7.076   5.020   5.103 -0.9457  1.0879  1.9545
   42MOL   H26715929   7.202   4.920   5.172 -0.9136  2.0259  0.4149
   42MOL   C26815930   7.216   4.942   4.440 -0.1629 -0.4105  0.2793
   42MOL   C26915931   7.241   4.787   4.425  0.6279  0.3427  0.7016
   42MOL   O27015932   7.129   4.736   4.365 -0.0311 -0.1439  0.7614
   42MOL   C27115933   7.102   4.603   4.375  0.6767 -0.0765  0.1629
   42MOL   C27215934   6.952   4.579   4.351 -0.1864 -0.0003  0.2759
   42MOL   C27315935   6.858   4.627   4.472 -0.5480  0.1392 -0.5615
   42MOL   C27415936   6.708   4.601   4.462  0.8831 -0.5082 -0.9868
   42MOL   H27515937   7.173   4.975   4.346  0.1683  0.6027  0.4771
   42MOL   H27615938   7.311   4.997   4.445 -0.2147 -0.2100 -0.8727
   42MOL   H27715939   7.256   4.738   4.522  0.9031 -0.0686  0.4477
   42MOL   H27815940   7.161   4.543   4.307  1.2068 -1.2735  1.6515
   42MOL   H27915941   7.130   4.575   4.477  0.5363  1.8825  0.7686
   42MOL   H28015942   6.924   4.630   4.260 -0.0882  1.3386  0.9834
   42MOL   H28115943   6.938   4.472   4.333 -1.5050  0.0178  1.1612
   42MOL   H28215944   6.876   4.733   4.493  1.0610 -0.2802  0.2307
   42MOL   H28315945   6.899   4.582   4.562 -1.5616 -0.1689 -0.2505
   42MOL   H28415946   6.668   4.695   4.499 -0.0091 -1.2147 -0.1282
   42MOL   H28515947   6.676   4.530   4.539  0.0417 -1.4482 -2.1839
   42MOL   H28615948   6.673   4.570   4.364  1.2081 -1.5047 -0.7992
   42MOL   C28715949   7.358   4.760   4.323 -0.0999  0.5416  0.0969
   42MOL   C28815950   7.499   4.804   4.369 -0.1378  0.4255  0.4878
   42MOL   O28915951   7.575   4.791   4.253 -0.2706 -0.1953 -0.3835
   42MOL   C29015952   7.685   4.878   4.238 -0.6151 -0.1693 -0.7394
   42MOL   C29115953   7.759   4.811   4.123  0.7168  0.0270 -0.5064
   42MOL   C29215954   0.040   4.690   4.171 -0.9441 -0.6445 -0.2022
   42MOL   C29315955   0.129   4.648   4.059 -0.3582 -0.5731 -0.5632
   42MOL   H29415956   7.334   4.813   4.231 -2.5425  0.6242  0.7446
   42MOL   H29515957   7.368   4.653   4.302 -3.0994  0.1297  0.5643
   42MOL   H29615958   7.489   4.910   4.394 -2.3806  0.0625  1.2052
   42MOL   H29715959   7.666   4.982   4.211 -0.8698 -0.1100 -0.3239
   42MOL   H29815960   7.742   4.883   4.331 -1.3029 -1.9970 -0.1918
   42MOL   H29915961   0.024   4.889   4.086  1.5150 -1.2970 -1.9238
   42MOL   H30015962   7.687   4.788   4.044 -1.5937  1.2880  1.1635
   42MOL   H30115963   7.779   4.603   4.194 -0.3213 -1.0732 -0.1030
   42MOL   H30215964   0.105   4.719   4.254 -2.1263  1.2247  0.0863
   42MOL   H30315965   0.063   4.607   3.982 -0.0192 -1.3655 -0.4336
   42MOL   H30415966   0.191   4.728   4.019  0.9295 -0.7345  1.0601
   42MOL   H30515967   0.194   4.574   4.105  0.0801 -1.3358 -2.3770
   42MOL   C30615968   7.571   4.726   4.486  0.3256  0.6245 -0.1229
   42MOL   C30715969   7.561   4.794   4.627  0.1195 -0.0611 -0.8848
   42MOL   O30815970   7.605   4.928   4.611 -0.7224 -0.9618 -0.5343
   42MOL   C30915971   7.566   5.021   4.711  0.7273 -0.1212 -0.5020
   42MOL   C31015972   7.604   5.166   4.655  0.5879  0.3219 -0.1169
   42MOL   C31115973   7.520   5.215   4.541 -0.2514  0.6561 -0.5408
   42MOL   C31215974   7.578   5.345   4.487  0.4351 -0.6177 -0.6949
   42MOL   H31315975   7.524   4.628   4.487  2.1526 -0.3163 -2.4370
   42MOL   H31415976   7.677   4.731   4.459  0.0999 -1.9767 -1.5646
   42MOL   H31515977   7.457   4.787   4.658 -0.2357 -0.7342 -2.1888
   42MOL   H31615978   7.612   4.989   4.804  0.4745  0.0085 -0.3313
   42MOL   H31715979   7.459   5.013   4.733  0.9630 -0.9005  0.3748
   42MOL   H31815980   7.706   5.157   4.617 -0.2521 -3.4809 -1.6325
   42MOL   H31915981   7.598   5.236   4.739  0.7808 -1.1259  1.1283
   42MOL   H32015982   7.517   5.139   4.462  1.4658 -0.2269  0.2142
   42MOL   H32115983   7.415   5.223   4.571  0.3145  0.9102  1.4013
   42MOL   H32215984   7.661   5.337   4.417  0.7796  2.0982 -0.6570
   42MOL   H32315985   7.614   5.418   4.559  0.4546 -2.1835  0.9231
   42MOL   H32415986   7.502   5.407   4.439  1.3217  0.0713 -1.2067
   42MOL   C32515987   7.645   4.728   4.734  1.0597 -0.1090 -0.3209
   42MOL   C32615988   7.608   4.581   4.759 -0.4555  0.3832 -0.4713
   42MOL   O32715989   7.709   4.525   4.840 -0.1667 -0.0798  0.4909
   42MOL   C32815990   0.027   4.482   4.776 -0.1740 -0.2711  0.0336
   42MOL   C32915991   0.142   4.470   4.873  0.5266  0.3637 -0.2405
   42MOL   C33015992   0.113   4.397   5.009  0.7639  0.2520  0.1651
   42MOL   C33115993   0.243   4.392   5.093  0.2700  0.6058 -0.4554
   42MOL   H33215994   7.623   4.777   4.828  0.6250 -1.0827  0.0899
   42MOL   H33315995   7.750   4.750   4.715  1.1938 -1.0072 -0.6183
   42MOL   H33415996   7.617   4.530   4.664  1.8772 -0.4910  0.1815
   42MOL   H33515997   0.055   4.546   4.692  0.4768  0.3811  0.7486
   42MOL   H33615998   0.014   4.379   4.742  3.8794 -0.3656 -1.4670
   42MOL   H33715999   0.226   4.421   4.824 -0.0991 -1.2813  0.2914
   42MOL   H33816000   0.169   4.572   4.899 -3.5354  1.1849  1.0674
   42MOL   H33916001   0.066   4.300   4.993  0.5862  0.3454  0.1198
   42MOL   H34016002   0.041   4.459   5.062  1.1714 -0.0711  1.1089
   42MOL   H34116003   0.285   4.292   5.085 -0.0596  0.4346 -0.0196
   42MOL   H34216004   0.222   4.390   5.200  1.4316  0.9929 -0.2050
   42MOL   H34316005   0.311   4.476   5.078 -0.5524  1.5274  0.9178
   42MOL   C34416006   7.473   4.548   4.826 -0.7785  0.8908  0.1231
   42MOL   C34516007   7.454   4.398   4.832  0.8124  0.3861 -0.2214
   42MOL   O34616008   7.432   4.352   4.694 -0.1354  0.2303  0.0561
   42MOL   C34716009   7.428   4.211   4.676 -0.5569  0.3064 -0.4225
   42MOL   C34816010   7.491   4.186   4.540  0.1326 -0.2106 -0.7246
   42MOL   C34916011   7.629   4.245   4.530 -0.3242 -0.3906 -0.1339
   42MOL   C35016012   7.695   4.201   4.401 -0.6494  0.1636  0.7226
   42MOL   H35116013   7.476   4.605   4.919 -2.9591  0.7917  0.2706
   42MOL   H35216014   7.385   4.590   4.777 -1.5650 -2.1992 -1.2164
   42MOL   H35316015   7.553   4.356   4.852  1.0665  0.9358 -0.3037
   42MOL   H35416016   7.327   4.172   4.689  0.3643 -1.5495  1.3721
   42MOL   H35516017   7.482   4.155   4.753 -1.4796  0.5354  0.3969
   42MOL   H35616018   7.427   4.235   4.467 -0.1040 -2.3915 -2.0087
   42MOL   H35716019   7.504   4.080   4.518 -0.0091 -0.0715 -1.4666
   42MOL   H35816020   7.619   4.353   4.540  1.3323 -0.2830  0.6499
   42MOL   H35916021   7.693   4.200   4.607  0.2296  2.7634  1.3374
   42MOL   H36016022   7.690   4.092   4.400  1.7250  0.0298  1.6452
   42MOL   H36116023   0.001   4.212   4.396 -0.5722 -1.0790 -0.7371
   42MOL   H36216024   7.646   4.236   4.310  1.3567  0.7158 -0.1516
   42MOL   C36316025   7.338   4.365   4.922  0.3449  0.7745  0.1845
   42MOL   C36416026   7.349   4.400   5.076 -0.2988  0.2286  0.0866
   42MOL   O36516027   7.267   4.311   5.158  0.2346  0.0344  0.2754
   42MOL   C36616028   7.301   4.327   5.291  0.2440  0.2728 -0.5488
   42MOL   C36716029   7.256   4.204   5.370 -0.3330  0.4699 -0.2658
   42MOL   C36816030   7.107   4.183   5.393 -0.5709 -0.6120  0.0006
   42MOL   C36916031   7.074   4.053   5.465 -0.1372 -0.4160 -0.6335
   42MOL   H37016032   7.329   4.257   4.917  4.9309  0.3260 -0.0261
   42MOL   H37116033   7.240   4.399   4.888  0.0099 -1.2229 -0.8867
   42MOL   H37216034   7.326   4.506   5.082 -2.5833 -0.0079 -3.1449
   42MOL   H37316035   7.257   4.416   5.334 -0.5831 -0.2670 -0.2714
   42MOL   H37416036   7.408   4.334   5.311  0.1025  1.4195 -0.1583
   42MOL   H37516037   7.312   4.208   5.463 -0.0898 -2.5508 -0.2281
   42MOL   H37616038   7.309   4.124   5.320  0.5650 -0.0718  1.5128
   42MOL   H37716039   7.063   4.181   5.294 -0.2530  0.0906 -0.1570
   42MOL   H37816040   7.065   4.266   5.449  2.1632 -0.1680  1.4951
   42MOL   H37916041   7.131   4.038   5.557 -0.7696  1.5653  0.1276
   42MOL   H38016042   6.968   4.044   5.487  0.3189 -3.3685  0.5157
   42MOL   H38116043   7.094   3.963   5.409  1.3498 -0.5441  0.0841
   42MOL   H38216044   7.454   4.385   5.104 -0.3914 -1.6402 -0.5033
   43MOL     C116045   6.300   3.215   0.342 -0.4727 -0.4150  0.3164
   43MOL     C216046   6.429   3.295   0.364  0.3345 -0.0957 -0.7104
   43MOL     O316047   6.421   3.413   0.450 -0.0232 -0.4751  0.1370
   43MOL     C416048   6.337   3.520   0.395  0.1463 -0.0438 -0.1481
   43MOL     C516049   6.357   3.645   0.473 -0.0946 -0.6041  0.4540
   43MOL     C616050   6.264   3.754   0.430  0.3791  0.4787 -0.2167
   43MOL     C716051   6.269   3.879   0.512 -0.5037 -0.1228 -0.2651
   43MOL     H816052   6.305   3.130   0.274 -2.3408  1.5686 -2.3778
   43MOL     H916053   6.258   3.183   0.437  1.9800 -0.2444  1.5010
   43MOL    H1016054   6.474   3.329   0.271  0.9135 -0.4557 -0.5601
   43MOL    H1116055   6.355   3.531   0.288 -1.7813 -2.2836 -0.7583
   43MOL    H1216056   6.231   3.492   0.399  0.4121 -1.1706 -0.9536
   43MOL    H1316057   6.462   3.675   0.470 -0.6741  1.6596  1.5714
   43MOL    H1416058   6.331   3.614   0.574  1.4119 -1.3498  0.6353
   43MOL    H1516059   6.166   3.707   0.421  0.0655  0.6408  2.0984
   43MOL    H1616060   6.283   3.782   0.326  0.8462  2.2750  0.3363
   43MOL    H1716061   6.172   3.927   0.494  0.4204  2.3239  1.1164
   43MOL    H1816062   6.351   3.935   0.469 -1.1680  0.2729 -1.0398
   43MOL    H1916063   6.282   3.854   0.617 -0.9500 -1.9848 -0.6195
   43MOL    H2016064   6.229   3.286   0.299 -0.8526  0.1621  1.8698
   43MOL    C2116065   6.525   3.212   0.455 -0.2805  0.7967 -0.3054
   43MOL    C2216066   6.594   3.086   0.396  0.0285  0.0390  0.8414
   43MOL    O2316067   6.693   3.130   0.305  0.1762  0.2375 -0.2042
   43MOL    C2416068   6.731   3.024   0.211 -0.3094 -0.3640  0.0828
   43MOL    C2516069   6.638   3.028   0.092 -0.4624 -0.5283 -0.1354
   43MOL    C2616070   6.656   3.161   0.015  0.2952 -0.4413  0.0328
   43MOL    C2716071   6.632   3.139   7.671  0.0408  0.5675 -0.6675
   43MOL    H2816072   6.463   3.187   0.541  1.0588  0.5544  0.6088
   43MOL    H2916073   6.602   3.273   0.502  0.2697  0.0999 -0.2860
   43MOL    H3016074   6.513   3.024   0.357  0.3513  0.1121  0.0492
   43MOL    H3116075   6.741   2.925   0.254  0.6514  0.4482  1.7644
   43MOL    H3216076   6.831   3.051   0.178  0.3192  0.3496  2.5274
   43MOL    H3316077   6.672   2.948   0.027 -0.6901  0.0773 -0.9958
   43MOL    H3416078   6.535   3.011   0.124 -0.3041  0.9728  1.2668
   43MOL    H3516079   6.590   3.239   0.052 -0.5635 -1.4625  0.6748
   43MOL    H3616080   6.758   3.200   0.018  0.6464 -1.2066 -1.4432
   43MOL    H3716081   6.536   3.088   7.661  1.3381 -2.2546  0.5362
   43MOL    H3816082   6.644   3.228   7.609 -0.1211  1.1259  0.0952
   43MOL    H3916083   6.698   3.063   7.629 -0.3976 -0.5099  0.5801
   43MOL    C4016084   6.645   3.004   0.514  0.4454 -0.4615 -0.2862
   43MOL    C4116085   6.536   2.921   0.574  0.2411 -0.8483  0.4968
   43MOL    O4216086   6.555   2.875   0.704  0.2085  0.1509  0.2260
   43MOL    C4316087   6.525   2.970   0.798  0.3068  0.0919  0.2633
   43MOL    C4416088   6.603   2.934   0.929  0.0533  0.4783  0.1852
   43MOL    C4516089   6.536   3.001   1.056 -0.0627  0.5517 -0.6894
   43MOL    C4616090   6.401   2.947   1.107  0.1512 -0.0287  0.0991
   43MOL    H4716091   6.687   3.074   0.586  0.4514 -0.1074 -0.6321
   43MOL    H4816092   6.729   2.943   0.481 -0.1943 -1.2627 -0.4336
   43MOL    H4916093   6.444   2.980   0.573  1.9886  1.9858 -0.1757
   43MOL    H5016094   6.418   2.971   0.821  0.5081  0.4750  1.1724
   43MOL    H5116095   6.543   3.074   0.771 -1.9451  0.2974 -0.6232
   43MOL    H5216096   6.702   2.979   0.917 -0.3685  0.8427 -2.1843
   43MOL    H5316097   6.617   2.827   0.940  1.1912  0.3450 -2.3151
   43MOL    H5416098   6.516   3.103   1.027 -0.9264 -0.1305 -2.5376
   43MOL    H5516099   6.609   3.001   1.137 -1.6878 -1.0094  0.8245
   43MOL    H5616100   6.314   2.965   1.044 -0.8930 -0.8364  1.2988
   43MOL    H5716101   6.387   2.840   1.123 -0.6897 -0.0546 -0.7911
   43MOL    H5816102   6.380   3.002   1.199  0.9713 -0.6410  0.6628
   43MOL    C5916103   6.503   2.790   0.498 -0.0093  0.0572 -0.1066
   43MOL    C6016104   6.365   2.734   0.519 -0.1411 -0.3066 -0.6995
   43MOL    O6116105   6.268   2.820   0.463  0.4339 -0.2572 -0.1348
   43MOL    C6216106   6.162   2.843   0.548 -0.3292 -0.0841  0.1042
   43MOL    C6316107   6.039   2.911   0.475 -0.5779  0.3101  0.1756
   43MOL    C6416108   5.978   2.836   0.351  0.3245  0.4628 -0.5622
   43MOL    C6516109   5.889   2.925   0.265  0.2420  0.0798 -0.1771
   43MOL    H6616110   6.500   2.803   0.389 -2.2563  0.6267 -0.0008
   43MOL    H6716111   6.589   2.722   0.504  0.4737  0.7581  1.0203
   43MOL    H6816112   6.365   2.720   0.627  1.1326 -0.7096 -0.7385
   43MOL    H6916113   6.210   2.905   0.624  1.8348 -1.2859 -0.2643
   43MOL    H7016114   6.120   2.757   0.601 -0.9245 -1.7934 -3.0606
   43MOL    H7116115   5.976   2.948   0.555  0.4006  0.2151  1.0082
   43MOL    H7216116   6.083   3.001   0.432  0.8286 -1.2573 -1.7861
   43MOL    H7316117   6.069   2.808   0.297  0.5341  1.0057 -0.4912
   43MOL    H7416118   5.931   2.741   0.377  1.6107  0.1237  0.6408
   43MOL    H7516119   5.842   2.876   0.180  0.2767  0.3764 -0.3688
   43MOL    H7616120   5.808   2.964   0.327 -0.0711 -3.5206  1.8037
   43MOL    H7716121   5.956   3.001   0.226 -0.3181  0.9945  0.6102
   43MOL    C7816122   6.360   2.593   0.452  0.3212  0.2800  0.3694
   43MOL    C7916123   6.392   2.473   0.550 -0.5274 -0.1453 -0.4882
   43MOL    O8016124   6.535   2.484   0.585 -0.1374  0.0933  0.4386
   43MOL    C8116125   6.565   2.505   0.721  0.3300 -0.0052 -0.2194
   43MOL    C8216126   6.711   2.461   0.738 -0.4114  0.1963  0.5171
   43MOL    C8316127   6.751   2.317   0.716  0.5122 -0.9449 -0.3606
   43MOL    C8416128   6.902   2.300   0.739  0.4810  0.3379 -0.8009
   43MOL    H8516129   6.426   2.594   0.366  2.9458 -0.8775  2.2766
   43MOL    H8616130   6.256   2.571   0.429 -0.3495  1.9168  1.6860
   43MOL    H8716131   6.346   2.485   0.648  2.9257 -1.8603  1.4428
   43MOL    H8816132   6.498   2.457   0.791  0.8468 -1.1851 -0.5231
   43MOL    H8916133   6.573   2.612   0.741  0.9372  0.0813 -0.8879
   43MOL    H9016134   6.768   2.524   0.670 -1.1037  0.9972  0.6707
   43MOL    H9116135   6.728   2.498   0.839 -0.7889 -1.1139  1.0799
   43MOL    H9216136   6.716   2.288   0.617 -0.4163  4.9334 -1.9143
   43MOL    H9316137   6.690   2.259   0.785 -1.6607  3.0505  1.1977
   43MOL    H9416138   6.924   2.314   0.845  2.3401  0.6127 -1.2009
   43MOL    H9516139   6.938   2.201   0.710  0.5678  0.0035  0.3920
   43MOL    H9616140   6.953   2.381   0.687  0.7437  1.0996  0.6096
   43MOL    C9716141   6.354   2.330   0.505  0.4712 -0.5499  0.5285
   43MOL    C9816142   6.402   2.269   0.371  0.2964 -0.7238  0.1213
   43MOL    O9916143   6.395   2.127   0.388 -0.2019  0.3236  0.3943
   43MOL   C10016144   6.512   2.073   0.454  0.0856  1.0234 -0.3394
   43MOL   C10116145   6.530   1.930   0.418  0.6334  0.2880 -0.4348
   43MOL   C10216146   6.519   1.905   0.266 -0.5653 -0.2582 -0.9008
   43MOL   C10316147   6.563   1.761   0.227 -0.5258 -0.4035 -0.7142
   43MOL   H10416148   6.250   2.302   0.521  0.3819 -1.4502 -1.5147
   43MOL   H10516149   6.396   2.273   0.588  4.3500 -1.1674 -1.7424
   43MOL   H10616150   6.507   2.291   0.353  0.4741 -1.3621  0.3628
   43MOL   H10716151   6.514   2.073   0.563 -1.2030 -2.6918 -0.2428
   43MOL   H10816152   6.602   2.127   0.425 -0.4280  2.4744  0.7019
   43MOL   H10916153   6.443   1.872   0.448  1.4342 -0.7989 -0.1390
   43MOL   H11016154   6.621   1.897   0.470  0.4387  0.3323 -0.0644
   43MOL   H11116155   6.589   1.973   0.217 -1.5304 -0.4932 -2.6602
   43MOL   H11216156   6.419   1.921   0.225  0.1888  0.3216 -2.5659
   43MOL   H11316157   6.668   1.747   0.252 -0.5983 -0.4544 -0.4424
   43MOL   H11416158   6.518   1.693   0.298 -0.8196  0.6321  0.1142
   43MOL   H11516159   6.539   1.730   0.125 -1.4860 -0.3296 -0.5106
   43MOL   C11616160   6.315   2.288   0.243 -0.1036  0.1428 -0.7763
   43MOL   C11716161   6.366   2.195   0.123 -0.0223 -0.2297 -0.2875
   43MOL   O11816162   6.280   2.226   0.018 -0.7144 -0.2547  0.3801
   43MOL   C11916163   6.260   2.129   7.718  0.3489  0.0532 -0.4943
   43MOL   C12016164   6.119   2.148   7.672 -0.2329  0.3436  0.8722
   43MOL   C12116165   6.065   2.045   7.565  0.2047 -0.2472 -0.0207
   43MOL   C12216166   5.914   2.062   7.543  0.0378 -0.1499  0.0481
   43MOL   H12316167   6.209   2.276   0.264  0.2596  0.9198  1.5808
   43MOL   H12416168   6.326   2.395   0.222 -0.9611  0.0661 -1.6165
   43MOL   H12516169   6.349   2.095   0.163 -0.4305  0.9498  2.6159
   43MOL   H12616170   6.256   2.028   7.761  1.8940 -0.2453 -1.0275
   43MOL   H12716171   6.330   2.127   7.635 -1.7758  1.0053 -2.3618
   43MOL   H12816172   6.115   2.248   7.628 -2.1831  1.0560  2.5997
   43MOL   H12916173   6.050   2.136   7.755  0.2356  0.4994  1.2882
   43MOL   H13016174   6.109   2.063   7.466 -1.8830  2.3742 -0.5277
   43MOL   H13116175   6.097   1.942   7.579 -1.0281 -0.8436 -1.5285
   43MOL   H13216176   5.883   2.003   7.456  0.3796 -0.1798 -0.0532
   43MOL   H13316177   5.895   2.163   7.507 -0.8703 -0.2716  0.1617
   43MOL   H13416178   5.851   2.043   7.629  2.4022 -0.7076  1.6982
   43MOL   C13516179   6.518   2.208   0.078 -0.4289 -0.0962 -0.5866
   43MOL   C13616180   6.545   2.322   7.779 -0.9327  0.4494  0.0791
   43MOL   O13716181   6.501   2.448   0.029  0.0777 -0.5436 -0.2074
   43MOL   C13816182   6.432   2.545   7.752 -0.5478 -0.3524  0.5694
   43MOL   C13916183   6.400   2.658   0.050 -1.0145  0.2520 -0.2783
   43MOL   C14016184   6.329   2.775   7.781  0.0844  0.4008 -0.0958
   43MOL   C14116185   6.272   2.880   0.081  1.2354 -0.1783  0.8497
   43MOL   H14216186   6.552   2.113   0.039 -2.0833 -1.3937  1.0655
   43MOL   H14316187   6.573   2.230   0.169 -2.4000  1.4180  0.2845
   43MOL   H14416188   6.488   2.311   7.686  0.1715  1.0051 -0.6754
   43MOL   H14516189   6.338   2.512   7.709 -0.3215  0.5993 -0.6833
   43MOL   H14616190   6.493   2.582   7.670  0.9311  1.0950  2.2583
   43MOL   H14716191   6.490   2.699   0.096  0.2533  0.2008 -2.6260
   43MOL   H14816192   6.334   2.614   0.125  0.6684 -0.0945  1.0360
   43MOL   H14916193   6.397   2.824   7.712  0.5862 -0.4476 -0.2023
   43MOL   H15016194   6.258   2.735   7.709  2.1975 -2.0222 -0.8584
   43MOL   H15116195   6.333   2.970   0.081  1.3174 -0.2318  1.0852
   43MOL   H15216196   6.171   2.911   0.058  2.0210  2.3073  0.6509
   43MOL   H15316197   6.262   2.834   0.180  0.8626 -2.0966 -0.0497
   43MOL   C15416198   6.696   2.342   7.752 -0.1102 -0.3084 -0.5821
   43MOL   C15516199   6.768   2.231   7.677  0.2938 -0.1645  0.0687
   43MOL   O15616200   6.914   2.246   7.684 -0.1889  0.1461 -0.6514
   43MOL   C15716201   6.962   2.178   0.002 -0.0100 -0.0528  0.0641
   43MOL   C15816202   7.114   2.173   0.016 -0.3816  0.7444 -0.1418
   43MOL   C15916203   7.155   2.113   0.154 -0.0666 -0.0217  0.3860
   43MOL   C16016204   7.293   2.055   0.152 -0.4076  0.2644 -0.3570
   43MOL   H16116205   6.740   2.353   0.050 -2.2162  0.7827  0.2649
   43MOL   H16216206   6.733   2.430   7.699  0.2179 -0.1135 -0.0413
   43MOL   H16316207   6.752   2.128   7.711  2.6399 -1.0218 -1.2693
   43MOL   H16416208   6.915   2.210   0.095 -1.5024 -0.8140 -0.4085
   43MOL   H16516209   6.937   2.072   0.008  1.3256 -0.3649  0.2044
   43MOL   H16616210   7.163   2.268   7.798 -0.5066  0.8770  0.1860
   43MOL   H16716211   7.144   2.100   7.742 -0.4242 -0.4338  0.9587
   43MOL   H16816212   7.134   2.185   0.232 -2.6145 -0.2127 -0.0680
   43MOL   H16916213   7.092   2.026   0.173 -0.4201  0.1166 -0.1348
   43MOL   H17016214   7.362   2.134   0.123 -0.7610  1.1247  1.0773
   43MOL   H17116215   7.322   2.016   0.250 -0.0370 -0.3212 -0.7046
   43MOL   H17216216   7.289   1.975   0.078 -0.4951  0.7130 -0.8382
   43MOL   C17316217   6.732   2.227   7.530 -0.5208 -0.2690  0.1987
   43MOL   C17416218   6.781   2.099   7.452 -0.4104  0.2969 -0.1650
   43MOL   O17516219   6.663   2.018   7.423 -0.4172 -0.0128  0.0591
   43MOL   C17616220   6.631   1.921   7.520 -0.2928  0.8475 -0.7540
   43MOL   C17716221   6.516   1.837   7.454 -0.6056  0.2751  0.3629
   43MOL   C17816222   6.459   1.720   7.541  0.3115 -0.0915 -0.7939
   43MOL   C17916223   6.395   1.756   7.671 -0.0034  0.0691 -0.1841
   43MOL   H18016224   6.770   2.317   7.483  1.4966 -1.1749  0.0455
   43MOL   H18116225   6.624   2.236   7.520 -0.3848  1.2641 -0.0255
   43MOL   H18216226   6.858   2.036   7.495 -0.7415 -0.0457 -0.0801
   43MOL   H18316227   6.596   1.953   7.618  3.5572  1.2199  0.5757
   43MOL   H18416228   6.716   1.858   7.544 -1.9757 -1.1412  0.1625
   43MOL   H18516229   6.547   1.802   7.356  1.3759  2.7258  0.0822
   43MOL   H18616230   6.438   1.911   7.437 -0.7798  0.5653  2.2908
   43MOL   H18716231   6.382   1.671   7.481 -1.4914 -1.0051  2.1664
   43MOL   H18816232   6.531   1.640   7.557  2.3293  1.4110 -2.1584
   43MOL   H18916233   6.470   1.802   7.735 -0.3372  2.1887 -1.2399
   43MOL   H19016234   6.321   1.835   7.651 -1.8084 -1.1514  1.5530
   43MOL   H19116235   6.349   1.670   7.719  3.3158 -1.5109  0.3070
   43MOL   C19216236   6.838   2.137   7.309  0.7629 -0.6141  0.2071
   43MOL   C19316237   6.981   2.186   7.330  0.1596  0.1045 -0.2458
   43MOL   O19416238   7.070   2.076   7.324  0.7964 -0.6718  0.2461
   43MOL   C19516239   7.194   2.084   7.386 -0.6671 -0.0005  0.3755
   43MOL   C19616240   7.292   1.981   7.338 -0.3174 -0.4208  0.4692
   43MOL   C19716241   7.334   1.999   7.193  0.3017  0.0676 -0.1714
   43MOL   C19816242   7.442   1.896   7.145 -0.3002 -0.0563  0.4319
   43MOL   H19916243   6.767   2.206   7.264  2.3674  0.8138 -0.1901
   43MOL   H20016244   6.840   2.045   7.251  1.8296  0.6705 -1.8507
   43MOL   H20116245   6.990   2.231   7.429 -1.0623 -3.4471  1.5369
   43MOL   H20216246   7.164   2.078   7.490 -0.5339  1.1068  0.4922
   43MOL   H20316247   7.255   2.174   7.371 -1.7348  0.6294 -0.2555
   43MOL   H20416248   7.385   1.993   7.393  0.1975  0.8430 -0.6408
   43MOL   H20516249   7.245   1.883   7.349 -0.9190 -0.3598 -1.3124
   43MOL   H20616250   7.362   2.104   7.179 -0.0082  0.3727  1.4226
   43MOL   H20716251   7.249   1.988   7.125 -0.1524  1.0481  0.2351
   43MOL   H20816252   7.402   1.795   7.147  1.4676 -0.7950 -0.8349
   43MOL   H20916253   7.472   1.923   7.044 -0.2134 -1.5779  0.0484
   43MOL   H21016254   7.537   1.906   7.196  0.2279  1.1803 -0.7806
   43MOL   C21116255   7.014   2.292   7.228  0.0047 -0.0529 -0.1321
   43MOL   C21216256   7.081   2.421   7.281  0.1705  0.3398 -0.4785
   43MOL   O21316257   7.147   2.493   7.187 -0.1615  0.3550  0.6002
   43MOL   C21416258   7.273   2.445   7.136  0.6813 -0.1264  0.1022
   43MOL   C21516259   7.358   2.544   7.062  0.1407  0.7202 -0.3182
   43MOL   C21616260   7.291   2.586   6.929 -0.0835 -0.2745 -0.4060
   43MOL   C21716261   7.403   2.611   6.825 -0.6426 -0.2073 -0.7692
   43MOL   H21816262   6.925   2.320   7.173 -0.2527 -0.7375 -0.0695
   43MOL   H21916263   7.073   2.251   7.146 -0.8339 -1.9224  0.1854
   43MOL   H22016264   7.150   2.394   7.362 -1.6826 -1.0283  0.6956
   43MOL   H22116265   7.332   2.400   7.216 -1.9017 -2.1192  0.9444
   43MOL   H22216266   7.252   2.356   7.078  1.8310  0.1951 -0.8202
   43MOL   H22316267   7.369   2.628   7.131 -2.0125  0.3322  0.5418
   43MOL   H22416268   7.455   2.499   7.042 -0.3292  0.0344 -1.0467
   43MOL   H22516269   7.249   2.684   6.950 -0.0721  0.0770 -1.9019
   43MOL   H22616270   7.216   2.514   6.896  0.4181 -0.5115 -1.0438
   43MOL   H22716271   7.364   2.629   6.725 -0.3287  1.3922 -0.6193
   43MOL   H22816272   7.476   2.530   6.823 -0.1877  0.1647  0.4375
   43MOL   H22916273   7.457   2.702   6.852 -3.0883  2.1180 -3.4145
   43MOL   C23016274   6.971   2.519   7.327  0.1546 -0.0144  0.0656
   43MOL   C23116275   7.030   2.645   7.395  0.4421 -0.2405 -0.1200
   43MOL   O23216276   6.925   2.747   7.380 -0.1838 -0.3096 -0.7201
   43MOL   C23316277   6.934   2.836   7.271 -0.0476  0.1840  0.2156
   43MOL   C23416278   6.831   2.953   7.298  0.0051  0.1852 -0.3241
   43MOL   C23516279   6.821   3.051   7.181 -0.0522 -0.5421  0.1439
   43MOL   C23616280   6.746   3.185   7.204 -0.7552  0.4806 -0.3761
   43MOL   H23716281   6.897   2.470   7.390  0.0515  0.0359 -0.0152
   43MOL   H23816282   6.926   2.556   7.235  2.7306  1.5289 -0.6429
   43MOL   H23916283   7.121   2.677   7.345  1.2819  0.1177  1.6172
   43MOL   H24016284   7.037   2.863   7.246 -0.4633  0.6790 -0.9737
   43MOL   H24116285   6.895   2.783   7.185 -0.8816  0.4090  0.4527
   43MOL   H24216286   6.729   2.922   7.321  0.3095 -1.5497 -1.2482
   43MOL   H24316287   6.874   3.004   7.385  1.2943  0.1407 -0.9173
   43MOL   H24416288   6.763   3.010   7.098  0.0219  1.0152 -0.6828
   43MOL   H24516289   6.916   3.077   7.135 -0.5827 -1.3970 -1.4784
   43MOL   H24616290   6.643   3.160   7.228 -0.6528 -1.5820 -1.9534
   43MOL   H24716291   6.743   3.238   7.109  3.4205  3.2450  0.8550
   43MOL   H24816292   6.793   3.239   7.286  0.5968 -0.6314 -0.3825
   43MOL   C24916293   7.056   2.631   7.541  0.0735  0.0345 -0.2884
   43MOL   C25016294   7.164   2.720   7.607  0.4523  0.0162  0.5115
   43MOL   O25116295   7.294   2.693   7.555 -0.1376 -0.2208 -0.2811
   43MOL   C25216296   7.357   2.799   7.486  0.3705  0.1446  0.2829
   43MOL   C25316297   7.505   2.765   7.496 -0.0618  0.3075 -0.4332
   43MOL   C25416298   7.604   2.859   7.417 -0.1899 -0.3263  1.0320
   43MOL   C25516299   7.656   2.800   7.286 -1.2351  0.2034  0.9229
   43MOL   H25616300   7.083   2.526   7.555  0.2949 -0.0032 -0.9515
   43MOL   H25716301   6.957   2.633   7.586  0.5812  1.5595  0.7941
   43MOL   H25816302   7.130   2.822   7.588 -0.7051 -0.0376  2.1848
   43MOL   H25916303   7.346   2.902   7.521 -0.5458 -0.3910  1.6445
   43MOL   H26016304   7.337   2.790   7.379  0.8386  0.8032  0.1432
   43MOL   H26116305   7.534   2.779   7.600  2.1306  0.0706 -0.9808
   43MOL   H26216306   7.531   2.662   7.468  0.2544  0.0297  0.8567
   43MOL   H26316307   7.552   2.951   7.390 -1.2143 -1.3654 -0.5807
   43MOL   H26416308   7.694   2.878   7.477  1.4164 -0.6699 -1.2146
   43MOL   H26516309   7.735   2.858   7.240 -2.5677  1.3307  0.0300
   43MOL   H26616310   7.578   2.804   7.210  0.6393  0.4576 -1.0351
   43MOL   H26716311   7.701   2.703   7.307  1.1245  1.6936  2.9477
   43MOL   C26816312   7.172   2.703   7.757 -0.3114  1.0193 -0.1627
   43MOL   C26916313   7.053   2.777   0.020  0.1705  0.2029  0.0800
   43MOL   O27016314   6.993   2.714   0.134  0.5715 -0.7317  0.3005
   43MOL   C27116315   6.864   2.651   0.105  0.1330 -0.0195 -0.1397
   43MOL   C27216316   6.818   2.579   0.227  0.1277 -0.0919 -0.3798
   43MOL   C27316317   6.909   2.457   0.262 -0.0674  0.4296  0.0281
   43MOL   C27416318   6.834   2.373   0.377 -0.0822 -0.6516 -0.7185
   43MOL   H27516319   7.168   2.600   7.793 -1.6994  0.0972 -2.8294
   43MOL   H27616320   7.267   2.748   7.785  0.7914 -0.0125 -2.1529
   43MOL   H27716321   6.971   2.813   7.759 -0.4402  0.9594  1.2956
   43MOL   H27816322   6.796   2.730   0.074 -1.1263 -0.7670  0.6283
   43MOL   H27916323   6.879   2.591   0.015  2.0048 -0.5854  0.5269
   43MOL   H28016324   6.823   2.649   0.310  2.5627 -0.3733 -0.2594
   43MOL   H28116325   6.712   2.554   0.227  0.1859 -0.3379 -0.1552
   43MOL   H28216326   7.006   2.494   0.295 -1.2425  0.8957  3.1474
   43MOL   H28316327   6.935   2.403   0.171  1.8542 -1.7919  1.8312
   43MOL   H28416328   6.768   2.295   0.340  0.9715 -1.3431 -1.1559
   43MOL   H28516329   6.779   2.438   0.445  2.0033 -0.6059  0.9929
   43MOL   H28616330   6.909   2.319   0.435 -0.6175  0.1622  0.7479
   43MOL   C28716331   7.101   2.915   0.080  0.4126 -0.0642  0.1447
   43MOL   C28816332   7.160   3.019   7.779  0.1881  0.4537  0.0172
   43MOL   O28916333   7.197   3.128   0.058 -0.1891  0.0991  0.2534
   43MOL   C29016334   7.333   3.128   0.115 -0.3235  0.4522 -0.5649
   43MOL   C29116335   7.321   3.224   0.229 -0.4835  0.3449 -0.7785
   43MOL   C29216336   7.299   3.373   0.205  0.0234  0.5923 -0.0112
   43MOL   C29316337   7.305   3.464   0.330 -0.2951 -0.0831  0.4355
   43MOL   H29416338   7.170   2.889   0.161 -0.0956  2.4406  1.4094
   43MOL   H29516339   7.015   2.956   0.133  1.1799  1.0106  0.5624
   43MOL   H29616340   7.242   2.988   7.714 -1.3111 -0.3505 -1.5497
   43MOL   H29716341   7.356   3.029   0.155 -0.3936  1.3439  1.7313
   43MOL   H29816342   7.407   3.153   0.039 -2.0438 -0.1098 -2.4933
   43MOL   H29916343   7.409   3.209   0.293 -1.3846  1.8631  0.8842
   43MOL   H30016344   7.233   3.199   0.288 -0.3531 -0.1623 -0.7985
   43MOL   H30116345   7.215   3.405   0.143 -0.3724 -0.7787 -0.1883
   43MOL   H30216346   7.363   3.404   0.123  0.3782  0.5618  0.2535
   43MOL   H30316347   7.404   3.476   0.373 -0.7497 -2.0058  2.1151
   43MOL   H30416348   7.268   3.566   0.314 -0.0979 -0.0920 -0.0760
   43MOL   H30516349   7.238   3.435   0.411 -0.0241 -3.3099 -0.4575
   43MOL   C30616350   7.049   3.075   7.687  0.0058 -0.0620 -0.0984
   43MOL   C30716351   7.090   3.183   7.582 -0.3007  0.0762 -0.5885
   43MOL   O30816352   7.190   3.123   7.500  0.5705 -0.6378  0.2245
   43MOL   C30916353   7.174   3.150   7.364  0.0653 -0.5236 -0.3593
   43MOL   C31016354   7.284   3.091   7.272  0.7521 -0.5412 -0.2669
   43MOL   C31116355   7.261   3.076   7.120 -0.2145  0.5036  0.4183
   43MOL   C31216356   7.380   2.994   7.051  0.0676 -0.0053  0.0156
   43MOL   H31316357   6.989   3.000   7.637 -0.8789  1.7222 -1.7604
   43MOL   H31416358   6.977   3.117   7.758  0.1470 -1.1000  0.6686
   43MOL   H31516359   6.997   3.209   7.531 -0.9265 -0.6228  0.1890
   43MOL   H31616360   7.156   3.256   7.344 -0.4278 -0.5717 -0.1946
   43MOL   H31716361   7.078   3.106   7.336  0.7493 -1.9926 -0.4171
   43MOL   H31816362   7.315   2.997   7.317  0.5140 -1.2709 -1.6094
   43MOL   H31916363   7.378   3.145   7.279  1.1899 -1.2731 -0.4538
   43MOL   H32016364   7.166   3.023   7.120  0.6925 -1.3568  4.9150
   43MOL   H32116365   7.249   3.170   7.065 -0.4669 -0.1094 -0.5766
   43MOL   H32216366   7.374   2.886   7.056  4.3570 -0.3239  0.2467
   43MOL   H32316367   7.478   3.034   7.078  0.0291  0.7351 -0.9169
   43MOL   H32416368   7.368   3.001   6.943 -0.4277  0.5472  0.1036
   43MOL   C32516369   7.149   3.312   7.643 -0.0467  0.4181  0.6240
   43MOL   C32616370   7.140   3.443   7.556  0.7825  0.6312  0.5032
   43MOL   O32716371   7.008   3.473   7.510  0.0699 -0.0843 -0.1836
   43MOL   C32816372   6.915   3.503   7.611 -0.8184  0.2402 -0.1374
   43MOL   C32916373   6.775   3.512   7.539 -0.5221 -0.1979  0.4700
   43MOL   C33016374   6.667   3.564   7.640  0.3814 -0.2826 -0.2101
   43MOL   C33116375   6.530   3.601   7.582 -0.3950 -0.1799  0.1493
   43MOL   H33216376   7.249   3.278   7.667 -0.8137 -1.3945  1.3297
   43MOL   H33316377   7.103   3.339   7.738  3.3553 -0.5836  2.6256
   43MOL   H33416378   7.196   3.423   7.464 -0.1631  0.7082 -0.1034
   43MOL   H33516379   6.942   3.588   7.673 -0.5994  0.4274 -0.4824
   43MOL   H33616380   6.900   3.424   7.685  0.7933  0.1906  0.1571
   43MOL   H33716381   6.780   3.582   7.455  1.6105  0.2160  0.8899
   43MOL   H33816382   6.747   3.425   7.481  3.9187 -1.2936 -0.2046
   43MOL   H33916383   6.706   3.660   7.675  0.5637 -0.7496  0.8833
   43MOL   H34016384   6.657   3.508   7.733 -0.1613  0.2163  0.0343
   43MOL   H34116385   6.508   3.508   7.528  1.8408 -0.1558 -0.8748
   43MOL   H34216386   6.529   3.682   7.509  0.3155 -0.3358 -0.0419
   43MOL   H34316387   6.447   3.616   7.650 -0.8758 -0.9369 -0.2614
   43MOL   C34416388   7.216   3.566   7.613 -0.3496 -0.3365 -0.6105
   43MOL   C34516389   7.371   3.563   7.618  0.3940 -0.2143 -0.1643
   43MOL   O34616390   7.407   3.688   7.690 -0.1401  0.2299  0.3607
   43MOL   C34716391   7.440   3.683   0.026 -0.2097 -0.2436  0.5373
   43MOL   C34816392   7.506   3.816   0.074 -0.0232  0.2491 -0.6251
   43MOL   C34916393   7.534   3.821   0.226  0.1616 -0.0333 -0.3310
   43MOL   C35016394   7.599   3.952   0.261  0.7039  0.3131  0.3444
   43MOL   H35116395   7.191   3.648   7.546 -1.2356  0.0340  0.1658
   43MOL   H35216396   7.173   3.586   7.711  1.9667 -0.5108  0.4519
   43MOL   H35316397   7.403   3.477   7.677 -0.6669 -0.7416 -0.3339
   43MOL   H35416398   7.515   3.607   0.047  0.3971  0.1962 -0.0146
   43MOL   H35516399   7.348   3.673   0.084 -0.5941  2.9399  0.5420
   43MOL   H35616400   7.426   3.887   0.054  2.0140  1.5623 -4.6439
   43MOL   H35716401   7.580   3.855   0.004  0.6944 -0.2478 -0.1443
   43MOL   H35816402   7.441   3.805   0.281 -0.0139  2.0443  0.0444
   43MOL   H35916403   7.605   3.743   0.253  1.3182  1.8276  2.2681
   43MOL   H36016404   7.703   3.932   0.237  0.3942  0.7011 -1.3905
   43MOL   H36116405   7.572   3.972   0.365 -0.8604 -0.1247  0.0369
   43MOL   H36216406   7.566   4.031   0.193 -0.2965  0.3926  0.9156
   43MOL   C36316407   7.446   3.571   7.488  0.1281  0.2573  0.1677
   43MOL   C36416408   7.591   3.575   7.509  0.0507  0.1823 -0.3455
   43MOL   O36516409   7.662   3.595   7.387  0.6364  0.1447 -0.0208
   43MOL   C36616410   7.799   3.553   7.392 -1.0611 -0.5925  0.1551
   43MOL   C36716411   0.058   3.577   7.252 -0.2671  0.5677  0.4878
   43MOL   C36816412   0.079   3.718   7.214 -0.0460  0.4608 -0.8900
   43MOL   C36916413   0.162   3.721   7.081  0.9536  1.2261 -0.5971
   43MOL   H37016414   7.417   3.663   7.438  1.1123 -0.2109 -1.2875
   43MOL   H37116415   7.418   3.489   7.423  0.1402  0.7543 -0.4712
   43MOL   H37216416   7.618   3.488   7.569 -1.2498  0.5337  0.7572
   43MOL   H37316417   0.002   3.446   7.411  0.5438 -1.2165 -3.3622
   43MOL   H37416418   0.059   3.595   7.473 -0.0078  0.4068 -1.1436
   43MOL   H37516419   7.794   3.515   7.190  0.7604 -1.1844  1.1333
   43MOL   H37616420   0.157   3.533   7.240 -0.4686  0.2525 -0.0528
   43MOL   H37716421   0.125   3.776   7.295  1.1860  0.0079 -1.2589
   43MOL   H37816422   7.784   3.769   7.204 -0.7937 -0.4637  1.1965
   43MOL   H37916423   0.156   3.818   7.033  1.4542  2.6892  2.1635
   43MOL   H38016424   0.266   3.691   7.098  0.8440  0.3617 -1.4229
   43MOL   H38116425   0.126   3.639   7.018  1.4616  1.1252 -0.7599
   43MOL   H38216426   7.606   3.658   7.578  1.2779 -0.5731  0.3157
   44MOL     C116427   2.955   3.170   5.187  0.0329 -0.6843 -0.9866
   44MOL     C216428   2.878   3.293   5.198 -0.3494  0.6491 -0.0694
   44MOL     O316429   2.778   3.291   5.097 -0.0422 -0.7885 -0.1274
   44MOL     C416430   2.812   3.365   4.977  0.6208 -0.5599  0.4289
   44MOL     C516431   2.695   3.395   4.886 -0.4247 -0.0987 -0.1099
   44MOL     C616432   2.621   3.269   4.839 -0.1064  0.0564  0.0987
   44MOL     C716433   2.507   3.302   4.737 -0.5286  0.0114 -0.1842
   44MOL     H816434   3.047   3.165   5.245 -0.6865 -1.7965  0.0919
   44MOL     H916435   2.888   3.088   5.212 -0.7958  0.9000  2.2546
   44MOL    H1016436   2.947   3.377   5.187 -0.7290  0.7529 -1.7359
   44MOL    H1116437   2.856   3.463   4.997  1.1598 -0.5345 -0.7963
   44MOL    H1216438   2.892   3.310   4.927  0.8868 -0.3530  0.6231
   44MOL    H1316439   2.736   3.442   4.796 -1.0298  1.7951  0.5740
   44MOL    H1416440   2.622   3.461   4.932  1.1260  1.2024  0.5623
   44MOL    H1516441   2.569   3.223   4.923 -0.8626 -0.0366 -0.4135
   44MOL    H1616442   2.688   3.194   4.796 -1.3711 -0.6357 -0.7148
   44MOL    H1716443   2.551   3.360   4.655  1.2926  0.1186  0.8434
   44MOL    H1816444   2.446   3.375   4.791 -0.6050 -0.7491  0.7644
   44MOL    H1916445   2.449   3.216   4.705 -1.1852 -0.8540  3.1841
   44MOL    H2016446   2.990   3.162   5.084 -0.8253 -1.0315 -1.2532
   44MOL    C2116447   2.798   3.307   5.326  0.6017 -0.6925 -0.5500
   44MOL    C2216448   2.751   3.450   5.368  0.9304  0.2223  0.3844
   44MOL    O2316449   2.648   3.436   5.471 -0.2160 -0.1961 -0.0942
   44MOL    C2416450   2.515   3.424   5.423 -0.3777  0.4725  0.4248
   44MOL    C2516451   2.411   3.426   5.537  0.1433 -0.5488  0.3095
   44MOL    C2616452   2.387   3.561   5.610 -0.1146  0.5116 -0.0405
   44MOL    C2716453   2.259   3.545   5.697  1.3670 -0.0477 -0.2286
   44MOL    H2816454   2.857   3.268   5.409  0.4690 -0.5969 -0.4103
   44MOL    H2916455   2.710   3.244   5.324 -0.7354  1.1083  0.5339
   44MOL    H3016456   2.706   3.505   5.286 -2.6420 -0.7572  1.5809
   44MOL    H3116457   2.517   3.322   5.384 -0.9699  1.1452 -1.4164
   44MOL    H3216458   2.492   3.496   5.344  0.2585 -2.4643 -2.5502
   44MOL    H3316459   2.316   3.405   5.488  0.3923 -1.5232  0.2308
   44MOL    H3416460   2.436   3.345   5.605  1.8463 -0.6882 -0.4654
   44MOL    H3516461   2.470   3.589   5.675 -1.1689 -1.3116  2.1532
   44MOL    H3616462   2.370   3.644   5.542  0.7278  1.2701  0.6678
   44MOL    H3716463   2.264   3.466   5.771 -1.9956  2.0402  2.4163
   44MOL    H3816464   2.229   3.636   5.750  0.4036 -1.4145  1.5873
   44MOL    H3916465   2.170   3.541   5.633 -1.1476  2.1838  2.9451
   44MOL    C4016466   2.864   3.527   5.440 -0.1084 -0.5737 -0.2570
   44MOL    C4116467   2.848   3.682   5.446 -0.1729 -1.3061 -0.6894
   44MOL    O4216468   2.961   3.727   5.523 -0.2589  0.2048  0.6820
   44MOL    C4316469   3.076   3.751   5.453 -0.1116  0.0306  0.1421
   44MOL    C4416470   3.179   3.822   5.537  0.2575 -0.6187 -0.9848
   44MOL    C4516471   3.155   3.973   5.574 -0.5307  0.7341 -0.3247
   44MOL    C4616472   3.268   4.026   5.667 -0.1092 -0.1490 -0.2319
   44MOL    H4716473   2.954   3.510   5.380  1.5505 -1.4084  2.3655
   44MOL    H4816474   2.879   3.491   5.542  0.8350  1.0736  0.2147
   44MOL    H4916475   2.857   3.729   5.349 -3.0688  1.5213  0.3479
   44MOL    H5016476   3.066   3.801   5.357  0.5086 -0.1972 -0.0438
   44MOL    H5116477   3.124   3.654   5.437 -0.7758 -0.0618 -1.3384
   44MOL    H5216478   3.271   3.807   5.480  0.3267  0.3044 -1.1343
   44MOL    H5316479   3.209   3.770   5.628  2.2369  0.7048 -0.8188
   44MOL    H5416480   3.057   3.981   5.621 -0.4708 -2.4845  0.3977
   44MOL    H5516481   3.142   4.031   5.482  2.3803  0.9463 -0.6656
   44MOL    H5616482   3.240   4.125   5.703  1.1923 -0.0958  0.6509
   44MOL    H5716483   3.284   3.965   5.756  0.6697 -0.1382 -0.3606
   44MOL    H5816484   3.358   4.034   5.606 -0.2933 -1.1755 -0.6513
   44MOL    C5916485   2.729   3.728   5.526 -0.2179 -1.0022 -0.4548
   44MOL    C6016486   2.718   3.882   5.544 -0.5822 -0.9425 -0.7634
   44MOL    O6116487   2.734   3.938   5.414 -0.0856  0.2245  0.2674
   44MOL    C6216488   2.788   4.066   5.413  0.1201 -0.4126 -0.6319
   44MOL    C6316489   2.829   4.118   5.278 -0.5286 -0.3947 -0.0785
   44MOL    C6416490   2.952   4.046   5.223 -0.0898 -0.1995  0.2819
   44MOL    C6516491   2.965   4.078   5.076 -0.3788  0.4215 -0.1967
   44MOL    H6616492   2.638   3.691   5.479 -0.1084 -1.0713 -0.6131
   44MOL    H6716493   2.716   3.689   5.627 -0.6637  2.9795  1.1260
   44MOL    H6816494   2.803   3.899   5.610 -2.4152 -0.7660  1.6112
   44MOL    H6916495   2.881   4.068   5.470 -0.6033  1.0554  0.5116
   44MOL    H7016496   2.715   4.134   5.457 -0.1823 -1.2030  0.0991
   44MOL    H7116497   2.744   4.123   5.210  0.7077  0.8724 -1.5738
   44MOL    H7216498   2.857   4.222   5.298 -1.1521 -0.2233 -0.0870
   44MOL    H7316499   3.046   4.079   5.266 -0.2605  1.2289 -0.4093
   44MOL    H7416500   2.956   3.937   5.223  1.5912 -0.1497 -0.4663
   44MOL    H7516501   3.056   4.044   5.028  0.7436  0.8054  1.6152
   44MOL    H7616502   2.878   4.047   5.018 -0.1040 -0.7621  0.0090
   44MOL    H7716503   2.975   4.185   5.061  0.5748  0.4973  0.9531
   44MOL    C7816504   2.577   3.912   5.618 -0.0943 -0.1780 -0.7184
   44MOL    C7916505   2.572   4.042   5.704  0.5280 -0.5984 -0.6585
   44MOL    O8016506   2.684   4.029   5.790 -0.3728 -0.3652  0.0201
   44MOL    C8116507   2.784   4.133   5.782 -0.6033  0.0843 -0.1241
   44MOL    C8216508   2.908   4.102   5.861  0.0769 -0.2798 -0.5392
   44MOL    C8316509   2.880   4.102   6.012  0.2596 -0.0319  0.1025
   44MOL    C8416510   3.011   4.065   6.088  0.3102  0.1611  0.2508
   44MOL    H8516511   2.552   3.827   5.681  2.8832  2.2059  3.8885
   44MOL    H8616512   2.494   3.924   5.548 -1.1782 -0.2754  0.5231
   44MOL    H8716513   2.580   4.130   5.639 -3.0173  0.4698  0.2360
   44MOL    H8816514   2.752   4.232   5.814  0.8485  0.4610  0.1926
   44MOL    H8916515   2.817   4.143   5.678  2.8920  1.9760  1.0718
   44MOL    H9016516   2.942   4.000   5.843  0.0811 -0.2874 -0.4842
   44MOL    H9116517   2.988   4.174   5.842 -0.8259  0.4625 -1.5712
   44MOL    H9216518   2.812   4.018   6.020 -0.0378 -0.2294 -3.5820
   44MOL    H9316519   2.832   4.192   6.051 -0.9522 -0.7789  0.3383
   44MOL    H9416520   3.006   4.046   6.195  2.7909  1.2165  0.6051
   44MOL    H9516521   3.037   3.968   6.048  1.5361  0.6562 -0.1725
   44MOL    H9616522   3.098   4.130   6.074  0.0104  0.7245  0.9755
   44MOL    C9716523   2.440   4.053   5.785 -0.4518 -0.2446  0.8722
   44MOL    C9816524   2.431   4.175   5.876  0.4989 -0.5867  0.5883
   44MOL    O9916525   2.374   4.280   5.796  0.0965  0.3388  0.5656
   44MOL   C10016526   2.421   4.403   5.840  0.3098  0.1381  0.0816
   44MOL   C10116527   2.352   4.514   5.765 -0.3075  0.4845  0.2575
   44MOL   C10216528   2.411   4.649   5.792  0.4112  0.0559  0.2605
   44MOL   C10316529   2.355   4.758   5.696  0.3283 -0.1984  0.3954
   44MOL   H10416530   2.440   3.966   5.851 -0.6864 -0.4947  0.5421
   44MOL   H10516531   2.353   4.043   5.720  0.5484 -0.9619 -0.3761
   44MOL   H10616532   2.537   4.198   5.892  0.5952 -0.9909  0.5224
   44MOL   H10716533   2.530   4.412   5.833  0.4960 -0.6751  1.6366
   44MOL   H10816534   2.407   4.412   5.948  0.9681  1.7125  0.0510
   44MOL   H10916535   2.245   4.517   5.786 -1.0233 -0.2311 -2.9750
   44MOL   H11016536   2.344   4.486   5.660  1.5255  2.7104 -0.5051
   44MOL   H11116537   2.519   4.648   5.780  0.4311 -0.2538  0.4581
   44MOL   H11216538   2.393   4.673   5.897 -2.5958 -1.3976  0.1249
   44MOL   H11316539   2.247   4.771   5.696 -0.0405 -2.7852 -1.3692
   44MOL   H11416540   2.401   4.854   5.719  2.7721 -0.9614 -1.0295
   44MOL   H11516541   2.378   4.747   5.590  1.6102 -0.7451  0.7195
   44MOL   C11616542   2.371   4.144   6.014 -0.3969  0.0426 -0.4505
   44MOL   C11716543   2.232   4.092   6.000  0.2365 -0.1871 -0.2341
   44MOL   O11816544   2.208   3.990   6.091  0.3764  0.1059 -0.1582
   44MOL   C11916545   2.265   3.863   6.050  0.1975 -0.3992  0.1021
   44MOL   C12016546   2.222   3.764   6.157  0.4615 -0.6641 -0.5085
   44MOL   C12116547   2.250   3.616   6.119 -0.1547  0.1945 -1.1998
   44MOL   C12216548   2.166   3.525   6.215  0.2268 -0.2168  0.4083
   44MOL   H12316549   2.441   4.080   6.067  1.1261  2.8328  1.0509
   44MOL   H12416550   2.376   4.240   6.066 -0.6515 -0.9917  1.5089
   44MOL   H12516551   2.209   4.052   5.901  0.4886 -1.4079  0.1896
   44MOL   H12616552   2.374   3.868   6.047  0.2622 -1.1873  1.0619
   44MOL   H12716553   2.242   3.825   5.950  1.1768  1.5045 -0.8695
   44MOL   H12816554   2.116   3.778   6.180  0.2142 -0.5898 -1.6254
   44MOL   H12916555   2.277   3.784   6.248 -0.3935 -2.5409  0.4591
   44MOL   H13016556   2.215   3.605   6.017 -0.1094 -3.9526 -0.8584
   44MOL   H13116557   2.353   3.579   6.117  1.0997  3.2094  1.4435
   44MOL   H13216558   2.217   3.528   6.312  0.4146 -1.7969  0.3580
   44MOL   H13316559   2.172   3.423   6.180 -1.6198 -0.0241 -0.5343
   44MOL   H13416560   2.065   3.567   6.213  0.6255  0.7322 -0.4631
   44MOL   C13516561   2.132   4.207   6.016  0.1348 -0.4441  0.1389
   44MOL   C13616562   1.981   4.162   6.017 -0.3764  0.0203  0.4504
   44MOL   O13716563   1.915   4.283   6.056 -0.0601  0.0768  0.3934
   44MOL   C13816564   1.796   4.251   6.129 -0.2225  0.3973  0.2340
   44MOL   C13916565   1.741   4.387   6.172  0.1256  0.2562  0.1924
   44MOL   C14016566   1.834   4.459   6.266 -0.1417 -0.3593  0.2613
   44MOL   C14116567   1.778   4.598   6.307  0.1276 -0.3821 -0.4098
   44MOL   H14216568   2.150   4.276   5.933  0.3438 -1.2953 -0.5288
   44MOL   H14316569   2.151   4.264   6.107 -1.2590 -0.8270  0.6669
   44MOL   H14416570   1.978   4.087   6.096  1.1848 -0.1181  0.3906
   44MOL   H14516571   1.823   4.205   6.223 -0.5194 -1.6763 -0.6571
   44MOL   H14616572   1.720   4.190   6.079  1.4544 -2.2593  0.7886
   44MOL   H14716573   1.645   4.381   6.224  0.4519 -1.9301  0.6086
   44MOL   H14816574   1.715   4.446   6.084 -2.2405  0.9798  1.3521
   44MOL   H14916575   1.859   4.395   6.351  0.0654 -0.6055  0.0168
   44MOL   H15016576   1.923   4.478   6.205 -0.6961  1.4092 -0.0356
   44MOL   H15116577   1.838   4.639   6.389 -0.5893  1.9606 -1.0054
   44MOL   H15216578   1.785   4.680   6.235 -2.2070  1.4348  1.3271
   44MOL   H15316579   1.674   4.585   6.338  0.8303 -2.0416  1.3125
   44MOL   C15416580   1.928   4.110   5.884  0.2182 -0.6583  0.4979
   44MOL   C15516581   1.922   3.961   5.858 -0.6982 -0.0207 -0.1362
   44MOL   O15616582   1.927   3.945   5.717 -0.3662 -0.2131 -0.3267
   44MOL   C15716583   2.053   3.927   5.652  0.2423 -0.0460 -1.0832
   44MOL   C15816584   2.035   3.921   5.502  0.0112  0.3922  0.1128
   44MOL   C15916585   1.993   4.057   5.436  0.5009 -0.5426 -0.4038
   44MOL   C16016586   2.008   4.076   5.283 -0.7527  0.2827 -0.4012
   44MOL   H16116587   1.987   4.163   5.808 -0.6269  1.1200  1.0499
   44MOL   H16216588   1.840   4.162   5.848  1.1675 -1.1324 -2.7025
   44MOL   H16316589   1.999   3.901   5.907 -0.6042  0.6818  0.5773
   44MOL   H16416590   2.122   4.008   5.677  1.9877 -2.0199  0.7223
   44MOL   H16516591   2.109   3.842   5.691 -0.4779 -0.1326 -0.2225
   44MOL   H16616592   1.967   3.847   5.460  0.7287  0.4676 -1.1862
   44MOL   H16716593   2.132   3.900   5.458  0.3514  0.2641  0.9085
   44MOL   H16816594   1.891   4.080   5.468  1.0338  1.0885  0.1693
   44MOL   H16916595   2.046   4.137   5.488 -2.5735  0.2429  1.6348
   44MOL   H17016596   1.994   4.178   5.248 -2.9540 -0.1487 -0.8643
   44MOL   H17116597   2.104   4.039   5.247 -0.2568 -0.0843  1.2779
   44MOL   H17216598   1.931   4.029   5.221 -0.1137  1.0886 -1.8302
   44MOL   C17316599   1.785   3.908   5.904  0.2628  0.4455  0.1727
   44MOL   C17416600   1.787   3.755   5.930 -0.5333 -0.4017 -0.2804
   44MOL   O17516601   1.680   3.727   6.014 -0.3692 -0.2519  0.0486
   44MOL   C17616602   1.723   3.702   6.147  0.0312  0.1300  0.2492
   44MOL   C17716603   1.602   3.633   6.212 -0.4018  0.6986  0.2958
   44MOL   C17816604   1.624   3.592   6.364  0.5994 -0.2524  0.6199
   44MOL   C17916605   1.487   3.547   6.420 -0.2489  0.1666 -0.0241
   44MOL   H18016606   1.717   3.928   5.821 -0.9481  0.0521  1.0511
   44MOL   H18116607   1.748   3.975   5.982 -1.9581 -0.8056  0.2405
   44MOL   H18216608   1.883   3.722   5.969  2.2555  1.4160 -5.1411
   44MOL   H18316609   1.750   3.799   6.190 -1.6090  0.8284 -0.2503
   44MOL   H18416610   1.809   3.635   6.140  0.4571  0.3852  2.6006
   44MOL   H18516611   1.586   3.542   6.154  2.8288 -0.6768  1.4482
   44MOL   H18616612   1.511   3.694   6.215 -0.2473  0.9062  1.0669
   44MOL   H18716613   1.691   3.511   6.394  0.5526 -0.7526 -0.5691
   44MOL   H18816614   1.658   3.682   6.416 -0.3509  2.0725 -2.6541
   44MOL   H18916615   1.395   3.602   6.401 -0.1461  0.1249 -0.6758
   44MOL   H19016616   1.468   3.444   6.393 -4.5608  0.8768 -0.0290
   44MOL   H19116617   1.503   3.551   6.528 -1.1237  2.0630  0.0581
   44MOL   C19216618   1.770   3.676   5.795 -0.3548  0.0114  0.0723
   44MOL   C19316619   1.759   3.527   5.806 -1.1966 -0.6261  0.6313
   44MOL   O19416620   1.743   3.480   5.676  0.7520 -0.2056 -0.6450
   44MOL   C19516621   1.602   3.479   5.633 -0.6066  0.0087  0.2947
   44MOL   C19616622   1.580   3.373   5.525  0.0345  0.8613  0.5643
   44MOL   C19716623   1.625   3.237   5.571 -0.6441  0.0351  0.8305
   44MOL   C19816624   1.570   3.127   5.472  0.1539  0.1639 -0.1943
   44MOL   H19916625   1.858   3.693   5.733 -0.2513  0.5464  0.3621
   44MOL   H20016626   1.696   3.724   5.732 -0.4038  2.6146  1.9848
   44MOL   H20116627   1.679   3.485   5.867 -0.8433 -2.7124 -0.3109
   44MOL   H20216628   1.580   3.576   5.588 -2.9599 -1.3912 -1.6587
   44MOL   H20316629   1.543   3.464   5.723 -1.2903  1.2019  0.0437
   44MOL   H20416630   1.476   3.377   5.492  0.9417 -2.1920 -3.0296
   44MOL   H20516631   1.633   3.401   5.434 -0.8361  1.8902  0.3714
   44MOL   H20616632   1.591   3.196   5.666 -0.0709 -0.0836  0.9840
   44MOL   H20716633   1.734   3.238   5.572 -0.4540  4.2124 -3.6838
   44MOL   H20816634   1.566   3.165   5.370 -1.1415 -1.0761 -0.6160
   44MOL   H20916635   1.627   3.034   5.468  2.7549  1.7573 -4.6978
   44MOL   H21016636   1.465   3.105   5.491  0.7899 -1.7991  1.1982
   44MOL   C21116637   1.891   3.461   5.854  0.2559  0.0697 -0.2774
   44MOL   C21216638   1.874   3.327   5.921  0.2915 -0.1991 -0.8683
   44MOL   O21316639   1.997   3.258   5.916 -0.2164 -0.7114 -0.2863
   44MOL   C21416640   1.996   3.136   5.836 -0.0073  0.6615 -0.1971
   44MOL   C21516641   2.141   3.091   5.812 -0.2255  0.1291  0.1885
   44MOL   C21616642   2.153   2.980   5.709 -0.2368 -0.1955  0.3384
   44MOL   C21716643   2.298   2.928   5.694  0.3790  0.1101  0.1977
   44MOL   H21816644   1.935   3.528   5.928 -1.6439  0.0361  0.9173
   44MOL   H21916645   1.953   3.450   5.764  0.8763 -1.1036  0.2800
   44MOL   H22016646   1.798   3.269   5.867 -0.9123 -0.5058  1.0863
   44MOL   H22116647   1.942   3.059   5.891 -1.5057  1.3673 -0.6440
   44MOL   H22216648   1.950   3.128   5.738  2.1943 -4.0732 -0.9472
   44MOL   H22316649   2.200   3.176   5.777 -0.3631  0.3112  0.3951
   44MOL   H22416650   2.184   3.070   5.911 -1.7583  2.5705  1.4321
   44MOL   H22516651   2.124   3.035   5.619  2.2699  1.1476  0.3202
   44MOL   H22616652   2.081   2.899   5.722  0.4329 -0.7864  0.3606
   44MOL   H22716653   2.288   2.839   5.632  2.0020  0.3493 -0.4355
   44MOL   H22816654   2.347   2.889   5.783  0.5551  0.3780  0.2193
   44MOL   H22916655   2.364   2.997   5.641 -1.8533 -0.2528 -3.2160
   44MOL   C23016656   1.829   3.342   6.061  0.0880  0.0763 -0.2938
   44MOL   C23116657   1.812   3.208   6.136 -0.9382  0.3499 -0.9794
   44MOL   O23216658   1.785   3.216   6.283 -0.0400 -0.4584  0.6625
   44MOL   C23316659   1.885   3.261   6.364 -0.1266  0.0581  0.1537
   44MOL   C23416660   1.857   3.239   6.515 -0.6959 -0.1341 -0.7506
   44MOL   C23516661   1.850   3.086   6.551  0.2583  0.9168 -0.0399
   44MOL   C23616662   1.817   3.071   6.698 -0.0319  0.6420 -0.5841
   44MOL   H23716663   1.735   3.394   6.074  0.4327  0.6937 -0.2767
   44MOL   H23816664   1.905   3.395   6.118  0.9958 -0.7301 -0.7401
   44MOL   H23916665   1.895   3.143   6.108 -1.5350 -1.1419  0.6115
   44MOL   H24016666   1.979   3.212   6.342  0.3274  1.5587 -1.3549
   44MOL   H24116667   1.895   3.366   6.336 -0.5055  0.5318  1.7408
   44MOL   H24216668   1.941   3.283   6.569 -2.6482  3.1409 -0.1948
   44MOL   H24316669   1.765   3.289   6.546 -0.3455  0.4283 -0.6013
   44MOL   H24416670   1.948   3.041   6.529  0.9339  1.0355  2.6197
   44MOL   H24516671   1.766   3.040   6.499 -0.3366  0.6909  1.1179
   44MOL   H24616672   1.912   3.098   6.745 -0.4312  0.6181  0.2611
   44MOL   H24716673   1.785   2.971   6.727 -0.1981  1.2729  1.5241
   44MOL   H24816674   1.740   3.142   6.731  1.5311  1.3984  1.5485
   44MOL   C24916675   1.683   3.139   6.099 -0.3290  0.0130 -0.8138
   44MOL   C25016676   1.699   2.993   6.150  0.1588  0.1298 -0.2478
   44MOL   O25116677   1.795   2.925   6.069 -0.1144 -0.2087 -0.3494
   44MOL   C25216678   1.900   2.873   6.142  0.6519  0.8586 -0.0560
   44MOL   C25316679   1.991   2.782   6.058  0.8743 -0.0953 -0.4249
   44MOL   C25416680   1.914   2.651   6.013 -0.5347 -0.5571 -0.1402
   44MOL   C25516681   1.999   2.557   5.932 -0.0242  0.0527 -0.0878
   44MOL   H25616682   1.665   3.139   5.992 -0.3973 -2.1556 -0.8260
   44MOL   H25716683   1.596   3.179   6.150 -0.8089 -0.9361 -0.8662
   44MOL   H25816684   1.728   2.993   6.255  2.2692  1.2919 -0.7939
   44MOL   H25916685   1.854   2.807   6.215 -2.7294  1.2101 -1.7746
   44MOL   H26016686   1.957   2.958   6.179  0.5157  0.8248  0.2317
   44MOL   H26116687   2.031   2.833   5.971  4.1494  1.5096  1.9303
   44MOL   H26216688   2.073   2.748   6.121  1.2874  0.3385 -0.7246
   44MOL   H26316689   1.873   2.611   6.105 -2.0758  0.5439 -0.3399
   44MOL   H26416690   1.834   2.689   5.950 -0.2915 -1.6164 -1.1012
   44MOL   H26516691   2.073   2.498   5.986 -1.9860 -3.1562 -0.7700
   44MOL   H26616692   2.044   2.612   5.849 -1.2093  2.4173  0.8004
   44MOL   H26716693   1.931   2.479   5.898 -1.1427 -0.1001  2.4376
   44MOL   C26816694   1.559   2.921   6.131  0.2841 -0.9793  0.4609
   44MOL   C26916695   1.570   2.769   6.125 -0.2346 -0.2042  0.2404
   44MOL   O27016696   1.626   2.739   6.258  0.6670 -0.3727  0.4441
   44MOL   C27116697   1.623   2.602   6.287 -0.2411 -0.0224  0.7196
   44MOL   C27216698   1.678   2.584   6.428  0.4452  0.5312 -0.0205
   44MOL   C27316699   1.684   2.442   6.481  0.1556 -0.9036  0.8706
   44MOL   C27416700   1.707   2.433   6.633  0.1620 -0.5248 -0.1805
   44MOL   H27516701   1.485   2.945   6.207 -0.3685  2.1165 -1.0577
   44MOL   H27616702   1.519   2.960   6.038 -1.2867  1.2209  2.0142
   44MOL   H27716703   1.634   2.744   6.041 -0.8745  0.8174 -0.5651
   44MOL   H27816704   1.526   2.552   6.291 -0.1405 -0.0963  2.7001
   44MOL   H27916705   1.684   2.542   6.220 -0.3617 -1.2424  1.6936
   44MOL   H28016706   1.775   2.634   6.432  0.4807  0.4266  0.5829
   44MOL   H28116707   1.618   2.638   6.502 -0.5001  1.0999 -1.1926
   44MOL   H28216708   1.774   2.408   6.429 -0.1956  3.2403 -2.7627
   44MOL   H28316709   1.607   2.376   6.441  0.8710 -0.5934 -1.0946
   44MOL   H28416710   1.618   2.474   6.679 -0.1911 -0.7838 -0.6284
   44MOL   H28516711   1.799   2.479   6.669  0.3813  0.2472 -1.7027
   44MOL   H28616712   1.706   2.329   6.666  1.3619 -0.0809  1.3241
   44MOL   C28716713   1.431   2.702   6.089 -0.6387 -0.6828  0.3747
   44MOL   C28816714   1.431   2.570   6.010  1.1650 -0.0244  0.3988
   44MOL   O28916715   1.464   2.585   5.868  0.1080 -0.9885  0.2745
   44MOL   C29016716   1.586   2.527   5.831 -0.1355  0.8411 -0.2323
   44MOL   C29116717   1.629   2.596   5.698  0.4929  0.1409 -0.4802
   44MOL   C29216718   1.549   2.546   5.575  0.2195 -0.1795 -0.3108
   44MOL   C29316719   1.449   2.650   5.530 -0.4494 -0.0774 -0.3540
   44MOL   H29416720   1.359   2.759   6.031  0.6418 -0.5353 -1.0927
   44MOL   H29516721   1.377   2.694   6.184 -0.8027  2.1451  0.5506
   44MOL   H29616722   1.487   2.492   6.061  1.5426  1.2579  1.9854
   44MOL   H29716723   1.659   2.556   5.906 -2.3385 -0.9148  2.7152
   44MOL   H29816724   1.577   2.418   5.831  0.1042  0.8204  0.2011
   44MOL   H29916725   1.736   2.576   5.694  0.3813 -1.1836  2.0057
   44MOL   H30016726   1.606   2.703   5.701 -3.1225 -0.5763 -0.6347
   44MOL   H30116727   1.489   2.458   5.598 -1.2881  0.6915 -0.8516
   44MOL   H30216728   1.608   2.528   5.484 -0.1235 -1.1396 -0.3508
   44MOL   H30316729   1.398   2.695   5.615 -0.9522 -0.2233 -0.5753
   44MOL   H30416730   1.484   2.733   5.469 -1.0282  0.0688 -0.4932
   44MOL   H30516731   1.370   2.611   5.465 -0.9219  1.6116 -0.8138
   44MOL   C30616732   1.295   2.510   6.004  0.5315  1.1658 -0.2213
   44MOL   C30716733   1.263   2.420   6.126 -0.0250  0.0337 -0.3861
   44MOL   O30816734   1.318   2.288   6.097  0.0132 -0.0894 -0.6689
   44MOL   C30916735   1.414   2.258   6.198  0.6384  0.2017  0.0269
   44MOL   C31016736   1.496   2.126   6.164  0.2713 -0.8400  0.2324
   44MOL   C31116737   1.599   2.146   6.054 -0.5642 -0.7089 -0.4389
   44MOL   C31216738   1.718   2.239   6.076  0.2699  0.2869 -0.1268
   44MOL   H31316739   1.221   2.588   5.988  1.2444  1.5845 -1.6126
   44MOL   H31416740   1.287   2.461   5.907 -0.0739  0.9488 -0.0614
   44MOL   H31516741   1.315   2.469   6.208 -1.5650 -1.0311  1.2541
   44MOL   H31616742   1.357   2.239   6.290  0.3569 -2.5917 -0.6805
   44MOL   H31716743   1.487   2.335   6.219  1.5337  0.0786 -2.5323
   44MOL   H31816744   1.430   2.052   6.118 -2.3754  2.1069 -0.9262
   44MOL   H31916745   1.537   2.083   6.255  1.8070  1.2669  0.5677
   44MOL   H32016746   1.640   2.051   6.018 -0.3899 -1.1452  0.9101
   44MOL   H32116747   1.532   2.186   5.977  0.4722  0.0638 -0.9607
   44MOL   H32216748   1.784   2.208   6.156 -2.0014  1.0617  2.1086
   44MOL   H32316749   1.680   2.338   6.103 -0.6495 -0.3378  0.8836
   44MOL   H32416750   1.774   2.240   5.982  2.4572 -0.4442  1.1548
   44MOL   C32516751   1.109   2.411   6.153  0.4282 -0.3349 -0.7034
   44MOL   C32616752   1.076   2.360   6.297  0.1297 -0.3080 -0.5686
   44MOL   O32716753   1.136   2.451   6.397  0.5620 -0.2055  0.3759
   44MOL   C32816754   1.167   2.384   6.518 -0.0141  0.3400  0.0024
   44MOL   C32916755   1.232   2.479   6.624 -0.6478  0.3087 -0.5847
   44MOL   C33016756   1.119   2.578   6.682 -0.0619 -0.4351  0.1412
   44MOL   C33116757   1.183   2.682   6.766  0.5995  0.2086  0.4750
   44MOL   H33216758   1.066   2.349   6.075 -0.1306 -0.5190 -0.2559
   44MOL   H33316759   1.062   2.508   6.136  0.6308  0.1823  1.5102
   44MOL   H33416760   1.104   2.257   6.318  0.4040  0.0021  0.6816
   44MOL   H33516761   1.220   2.289   6.518  2.7291  1.8226  0.1331
   44MOL   H33616762   1.073   2.344   6.557  0.8220 -2.0373 -0.3018
   44MOL   H33716763   1.269   2.412   6.702 -1.6282 -0.4205 -0.7446
   44MOL   H33816764   1.309   2.540   6.577 -1.7089  2.6891  0.6729
   44MOL   H33916765   1.045   2.520   6.738  0.7784 -0.8739  0.8090
   44MOL   H34016766   1.061   2.626   6.602  0.5932 -0.2335 -0.2159
   44MOL   H34116767   1.253   2.636   6.835  1.7651 -1.2881 -1.6385
   44MOL   H34216768   1.107   2.726   6.831  1.6919  0.9749  1.2572
   44MOL   H34316769   1.235   2.767   6.721 -0.3070  1.3628  1.5438
   44MOL   C34416770   0.917   2.371   6.315 -0.0883 -0.2905  0.0900
   44MOL   C34516771   0.843   2.239   6.281  0.3035 -0.3633 -0.6378
   44MOL   O34616772   0.830   2.214   6.145 -0.1691  0.1429  0.6515
   44MOL   C34716773   0.741   2.300   6.072  0.1918  1.0590  0.3741
   44MOL   C34816774   0.739   2.260   5.924 -0.4381  0.0644  0.1384
   44MOL   C34916775   0.679   2.121   5.890 -0.6728 -0.0361  0.2178
   44MOL   C35016776   0.713   2.081   5.744  0.6056  0.0233 -0.0054
   44MOL   H35116777   0.903   2.387   6.422 -2.1463 -4.5152  0.5573
   44MOL   H35216778   0.880   2.461   6.265 -1.0664 -1.0507 -0.5598
   44MOL   H35316779   0.905   2.158   6.320  0.0950  0.4720  1.4921
   44MOL   H35416780   0.778   2.402   6.074  3.4509 -0.0839  1.1071
   44MOL   H35516781   0.639   2.288   6.108  0.8774 -0.9011  1.7845
   44MOL   H35616782   0.840   2.272   5.884 -1.0955  0.1099 -1.5606
   44MOL   H35716783   0.692   2.341   5.869  0.7927  1.8235  1.6323
   44MOL   H35816784   0.702   2.044   5.964 -0.7054 -1.5313 -1.2882
   44MOL   H35916785   0.572   2.138   5.892 -1.0283 -1.9198 -1.1392
   44MOL   H36016786   0.821   2.069   5.731  0.8792  2.8632 -0.7741
   44MOL   H36116787   0.669   2.154   5.676 -1.3950 -1.4754 -0.3645
   44MOL   H36216788   0.658   1.989   5.725  2.3441 -1.0762  0.1447
   44MOL   C36316789   0.707   2.239   6.355 -0.3464  0.1325  0.7515
   44MOL   C36416790   0.614   2.117   6.308  0.0168 -0.2205  0.1416
   44MOL   O36516791   0.518   2.096   6.406 -0.0523 -0.3196 -0.6772
   44MOL   C36616792   0.426   1.992   6.386 -0.1496 -0.3472 -0.0798
   44MOL   C36716793   0.370   1.958   6.522  0.2491  0.0015  0.5371
   44MOL   C36816794   0.239   1.875   6.502 -0.0431  0.4271  0.1554
   44MOL   C36916795   0.193   1.795   6.623  0.4239  0.8372 -0.5694
   44MOL   H37016796   0.661   2.336   6.337 -0.6401 -0.1655 -0.1445
   44MOL   H37116797   0.721   2.229   6.463 -1.8006  0.1643  0.9492
   44MOL   H37216798   0.675   2.026   6.303  2.0189  1.0906 -0.0596
   44MOL   H37316799   0.476   1.908   6.338 -1.0795  0.1924 -2.0146
   44MOL   H37416800   0.364   2.037   6.309 -0.0390  0.1924  0.1435
   44MOL   H37516801   0.343   2.045   6.581  0.1365  2.3376 -2.7604
   44MOL   H37616802   0.443   1.894   6.571 -1.8852 -1.2162  2.1786
   44MOL   H37716803   0.252   1.807   6.419 -0.7846 -1.1455  1.3096
   44MOL   H37816804   0.156   1.941   6.475 -0.4895 -1.0099 -2.0238
   44MOL   H37916805   0.262   1.712   6.640 -1.1767 -0.7502 -1.6374
   44MOL   H38016806   0.177   1.855   6.713 -0.0788 -1.0576  0.6566
   44MOL   H38116807   0.100   1.743   6.602 -0.0634  1.9666 -1.2464
   44MOL   H38216808   0.573   2.129   6.208  0.3637  1.0597  0.1533
   45MOL     C116809   0.444   7.059   5.464 -0.2923 -0.0946 -0.0993
   45MOL     C216810   0.510   7.083   5.331 -0.1963  0.2221  0.4622
   45MOL     O316811   0.503   6.965   5.251 -0.2509 -0.4466  0.2387
   45MOL     C416812   0.609   6.876   5.285 -0.0658  0.7625  0.3960
   45MOL     C516813   0.573   6.735   5.217 -0.0953 -0.4065 -0.4182
   45MOL     C616814   0.486   6.654   5.304 -0.5210  0.4426  0.4637
   45MOL     C716815   0.560   6.567   5.400  0.0567  0.1790  0.5461
   45MOL     H816816   0.481   7.131   5.538  0.1778 -1.5516  1.1151
   45MOL     H916817   0.336   7.049   5.464 -0.4454  1.4365  0.0159
   45MOL    H1016818   0.615   7.107   5.352  0.1305 -1.7967  1.2492
   45MOL    H1116819   0.704   6.920   5.253 -1.3269  3.7272  0.5669
   45MOL    H1216820   0.608   6.860   5.393 -0.4946  1.7105  0.5313
   45MOL    H1316821   0.661   6.684   5.180 -0.6925 -0.6551 -1.4981
   45MOL    H1416822   0.518   6.760   5.126 -1.5474  0.9620  0.7977
   45MOL    H1516823   0.436   6.588   5.233  0.9751  1.5753 -1.7131
   45MOL    H1616824   0.419   6.720   5.359 -0.6781  0.1884  0.5760
   45MOL    H1716825   0.625   6.622   5.467 -0.0179 -1.2137  1.7993
   45MOL    H1816826   0.611   6.488   5.344 -1.9995 -0.5004 -0.4090
   45MOL    H1916827   0.478   6.515   5.449  0.2848 -0.1280  0.6030
   45MOL    H2016828   0.487   6.969   5.509  1.5248  1.4644  1.4076
   45MOL    C2116829   0.451   7.206   5.267  0.0058  0.5572  0.3525
   45MOL    C2216830   0.529   7.264   5.146 -0.1150 -0.1891 -0.1170
   45MOL    O2316831   0.676   7.259   5.168  0.5154  0.1793  0.4321
   45MOL    C2416832   0.722   7.376   5.241 -0.3975  0.7055 -0.4860
   45MOL    C2516833   0.878   7.370   5.248  0.2916 -0.4084 -0.4493
   45MOL    C2616834   0.936   7.245   5.308  0.6918  0.2808 -0.0743
   45MOL    C2716835   1.083   7.258   5.337 -0.4424  0.2820 -0.1542
   45MOL    H2816836   0.444   7.280   5.347 -0.3963  1.0676 -0.1529
   45MOL    H2916837   0.344   7.196   5.249 -0.2197 -0.0588  1.8896
   45MOL    H3016838   0.493   7.365   5.125  0.5356  0.4133  1.6322
   45MOL    H3116839   0.684   7.380   5.343  0.7213  1.7623 -0.1113
   45MOL    H3216840   0.688   7.471   5.200  0.6194  0.8752 -0.9223
   45MOL    H3316841   0.910   7.389   5.146 -0.1902  1.5656 -0.2500
   45MOL    H3416842   0.911   7.459   5.302 -0.2638 -0.3564 -0.1944
   45MOL    H3516843   0.894   7.228   5.407 -0.4388  1.8254 -0.2628
   45MOL    H3616844   0.909   7.156   5.252  1.3115  0.7456 -1.1323
   45MOL    H3716845   1.110   7.168   5.392  0.0777 -1.2844 -2.9154
   45MOL    H3816846   1.150   7.258   5.251 -2.6160  2.8669 -1.9522
   45MOL    H3916847   1.117   7.344   5.395 -0.6791 -0.3630  0.9610
   45MOL    C4016848   0.516   7.173   5.021  0.0988  0.5339  0.1820
   45MOL    C4116849   0.562   7.226   4.880 -0.5911  0.3143 -0.5577
   45MOL    O4216850   0.467   7.311   4.831  0.2347  0.1133 -0.2034
   45MOL    C4316851   0.527   7.417   4.760 -0.1514 -0.1570  0.6399
   45MOL    C4416852   0.412   7.504   4.712 -0.3948  0.2538 -0.1753
   45MOL    C4516853   0.482   7.635   4.656  0.4779  0.3302  0.3860
   45MOL    C4616854   0.386   7.715   4.564  0.5457 -0.1173 -0.8398
   45MOL    H4716855   0.415   7.134   5.005 -0.4071  2.1981 -0.7918
   45MOL    H4816856   0.581   7.092   5.053 -0.3422  0.2660  0.4167
   45MOL    H4916857   0.654   7.281   4.899 -0.4895  0.1678 -0.6273
   45MOL    H5016858   0.582   7.380   4.674 -0.7154 -1.2834  0.7581
   45MOL    H5116859   0.594   7.480   4.818 -1.6817 -0.3820  2.7066
   45MOL    H5216860   0.338   7.522   4.790 -1.1411  0.6396 -0.9718
   45MOL    H5316861   0.360   7.456   4.629 -1.9856 -0.7210  1.3575
   45MOL    H5416862   0.555   7.604   4.582 -0.0099  0.4658 -0.1522
   45MOL    H5516863   0.533   7.705   4.722 -1.4626  2.5008 -0.3455
   45MOL    H5616864   0.442   0.003   4.537  0.8132  0.3131  1.0913
   45MOL    H5716865   0.334   7.668   4.480  1.7578 -2.2054 -0.4306
   45MOL    H5816866   0.311   7.768   4.623  1.8035  1.6442 -0.7638
   45MOL    C5916867   0.583   7.112   4.773 -0.3025 -0.1174 -0.0274
   45MOL    C6016868   0.672   6.995   4.823  0.0136 -0.2774  0.3768
   45MOL    O6116869   0.674   6.895   4.729  0.1166  0.2749  0.4325
   45MOL    C6216870   0.586   6.786   4.744  0.7336  0.4071  0.8123
   45MOL    C6316871   0.614   6.675   4.642  0.0615 -0.2942 -0.1849
   45MOL    C6416872   0.571   6.705   4.499 -0.1590 -0.1494 -0.0793
   45MOL    C6516873   0.657   6.814   4.430 -0.6012 -0.2892  0.0672
   45MOL    H6616874   0.485   7.076   4.743 -0.1819 -1.3308  1.0042
   45MOL    H6716875   0.628   7.156   4.684  0.5309 -0.5313  0.1884
   45MOL    H6816876   0.625   6.955   4.914 -3.9307 -0.4922 -1.6508
   45MOL    H6916877   0.481   6.812   4.731  0.4483 -1.6745 -1.2673
   45MOL    H7016878   0.591   6.737   4.842 -0.3933  0.0420  0.6821
   45MOL    H7116879   0.719   6.646   4.639  0.1168 -0.0010 -1.1787
   45MOL    H7216880   0.571   6.583   4.682  0.6848  0.3559  2.0412
   45MOL    H7316881   0.581   6.609   4.449  1.5114  1.1359 -2.3215
   45MOL    H7416882   0.469   6.743   4.494 -0.1325 -0.1602 -0.6671
   45MOL    H7516883   0.649   6.813   4.322  1.5589 -0.3128 -0.1225
   45MOL    H7616884   0.628   6.903   4.486  0.4517  0.6531 -0.8570
   45MOL    H7716885   0.765   6.805   4.443 -0.6390  0.5935  1.1184
   45MOL    C7816886   0.822   7.043   4.841  0.0214 -0.7743 -0.5620
   45MOL    C7916887   0.897   6.982   4.962  0.3718  0.3448 -0.0820
   45MOL    O8016888   1.040   7.005   4.936  0.2862  0.5289  0.4687
   45MOL    C8116889   1.086   7.113   5.000 -0.0920  0.0955 -1.0977
   45MOL    C8216890   1.227   7.142   4.945 -0.4041  0.0492 -0.4138
   45MOL    C8316891   1.238   7.158   4.796 -0.4416 -0.0275 -0.1668
   45MOL    C8416892   1.382   7.189   4.751 -0.4224 -0.5602  0.6595
   45MOL    H8516893   0.820   7.151   4.853 -2.6825 -0.8654  0.2679
   45MOL    H8616894   0.878   7.031   4.749  0.4253  1.0549 -0.5685
   45MOL    H8716895   0.863   7.032   5.053  2.3715  0.9826  0.3362
   45MOL    H8816896   1.090   7.092   5.106 -1.0561  2.0438 -0.6439
   45MOL    H8916897   1.022   7.201   4.988 -2.4378 -1.1337  1.8439
   45MOL    H9016898   1.260   7.238   4.984  2.7342 -1.3236  0.4849
   45MOL    H9116899   1.295   7.062   4.975  0.2654  1.2434  1.3138
   45MOL    H9216900   1.169   7.237   4.764  0.2788  1.0397  0.8811
   45MOL    H9316901   1.191   7.067   4.761 -0.3423 -1.6932  3.7938
   45MOL    H9416902   1.401   7.206   4.645  0.7463 -1.3872  0.7169
   45MOL    H9516903   1.421   7.275   4.806 -1.5978  0.6349 -0.3634
   45MOL    H9616904   1.445   7.106   4.783 -1.0650 -1.0035  0.7852
   45MOL    C9716905   0.874   6.828   4.971 -0.0035 -0.2083 -0.2992
   45MOL    C9816906   0.960   6.760   5.083 -0.2455 -0.6479  0.6969
   45MOL    O9916907   0.921   6.791   5.220  0.0093  0.0345  0.0777
   45MOL   C10016908   1.024   6.837   5.306 -0.2755 -0.3055 -0.1986
   45MOL   C10116909   0.956   6.876   5.436 -0.5821  0.8987  1.2292
   45MOL   C10216910   0.930   6.755   5.528  0.2438 -0.0209  0.2691
   45MOL   C10316911   0.904   6.794   5.673  0.3537  0.0385  0.3987
   45MOL   H10416912   0.913   6.786   4.878  1.8120  1.4217 -0.2959
   45MOL   H10516913   0.776   6.792   5.002  0.4485 -1.6502 -0.4646
   45MOL   H10616914   1.060   6.796   5.061 -0.6503 -0.4769 -0.9342
   45MOL   H10716915   1.085   6.920   5.269  1.0473 -0.0677  2.3590
   45MOL   H10816916   1.096   6.756   5.319  0.5462  0.4531  0.0784
   45MOL   H10916917   0.864   6.928   5.407  0.4447  1.7218 -0.6571
   45MOL   H11016918   1.020   6.950   5.484  0.5501  0.0751  1.0005
   45MOL   H11116919   1.012   6.683   5.527 -0.8181 -1.2733 -2.5486
   45MOL   H11216920   0.846   6.704   5.479  1.5475 -1.3081 -0.6626
   45MOL   H11316921   0.990   6.852   5.705  1.9513 -0.3280 -3.0264
   45MOL   H11416922   0.810   6.849   5.672 -1.1062 -2.3871 -0.6202
   45MOL   H11516923   0.901   6.713   5.746 -1.1316  0.4765  0.8345
   45MOL   C11616924   0.943   6.599   5.064 -0.2043  0.6550  0.3333
   45MOL   C11716925   1.029   6.517   5.161  0.0476 -0.2994 -0.2758
   45MOL   O11816926   1.004   6.379   5.130  0.5418  0.1945 -0.0436
   45MOL   C11916927   0.904   6.321   5.217  0.8579  0.0954 -0.3735
   45MOL   C12016928   0.895   6.166   5.192  0.3723  0.0016  0.2411
   45MOL   C12116929   0.990   6.079   5.272  0.7851  0.0329 -1.0839
   45MOL   C12216930   0.948   6.049   5.415  0.0497  0.0532  0.3724
   45MOL   H12316931   0.837   6.592   5.086  0.0663 -1.4050  1.0051
   45MOL   H12416932   0.965   6.562   4.964 -1.3553  0.3668  0.1799
   45MOL   H12516933   1.005   6.537   5.265  1.5545 -2.0741  0.4611
   45MOL   H12616934   0.811   6.371   5.193  1.0304  0.0228 -1.1869
   45MOL   H12716935   0.923   6.340   5.323 -0.3470 -0.7260 -0.0014
   45MOL   H12816936   0.914   6.157   5.085  0.6050 -1.0668  0.3601
   45MOL   H12916937   0.795   6.125   5.204 -0.3574  1.5010 -0.6533
   45MOL   H13016938   1.017   5.984   5.226  2.9460 -0.7808  1.7338
   45MOL   H13116939   1.085   6.132   5.269  0.1653  1.3743  1.2085
   45MOL   H13216940   0.948   6.142   5.471  0.1296  0.3646 -0.1427
   45MOL   H13316941   1.011   5.984   5.477 -0.8300  0.6144  1.8697
   45MOL   H13416942   0.848   6.007   5.417 -0.1192  0.4267 -0.1196
   45MOL   C13516943   1.179   6.538   5.139 -0.3614 -1.1166  0.1462
   45MOL   C13616944   1.277   6.463   5.234  0.5747 -0.0204 -0.4552
   45MOL   O13716945   1.413   6.507   5.217  0.0815 -0.1951 -0.5003
   45MOL   C13816946   1.471   6.506   5.081  0.8353 -0.3183 -0.2976
   45MOL   C13916947   1.624   6.518   5.094  0.2314  0.2974 -1.0085
   45MOL   C14016948   1.685   6.389   5.170 -1.0557  0.5499 -0.3880
   45MOL   C14116949   1.837   6.407   5.176  0.9077 -0.1544 -0.4832
   45MOL   H14216950   1.201   6.644   5.149 -1.5187 -1.0634  2.6155
   45MOL   H14316951   1.194   6.507   5.035  0.0475 -0.0365 -0.1252
   45MOL   H14416952   1.272   6.356   5.213  1.2994 -0.5457  1.8582
   45MOL   H14516953   1.430   6.582   5.014 -1.5926  0.4244  1.9333
   45MOL   H14616954   1.442   6.409   5.041  0.4763 -0.7908  1.0976
   45MOL   H14716955   1.645   6.601   5.160 -0.0847  0.2825 -0.8868
   45MOL   H14816956   1.671   6.530   4.996 -2.3296 -2.8575 -2.7637
   45MOL   H14916957   1.635   6.379   5.267  0.1100  1.8064  0.3508
   45MOL   H15016958   1.655   6.302   5.112  2.1212 -0.6865 -0.2705
   45MOL   H15116959   1.871   6.470   5.257  0.4989 -1.7575  0.9648
   45MOL   H15216960   1.887   6.313   5.199  1.0293 -0.6397 -2.5755
   45MOL   H15316961   1.890   6.451   5.091  0.8344 -0.5917 -0.7588
   45MOL   C15416962   1.247   6.467   5.385  0.2228  0.1444 -0.7623
   45MOL   C15516963   1.344   6.400   5.487  0.4676  0.0992 -0.3671
   45MOL   O15616964   1.303   6.265   5.488  0.4317 -0.3064  0.1037
   45MOL   C15716965   1.405   6.186   5.430  0.9203 -0.5766  0.3966
   45MOL   C15816966   1.347   6.043   5.414  0.5289  0.7236 -0.5525
   45MOL   C15916967   1.435   5.939   5.332 -0.2041 -0.4058  0.5379
   45MOL   C16016968   1.371   5.800   5.309  0.5029 -0.0572  0.7278
   45MOL   H16116969   1.144   6.431   5.393  0.4942 -0.5747 -0.5029
   45MOL   H16216970   1.242   6.571   5.417  0.0057  1.2237 -4.0964
   45MOL   H16316971   1.444   6.418   5.447 -0.8556 -0.8084 -4.3273
   45MOL   H16416972   1.448   6.220   5.335  1.3323 -0.7130  0.5328
   45MOL   H16516973   1.491   6.190   5.498  1.6935  0.2697 -0.6089
   45MOL   H16616974   1.253   6.051   5.359  0.8394  0.0502 -1.1987
   45MOL   H16716975   1.302   6.002   5.504  0.9666  0.3525 -0.5031
   45MOL   H16816976   1.487   5.983   5.248  1.9587 -1.4798  1.2828
   45MOL   H16916977   1.518   5.916   5.398 -0.1878  0.7552  0.9321
   45MOL   H17016978   1.395   5.768   5.208  2.4429 -1.3398  1.5627
   45MOL   H17116979   1.404   5.737   5.391 -0.7122 -0.2641  1.0617
   45MOL   H17216980   1.263   5.814   5.306  0.3692 -0.9281  1.4375
   45MOL   C17316981   1.337   6.459   5.631  0.3575 -0.2514 -0.3607
   45MOL   C17416982   1.422   6.580   5.655  0.0368 -0.3513 -0.0302
   45MOL   O17516983   1.381   6.688   5.575  0.1318  0.4655 -0.6539
   45MOL   C17616984   1.466   6.723   5.473 -0.2141 -0.3725 -0.5541
   45MOL   C17716985   1.385   6.828   5.405  0.0182 -0.2226 -0.3035
   45MOL   C17816986   1.467   6.901   5.301 -0.2416  0.3562 -0.1215
   45MOL   C17916987   1.415   7.039   5.254  0.3963 -0.7105  0.2704
   45MOL   H18016988   1.382   6.385   5.697  0.3521 -0.3129 -0.4258
   45MOL   H18116989   1.239   6.469   5.675  1.3172  0.4598  1.6655
   45MOL   H18216990   1.526   6.555   5.637  0.2040 -0.2812  0.8666
   45MOL   H18316991   1.495   6.634   5.415  1.0224 -0.2169 -0.1945
   45MOL   H18416992   1.562   6.764   5.504 -0.6368  0.6322 -0.5615
   45MOL   H18516993   1.361   6.897   5.486  1.4687 -0.4685  0.3533
   45MOL   H18616994   1.293   6.787   5.362 -1.1092 -0.6255  2.3856
   45MOL   H18716995   1.567   6.915   5.343 -0.5602  2.1923  0.0995
   45MOL   H18816996   1.472   6.831   5.217  0.5744 -0.3148  0.4800
   45MOL   H18916997   1.385   7.096   5.341  1.1773 -1.8259  1.2792
   45MOL   H19016998   1.496   7.093   5.206 -0.1826 -0.5442 -0.5539
   45MOL   H19116999   1.323   7.041   5.195  1.1357 -1.9152 -0.9597
   45MOL   C19217000   1.427   6.618   5.798 -0.5098 -0.1051 -0.3716
   45MOL   C19317001   1.528   6.719   5.829  0.0387  0.1455 -0.1650
   45MOL   O19417002   1.458   6.840   5.847  0.0834  0.4004  0.1843
   45MOL   C19517003   1.499   6.951   5.768  0.5676  0.8746 -0.4091
   45MOL   C19617004   1.395   7.057   5.785 -0.0421 -0.0705 -0.9273
   45MOL   C19717005   1.257   7.033   5.719 -0.0905  0.0534  0.3606
   45MOL   C19817006   1.178   7.160   5.733 -0.1413 -0.7078 -0.9119
   45MOL   H19917007   1.457   6.529   5.853 -0.7695  0.3721  0.5684
   45MOL   H20017008   1.326   6.646   5.827 -0.9448 -0.8247 -1.1908
   45MOL   H20117009   1.598   6.722   5.745 -0.0253  0.4226 -0.2101
   45MOL   H20217010   1.490   6.907   5.668  1.2144  1.2649 -0.6461
   45MOL   H20317011   1.599   6.992   5.783  0.5954  0.2687  1.1395
   45MOL   H20417012   1.380   7.051   5.893 -0.9456 -2.1423 -1.1407
   45MOL   H20517013   1.432   7.154   5.752 -2.9076  0.2550 -3.4780
   45MOL   H20617014   1.211   6.946   5.766 -2.8348 -0.5529 -3.1916
   45MOL   H20717015   1.261   7.019   5.611 -1.4161  0.0898  0.2910
   45MOL   H20817016   1.153   7.187   5.836 -1.1981 -0.4897 -1.2166
   45MOL   H20917017   1.234   7.245   5.694 -3.1919  0.8797 -1.9447
   45MOL   H21017018   1.087   7.169   5.674 -1.5049 -1.6509  1.0029
   45MOL   C21117019   1.610   6.699   5.961 -0.2844 -0.4442 -0.0398
   45MOL   C21217020   1.761   6.743   5.955  0.1399  0.1595 -0.1059
   45MOL   O21317021   1.794   6.785   6.086 -0.3376 -0.0170  0.1206
   45MOL   C21417022   1.785   6.930   6.109 -0.0375 -0.0452  0.1849
   45MOL   C21517023   1.831   6.949   6.245  0.4153  0.2003  0.0936
   45MOL   C21617024   1.736   6.898   6.355 -0.4296  0.3183 -0.7138
   45MOL   C21717025   1.810   6.906   6.495 -0.1095  0.0672  0.4785
   45MOL   H21817026   1.598   6.595   5.990 -0.1424 -0.3106  0.4985
   45MOL   H21917027   1.558   6.761   6.034 -1.8987 -0.4189 -1.1788
   45MOL   H22017028   1.771   6.826   5.884  0.2393  1.6577  1.6046
   45MOL   H22117029   1.850   6.975   6.034 -0.8209  0.0941 -0.4130
   45MOL   H22217030   1.685   6.962   6.080 -0.1948 -1.3533 -0.8096
   45MOL   H22317031   1.929   6.903   6.260 -0.6750 -1.6093  1.9898
   45MOL   H22417032   1.849   7.054   6.265  0.6566  0.4897 -1.5847
   45MOL   H22517033   1.701   6.795   6.343  0.4968 -0.3810  2.1651
   45MOL   H22617034   1.649   6.963   6.356 -2.1965 -1.9738  0.5247
   45MOL   H22717035   1.889   6.832   6.510 -0.0136  0.3375  1.2988
   45MOL   H22817036   1.734   6.888   6.570 -0.1651  2.5189  1.0396
   45MOL   H22917037   1.857   7.001   6.517  0.0647 -0.1765  1.1585
   45MOL   C23017038   1.866   6.637   5.933  0.0441 -0.3840 -0.2704
   45MOL   C23117039   1.874   6.579   5.797 -0.2933  0.3159 -0.0016
   45MOL   O23217040   1.922   6.679   5.711  0.5068  0.2850  0.2905
   45MOL   C23317041   1.905   6.659   5.572 -0.4577  0.5008  0.5242
   45MOL   C23417042   1.949   6.792   5.514  0.7983  0.9718  0.2250
   45MOL   C23517043   2.103   6.809   5.503  0.1468 -0.1993 -0.4685
   45MOL   C23617044   2.157   6.741   5.376  0.3036 -0.1217 -0.2274
   45MOL   H23717045   1.848   6.562   6.011  2.3906 -0.6101  0.0852
   45MOL   H23817046   1.959   6.689   5.956 -1.5323  1.3073  2.5818
   45MOL   H23917047   1.779   6.556   5.748 -0.3369  1.3617 -0.4191
   45MOL   H24017048   1.951   6.574   5.523  1.7690  2.4572 -0.8749
   45MOL   H24117049   1.797   6.647   5.559 -0.1271 -0.3549 -1.5990
   45MOL   H24217050   1.896   6.818   5.422 -2.7660  0.1715  1.9887
   45MOL   H24317051   1.916   6.867   5.585  0.7121  1.0180  0.1359
   45MOL   H24417052   2.145   6.759   5.591 -1.1990 -0.2994  0.1292
   45MOL   H24517053   2.141   6.909   5.488  0.6146 -0.4716 -1.0992
   45MOL   H24617054   2.151   6.632   5.379 -1.1946 -0.0379 -0.0100
   45MOL   H24717055   2.264   6.761   5.374  0.6172 -1.7335 -4.4913
   45MOL   H24817056   2.117   6.787   5.286  4.4121 -1.3040 -2.7851
   45MOL   C24917057   1.967   6.453   5.795 -0.3817 -0.4285 -0.2567
   45MOL   C25017058   1.890   6.321   5.826 -0.2157  0.0775 -0.8344
   45MOL   O25117059   1.974   6.225   5.885  0.1380 -0.1395  0.0565
   45MOL   C25217060   1.958   6.207   6.028  0.2965  0.2409 -0.6695
   45MOL   C25317061   2.042   6.079   6.054 -0.1350 -0.2889 -0.1539
   45MOL   C25417062   2.196   6.108   6.027  0.7204  0.4647  0.1205
   45MOL   C25517063   2.286   6.005   6.104 -0.1350  0.3581 -0.2589
   45MOL   H25617064   2.051   6.468   5.862 -0.9566 -1.0483  0.6214
   45MOL   H25717065   2.015   6.456   5.697 -1.2510 -0.6475 -0.6940
   45MOL   H25817066   1.807   6.341   5.893  0.0084 -0.3643 -0.4247
   45MOL   H25917067   1.855   6.192   6.062  0.1990  1.6973 -0.2720
   45MOL   H26017068   1.993   6.289   6.091 -1.0478  1.8379 -1.9632
   45MOL   H26117069   2.030   6.031   6.151  0.4848 -0.5581 -0.2045
   45MOL   H26217070   2.003   5.998   5.992  0.9130  0.5900 -2.0415
   45MOL   H26317071   2.220   6.110   5.921  0.8218  0.3437  0.1418
   45MOL   H26417072   2.222   6.210   6.058 -3.6772  2.0084 -0.9300
   45MOL   H26517073   2.283   6.011   6.213 -0.8183  0.3007 -0.2743
   45MOL   H26617074   2.391   6.000   6.076  0.3223 -1.2111  1.5947
   45MOL   H26717075   2.259   5.902   6.084 -1.2981  0.8127 -1.1254
   45MOL   C26817076   1.835   6.255   5.702 -0.0325  0.2943  0.4069
   45MOL   C26917077   1.728   6.152   5.743 -0.2913  0.1143 -0.0469
   45MOL   O27017078   1.613   6.206   5.786 -0.7465  0.2739 -0.1094
   45MOL   C27117079   1.568   6.154   5.908 -0.4397  0.1685  0.4682
   45MOL   C27217080   1.424   6.191   5.946  0.4106 -0.0799 -0.2720
   45MOL   C27317081   1.325   6.153   5.838  0.4783 -0.0010  0.1009
   45MOL   C27417082   1.189   6.221   5.849  0.2423  0.3526 -0.4774
   45MOL   H27517083   1.785   6.324   5.634 -0.9830 -0.7792 -0.0161
   45MOL   H27617084   1.914   6.209   5.643 -0.5033 -0.5011  0.3893
   45MOL   H27717085   1.778   6.092   5.818  0.0043  0.5431  0.0998
   45MOL   H27817086   1.569   6.046   5.902  0.0068  0.1928  0.0699
   45MOL   H27917087   1.629   6.190   5.991 -2.6770  3.7242  0.6829
   45MOL   H28017088   1.392   6.143   6.038 -0.8416  0.7242 -0.2759
   45MOL   H28117089   1.417   6.298   5.965  0.3173 -0.0206 -0.6315
   45MOL   H28217090   1.308   6.046   5.833 -1.3167  0.2705  0.2416
   45MOL   H28317091   1.378   6.177   5.745  0.2468  2.5141  0.5889
   45MOL   H28417092   1.121   6.187   5.771 -0.6562  1.2659 -0.1057
   45MOL   H28517093   1.199   6.329   5.845  2.7171  0.1339 -0.8450
   45MOL   H28617094   1.127   6.192   5.933 -0.7297  0.4145 -1.1691
   45MOL   C28717095   1.686   6.045   5.632 -0.2724 -0.0031 -0.7337
   45MOL   C28817096   1.784   5.926   5.607 -0.4158  0.2034  0.3568
   45MOL   O28917097   1.749   5.877   5.476  0.6675 -0.0033 -0.2935
   45MOL   C29017098   1.781   5.957   5.366  0.2886  0.0401  0.1128
   45MOL   C29117099   1.796   5.864   5.243 -0.0835 -0.2115  0.3174
   45MOL   C29217100   1.837   5.955   5.124 -0.3682  0.4557  0.3409
   45MOL   C29317101   1.717   6.000   5.041 -0.2060  0.1247 -0.1090
   45MOL   H29417102   1.670   6.105   5.542 -0.5786 -2.6503 -2.5018
   45MOL   H29517103   1.595   5.990   5.654 -0.0955  0.3731  0.9799
   45MOL   H29617104   1.884   5.968   5.600 -0.7942  1.1193  0.2731
   45MOL   H29717105   1.698   6.028   5.360  0.3913 -0.0171 -2.2017
   45MOL   H29817106   1.873   6.012   5.382 -0.3314  1.3517 -0.7694
   45MOL   H29917107   1.703   5.815   5.215 -0.9992  1.1237  0.9663
   45MOL   H30017108   1.877   5.795   5.263  0.9433  1.0651  0.6711
   45MOL   H30117109   1.891   5.884   5.062  0.8648  0.1602  1.7188
   45MOL   H30217110   1.894   6.038   5.166  3.4100  0.8474 -5.0838
   45MOL   H30317111   1.660   6.060   5.112  0.2950 -0.0700  0.4598
   45MOL   H30417112   1.743   6.066   4.958  0.9633  1.5775  1.3770
   45MOL   H30517113   1.663   5.914   5.001  0.6375 -0.5672  0.2302
   45MOL   C30617114   1.779   5.817   5.719 -0.0503 -1.1023  0.1512
   45MOL   C30717115   1.897   5.724   5.704 -0.3070 -0.1877 -0.0879
   45MOL   O30817116   1.875   5.622   5.804  0.5474 -0.1787  0.1553
   45MOL   C30917117   1.805   5.509   5.755 -0.6737  0.2375  0.2448
   45MOL   C31017118   1.828   5.397   5.851 -0.6340 -0.0494 -0.4634
   45MOL   C31117119   1.750   5.273   5.826 -0.5838 -0.1616  0.0674
   45MOL   C31217120   1.802   5.154   5.898 -0.4270 -0.6418  1.0405
   45MOL   H31317121   1.791   5.869   5.814 -1.1152  0.0923 -0.3505
   45MOL   H31417122   1.683   5.766   5.723 -1.4878  1.1762 -2.6840
   45MOL   H31517123   1.903   5.680   5.604  0.9868 -0.8252  0.2617
   45MOL   H31617124   1.850   5.477   5.661  1.3251 -0.6867  1.4538
   45MOL   H31717125   1.698   5.527   5.747 -0.4823  0.9460 -0.7542
   45MOL   H31817126   1.779   5.422   5.946  1.8596  0.4105  0.7476
   45MOL   H31917127   1.936   5.388   5.864 -0.7942  1.0017  1.9756
   45MOL   H32017128   1.647   5.296   5.852 -0.3325  1.3889 -0.2657
   45MOL   H32117129   1.755   5.254   5.719  0.5412  0.6769 -0.0331
   45MOL   H32217130   1.805   5.172   6.006  1.9697  2.1373  0.5574
   45MOL   H32317131   1.901   5.121   5.868 -0.5432  1.4224 -1.7728
   45MOL   H32417132   1.732   5.070   5.898 -0.0554 -1.0207 -2.3560
   45MOL   C32517133   2.035   5.778   5.748 -0.1547  0.0465 -0.0005
   45MOL   C32617134   2.156   5.685   5.714  0.7063 -1.0108 -0.1346
   45MOL   O32717135   2.165   5.690   5.579  0.0329  0.7172 -0.0542
   45MOL   C32817136   2.162   5.566   5.498 -0.3352  0.0642 -0.2195
   45MOL   C32917137   2.075   5.594   5.380 -0.5046 -0.5034 -0.0891
   45MOL   C33017138   2.046   5.473   5.294 -0.0037  0.1502 -0.3582
   45MOL   C33117139   1.946   5.502   5.191 -0.1091 -0.1768  0.2704
   45MOL   H33217140   2.029   5.805   5.853  0.5074  1.0370 -0.2099
   45MOL   H33317141   2.067   5.872   5.703 -1.1278 -0.0708 -0.9685
   45MOL   H33417142   2.119   5.589   5.750  1.2027 -0.5504  1.6495
   45MOL   H33517143   2.115   5.490   5.562 -0.9364  1.9593  1.6677
   45MOL   H33617144   2.252   5.515   5.464  0.5377  1.5529 -0.1697
   45MOL   H33717145   1.984   5.635   5.424  0.7502  1.6118  0.6522
   45MOL   H33817146   2.126   5.667   5.317  2.0906  0.0484  2.5038
   45MOL   H33917147   2.010   5.397   5.363  0.9834 -0.1068 -0.1242
   45MOL   H34017148   2.141   5.438   5.254  0.8859  1.8090  0.2217
   45MOL   H34117149   1.853   5.543   5.230  0.6278  1.6973  0.0883
   45MOL   H34217150   1.927   5.414   5.130  0.3133  0.3650 -0.6600
   45MOL   H34317151   1.983   5.567   5.112 -0.3675  0.2841  0.5273
   45MOL   C34417152   2.284   5.729   5.784 -0.7651 -0.2611 -0.0587
   45MOL   C34517153   2.409   5.641   5.744  0.0086 -0.4655 -0.5121
   45MOL   O34617154   2.375   5.506   5.743  0.0115 -0.0530  0.2488
   45MOL   C34717155   2.450   5.421   5.657  0.3272 -0.1931  0.7546
   45MOL   C34817156   2.376   5.284   5.653 -0.1181  0.5481 -0.7674
   45MOL   C34917157   2.410   5.207   5.526 -0.3237  0.1148  0.1756
   45MOL   C35017158   2.365   5.266   5.392 -0.0251 -0.4275  0.1346
   45MOL   H35117159   2.302   5.835   5.767  1.1871 -0.5898 -0.1712
   45MOL   H35217160   2.273   5.723   5.893  3.6297 -1.4275  0.4302
   45MOL   H35317161   2.422   5.673   5.641  0.6029 -1.1571 -0.6583
   45MOL   H35417162   2.550   5.397   5.694 -0.1984 -0.4064  2.0672
   45MOL   H35517163   2.458   5.453   5.553 -0.0633 -1.9598  0.1607
   45MOL   H35617164   2.273   5.319   5.644  0.3365  2.8621  2.2040
   45MOL   H35717165   2.370   5.219   5.740 -1.6314  0.9679 -0.5424
   45MOL   H35817166   2.513   5.171   5.522  0.0505  0.8483  2.7405
   45MOL   H35917167   2.367   5.107   5.535 -1.1762  0.3019 -1.5564
   45MOL   H36017168   2.259   5.281   5.411 -0.6676 -0.4284 -3.0988
   45MOL   H36117169   2.381   5.190   5.315  2.6315  0.7927 -0.5803
   45MOL   H36217170   2.407   5.359   5.353 -2.8831 -0.0239 -2.1795
   45MOL   C36317171   2.540   5.655   5.831  0.1311  0.7876 -0.0949
   45MOL   C36417172   2.611   5.789   5.844 -0.2429  0.1748 -0.5858
   45MOL   O36517173   2.720   5.789   5.939 -0.9135  0.3165  0.4169
   45MOL   C36617174   2.809   5.911   5.917  0.1880 -0.3861 -0.4205
   45MOL   C36717175   2.917   5.909   6.024 -0.2960 -0.1749 -0.1216
   45MOL   C36817176   2.868   5.940   6.169  0.0001  0.1330 -0.0541
   45MOL   C36917177   2.988   5.909   6.270  0.3891 -0.0933  0.5809
   45MOL   H37017178   2.613   5.582   5.795  0.6228  0.7836  0.9245
   45MOL   H37117179   2.522   5.629   5.935  2.3488  0.5295  0.2384
   45MOL   H37217180   2.537   5.863   5.874 -1.0086 -1.1866  0.9870
   45MOL   H37317181   2.748   5.999   5.934  2.3591  1.0856  0.0422
   45MOL   H37417182   2.850   5.917   5.816  0.6047 -0.1038 -0.2364
   45MOL   H37517183   2.996   5.978   5.994  1.2958 -1.9429 -0.0891
   45MOL   H37617184   2.967   5.812   6.026  1.6850  0.8380  1.3617
   45MOL   H37717185   2.780   5.879   6.187 -1.4079  1.4227 -2.3210
   45MOL   H37817186   2.831   6.041   6.183  1.2184  0.8537 -1.8281
   45MOL   H37917187   3.076   5.969   6.244 -0.6346  0.8383 -0.8115
   45MOL   H38017188   2.957   5.941   6.370 -2.6653 -2.1579  0.3460
   45MOL   H38117189   3.022   5.806   6.280  3.5442  0.6583 -1.7131
   45MOL   H38217190   2.642   5.816   5.743 -0.0265 -1.4541 -0.9615
   46MOL     C117191   3.980   0.890   5.576  0.9821  0.2558  0.3124
   46MOL     C217192   3.974   0.782   5.468 -0.2889  0.5329 -0.3136
   46MOL     O317193   3.887   0.825   5.358 -0.1810 -0.2838  0.2463
   46MOL     C417194   3.774   0.742   5.335 -0.0194  0.2456  0.3860
   46MOL     C517195   3.711   0.749   5.194  0.0788 -0.6597  0.2336
   46MOL     C617196   3.630   0.622   5.154  0.2166 -0.1049 -0.3050
   46MOL     C717197   3.564   0.633   5.025  0.4336  0.1887  0.4687
   46MOL     H817198   3.880   0.923   5.605  0.6567  1.1349 -1.6851
   46MOL     H917199   4.028   0.857   5.668  0.1386  0.2051  0.7436
   46MOL    H1017200   3.949   0.681   5.502  0.4171  0.1241 -1.0119
   46MOL    H1117201   3.809   0.640   5.341  2.0490  1.0127  1.9363
   46MOL    H1217202   3.714   0.754   5.425  1.2897  1.8155  1.0785
   46MOL    H1317203   3.786   0.772   5.118  0.2811 -0.9145  0.3545
   46MOL    H1417204   3.654   0.842   5.194  0.7357 -0.2518 -0.6148
   46MOL    H1517205   3.549   0.626   5.226  0.4664  2.7417 -0.1429
   46MOL    H1617206   3.690   0.534   5.180 -0.1361  0.0539  1.0956
   46MOL    H1717207   3.496   0.718   5.018 -0.8230 -0.7983  0.2782
   46MOL    H1817208   3.512   0.542   4.993 -0.1732  1.0805 -1.1078
   46MOL    H1917209   3.650   0.656   4.963  0.5853  0.2369  0.7003
   46MOL    H2017210   4.027   0.982   5.539 -0.7521  0.3775 -1.6882
   46MOL    C2117211   4.113   0.772   5.413  0.6003  0.1531  0.4916
   46MOL    C2217212   4.144   0.663   5.317  0.6924  0.9177 -0.3247
   46MOL    O2317213   4.285   0.677   5.270  0.5928 -0.2819  0.5845
   46MOL    C2417214   4.309   0.776   5.175  0.4944  0.6866 -0.3571
   46MOL    C2517215   4.462   0.765   5.151  0.4670 -0.4074  0.1357
   46MOL    C2617216   4.509   0.647   5.065 -0.5321  0.0295 -0.3680
   46MOL    C2717217   4.659   0.605   5.076 -0.5928 -0.4044 -0.2261
   46MOL    H2817218   4.189   0.779   5.491  0.9828 -0.3242  0.1592
   46MOL    H2917219   4.128   0.857   5.347  1.2611 -1.2325 -1.1605
   46MOL    H3017220   4.074   0.658   5.234 -1.4087  3.3745  1.2183
   46MOL    H3117221   4.296   0.875   5.217  1.8187  0.8749 -0.3438
   46MOL    H3217222   4.257   0.758   5.082 -1.5156 -0.6488  0.9833
   46MOL    H3317223   4.481   0.861   5.102  1.3309  0.2843  1.7677
   46MOL    H3417224   4.510   0.770   5.249 -0.0026  1.1817  0.3150
   46MOL    H3517225   4.459   0.555   5.096 -1.1766  1.0637  1.7093
   46MOL    H3617226   4.481   0.661   4.960 -0.8828 -0.6291 -0.3706
   46MOL    H3717227   4.721   0.689   5.048 -0.1339  0.0254  2.0156
   46MOL    H3817228   4.690   0.597   5.180  2.2723 -1.2086 -1.1181
   46MOL    H3917229   4.676   0.518   5.012  1.2614  0.0038 -0.2899
   46MOL    C4017230   4.143   0.519   5.383 -0.1284 -1.0230 -0.4452
   46MOL    C4117231   4.156   0.404   5.287 -0.2401 -0.4061 -0.0219
   46MOL    O4217232   4.031   0.389   5.221 -0.1308  0.0952 -0.0326
   46MOL    C4317233   4.037   0.328   5.092  0.2095 -0.1334 -0.0465
   46MOL    C4417234   3.890   0.318   5.051  0.0672 -0.4453 -0.7818
   46MOL    C4517235   3.875   0.267   4.910 -0.3127  0.3936 -0.0386
   46MOL    C4617236   3.723   0.256   4.878 -0.7702 -0.2664  0.0066
   46MOL    H4717237   4.046   0.508   5.431  1.0865 -0.2979  2.2411
   46MOL    H4817238   4.220   0.523   5.460 -1.2472  0.5163  0.6285
   46MOL    H4917239   4.238   0.422   5.217 -1.0284 -0.4821 -0.9809
   46MOL    H5017240   4.086   0.231   5.092 -0.0361 -0.2636  0.5753
   46MOL    H5117241   4.091   0.390   5.020  1.4729 -0.5684  0.5020
   46MOL    H5217242   3.847   0.418   5.057 -0.0319 -0.3689 -2.5790
   46MOL    H5317243   3.831   0.264   5.125  3.3282 -0.5317  1.8533
   46MOL    H5417244   3.920   0.168   4.903 -1.4913 -0.0195 -2.2694
   46MOL    H5517245   3.932   0.332   4.843  1.8598  0.2615  1.5962
   46MOL    H5617246   3.668   0.350   4.883 -0.0811  0.0710  1.7417
   46MOL    H5717247   3.725   0.240   4.770 -0.8918  0.1757 -0.0619
   46MOL    H5817248   3.673   0.169   4.923 -0.3993  0.7400  2.4674
   46MOL    C5917249   4.177   0.270   5.358  0.1798  0.6437  0.4707
   46MOL    C6017250   4.328   0.228   5.382  0.0238 -0.0824  0.2928
   46MOL    O6117251   4.381   0.317   5.476 -0.3183 -0.3426  0.0238
   46MOL    C6217252   4.476   0.413   5.429  0.5885  0.5126  0.1809
   46MOL    C6317253   4.523   0.499   5.546  0.7724  0.0838 -0.3881
   46MOL    C6417254   4.643   0.589   5.495  0.3105 -0.0377  0.7359
   46MOL    C6517255   4.636   0.729   5.555 -0.0105 -0.0575  0.4133
   46MOL    H6617256   4.140   0.272   5.461 -1.1734  0.8604 -0.0121
   46MOL    H6717257   4.132   0.192   5.297  0.5847 -0.3914  1.4656
   46MOL    H6817258   4.378   0.225   5.285 -1.3932 -0.0457 -0.4470
   46MOL    H6917259   4.438   0.472   5.347  0.2985  1.6050  1.0902
   46MOL    H7017260   4.567   0.365   5.391  0.4991  0.9765 -0.6001
   46MOL    H7117261   4.446   0.560   5.593  0.1941  0.1632 -1.4183
   46MOL    H7217262   4.559   0.422   5.614 -0.3406  1.2879  1.6090
   46MOL    H7317263   4.745   0.551   5.489  0.3733  0.4243 -1.5148
   46MOL    H7417264   4.620   0.605   5.390 -0.8148 -0.3551  0.9193
   46MOL    H7517265   4.700   0.796   5.497  0.8654 -1.4198 -0.2359
   46MOL    H7617266   4.538   0.776   5.559  0.0438 -0.1154  2.7904
   46MOL    H7717267   4.671   0.728   5.658  0.9018 -0.4541  0.1143
   46MOL    C7817268   4.335   0.081   5.439 -0.4698  0.1877 -0.1348
   46MOL    C7917269   4.475   0.035   5.488 -0.6939 -0.3511  0.3782
   46MOL    O8017270   4.566   0.036   5.378  0.5818  0.5191 -0.1310
   46MOL    C8117271   4.698   0.071   5.414  0.0230 -0.6386  0.3307
   46MOL    C8217272   4.795   0.076   5.291 -0.1634 -0.7564 -0.1396
   46MOL    C8317273   4.780   0.196   5.201  0.1692  0.2604 -0.1442
   46MOL    C8417274   4.865   0.176   5.072  0.2281  0.8807 -0.2607
   46MOL    H8517275   4.281   0.011   5.376 -2.8058  2.1408 -0.3456
   46MOL    H8617276   4.274   0.085   5.529 -1.4772  0.4297 -0.8294
   46MOL    H8717277   4.510   0.111   5.559 -0.9575  2.6805 -2.6384
   46MOL    H8817278   4.735   7.795   5.482 -0.6368 -1.1531  0.1043
   46MOL    H8917279   4.705   0.165   5.469  2.2568  0.4702 -1.7728
   46MOL    H9017280   4.899   0.061   5.319  0.2245 -0.4948 -1.4211
   46MOL    H9117281   4.765   7.791   5.232  0.2711 -1.6200  0.8719
   46MOL    H9217282   4.786   0.294   5.249 -1.4927 -0.0206  0.6665
   46MOL    H9317283   4.677   0.199   5.167  0.0326 -0.1761  0.2379
   46MOL    H9417284   4.968   0.155   5.100 -0.3543 -0.3970  0.9629
   46MOL    H9517285   4.835   0.087   5.016 -2.9385  0.8373  1.3714
   46MOL    H9617286   4.859   0.267   5.012  0.8676  2.2425  1.6976
   46MOL    C9717287   4.487   7.689   5.541  0.4668 -0.3918  0.4056
   46MOL    C9817288   4.409   7.642   5.664 -1.1905 -0.4360 -0.6049
   46MOL    O9917289   4.274   7.672   5.637  0.1687  0.1730  0.0880
   46MOL   C10017290   4.191   7.674   5.752  0.6456  0.3524 -0.6579
   46MOL   C10117291   4.054   7.730   5.713 -0.0434  0.7610  0.0939
   46MOL   C10217292   3.959   7.791   5.814 -0.9221 -0.1380 -0.4429
   46MOL   C10317293   3.972   7.736   5.954  0.4289  0.1196 -0.1691
   46MOL   H10417294   4.590   7.654   5.546  0.5423 -0.6941 -2.6462
   46MOL   H10517295   4.443   7.632   5.459 -1.5640  1.2352  0.3145
   46MOL   H10617296   4.441   7.708   5.745 -0.1296 -1.3350 -0.2802
   46MOL   H10717297   4.232   7.750   5.819  1.4899 -1.7855  1.2861
   46MOL   H10817298   4.181   7.574   5.793 -2.7039  0.6046 -0.7318
   46MOL   H10917299   4.004   7.643   5.670  3.9416 -1.9637  0.6799
   46MOL   H11017300   4.066   0.003   5.634 -1.5312  1.5128  0.5638
   46MOL   H11117301   3.854   7.800   5.783 -0.2554  1.8009 -2.2408
   46MOL   H11217302   3.983   0.096   5.811  0.7050 -0.5005 -0.5637
   46MOL   H11317303   3.938   7.634   5.970 -3.6793  1.2400 -1.3705
   46MOL   H11417304   4.076   7.747   5.987  1.3696  1.1714 -3.3286
   46MOL   H11517305   3.909   7.796   6.019 -1.4624 -1.5820 -0.3766
   46MOL   C11617306   4.424   7.494   5.693  0.4540 -0.4563 -0.5269
   46MOL   C11717307   4.542   7.454   5.785 -0.1998  0.1464 -0.7931
   46MOL   O11817308   4.522   7.531   5.905 -0.4095  0.4705 -0.3086
   46MOL   C11917309   4.642   7.592   5.964  0.4971 -0.5249 -0.6126
   46MOL   C12017310   4.588   7.664   6.090  0.1462  0.7355  0.2676
   46MOL   C12117311   4.477   7.777   6.071 -0.2424  0.7398  0.3171
   46MOL   C12217312   4.408   0.036   6.191  0.0274 -0.3211 -0.4844
   46MOL   H12317313   4.334   7.448   5.734  1.6321 -2.1714  0.1738
   46MOL   H12417314   4.439   7.438   5.600 -1.7177  0.0751 -1.2340
   46MOL   H12517315   4.638   7.485   5.744 -0.0614  0.8045  0.0231
   46MOL   H12617316   4.690   7.657   5.890  0.7432 -1.1526 -1.0120
   46MOL   H12717317   4.700   7.504   5.993  0.2638 -0.3899  0.2837
   46MOL   H12817318   4.674   7.705   6.142  0.5658  1.2797 -0.8648
   46MOL   H12917319   4.547   7.582   6.150  3.6468 -0.3029  1.3427
   46MOL   H13017320   4.520   0.058   6.014 -0.1009  1.4611  1.4556
   46MOL   H13117321   4.396   7.732   6.013 -1.1640 -0.6480  2.5968
   46MOL   H13217322   4.368   7.756   6.252  4.2711 -2.8122 -0.8415
   46MOL   H13317323   4.329   0.109   6.173 -0.3944 -0.7146 -0.2676
   46MOL   H13417324   4.465   0.081   6.273 -3.1465 -1.6742  2.6116
   46MOL   C13517325   4.547   7.296   5.810 -0.4523  0.0105  0.2835
   46MOL   C13617326   4.589   7.215   5.684 -0.3936 -0.3065 -0.1801
   46MOL   O13717327   4.710   7.258   5.628  0.5907 -0.1743  0.5654
   46MOL   C13817328   4.697   7.309   5.496 -0.1646 -0.2919  0.1605
   46MOL   C13917329   4.833   7.374   5.437  0.1379  0.1447  0.3275
   46MOL   C14017330   4.880   7.503   5.513  0.2009 -0.3277  0.2572
   46MOL   C14117331   5.011   7.554   5.446  0.2061 -0.5188 -0.1922
   46MOL   H14217332   4.452   7.259   5.850 -0.9908  0.9775 -0.0792
   46MOL   H14317333   4.624   7.273   5.883 -1.2278 -2.8592  0.2462
   46MOL   H14417334   4.506   7.223   5.614 -0.9949 -0.7595  0.4721
   46MOL   H14517335   4.624   7.390   5.487 -0.7133 -1.0439 -2.7458
   46MOL   H14617336   4.657   7.229   5.434  0.3778 -0.4080 -0.0357
   46MOL   H14717337   4.815   7.391   5.331 -1.4527  1.8010  0.8363
   46MOL   H14817338   4.916   7.303   5.437  0.3598  0.4007  1.0460
   46MOL   H14917339   4.806   7.583   5.511  0.0771 -0.4497 -0.0625
   46MOL   H15017340   4.919   7.487   5.614  0.4006  3.8563  0.9271
   46MOL   H15117341   5.063   7.639   5.492  2.7548 -3.0986  1.9209
   46MOL   H15217342   5.097   7.487   5.449  0.1174 -0.6420 -0.4173
   46MOL   H15317343   4.993   7.582   5.342  0.4990  1.6596  0.3204
   46MOL   C15417344   4.623   7.063   5.707 -0.0580  0.5403 -0.0174
   46MOL   C15517345   4.507   6.979   5.755  0.2199  0.6949 -0.1264
   46MOL   O15617346   4.571   6.859   5.797 -0.2621  0.1247  0.1281
   46MOL   C15717347   4.537   6.798   5.924 -0.8323 -0.3713  0.1233
   46MOL   C15817348   4.654   6.714   5.969 -0.9850 -0.0034  0.1427
   46MOL   C15917349   4.765   6.803   6.027 -0.7092  0.5332 -0.8236
   46MOL   C16017350   4.896   6.714   6.044 -0.3288  0.7695  0.4860
   46MOL   H16117351   4.701   7.051   5.782  1.5509 -0.5824 -1.8147
   46MOL   H16217352   4.666   7.027   5.613 -1.4681  0.3075 -0.5822
   46MOL   H16317353   4.453   7.029   5.835 -2.1456 -1.5817 -0.2687
   46MOL   H16417354   4.521   6.869   6.005  0.6712 -1.1108  1.0971
   46MOL   H16517355   4.445   6.741   5.919 -1.4887  0.6565  0.3164
   46MOL   H16617356   4.700   6.670   5.881 -0.9836 -2.9498  1.5572
   46MOL   H16717357   4.633   6.627   6.032 -2.2567 -0.9181 -1.5164
   46MOL   H16817358   4.778   6.883   5.955 -0.0629  0.1840 -1.1034
   46MOL   H16917359   4.742   6.850   6.123 -1.6447  1.5543 -1.5429
   46MOL   H17017360   4.988   6.756   6.085 -0.5622  1.2528  0.5189
   46MOL   H17117361   4.873   6.632   6.111 -0.6250  1.6537  1.4688
   46MOL   H17217362   4.916   6.670   5.946  1.8599 -0.2976  1.3742
   46MOL   C17317363   4.410   6.942   5.645  0.2557 -0.3805  0.1340
   46MOL   C17417364   4.300   6.844   5.682 -0.4777 -0.3991 -0.0115
   46MOL   O17517365   4.231   6.885   5.801  0.3346 -0.0463  0.0082
   46MOL   C17617366   4.165   6.782   5.866  0.5681 -0.1939 -0.2933
   46MOL   C17717367   4.096   6.851   5.989 -0.4728  0.5054  0.4634
   46MOL   C17817368   4.184   6.934   6.084 -1.0885  0.2849 -0.1507
   46MOL   C17917369   4.099   6.981   6.201  0.5341  0.4529  0.2395
   46MOL   H18017370   4.470   6.911   5.558  2.9960  0.8075  1.5329
   46MOL   H18117371   4.363   7.036   5.616 -0.2141 -0.7860 -0.4455
   46MOL   H18217372   4.358   6.755   5.705  1.4750  1.3462  2.0120
   46MOL   H18317373   4.235   6.703   5.894  1.1760  0.3900 -0.1639
   46MOL   H18417374   4.088   6.724   5.815 -0.6815  1.5130 -0.3804
   46MOL   H18517375   4.036   6.783   6.049 -1.9825  1.6288  0.2545
   46MOL   H18617376   4.027   6.918   5.938 -0.3642 -1.1543 -1.9409
   46MOL   H18717377   4.271   6.877   6.118 -0.5395  1.0732 -0.2112
   46MOL   H18817378   4.229   7.015   6.026 -1.3420 -0.0622 -0.8404
   46MOL   H18917379   4.014   7.039   6.167 -1.6610 -2.8555 -0.1463
   46MOL   H19017380   4.069   6.901   6.268 -1.0625  0.1341 -0.8305
   46MOL   H19117381   4.153   7.047   6.269  2.0796 -1.3058  0.7898
   46MOL   C19217382   4.201   6.836   5.567  0.1513  0.9032  0.9266
   46MOL   C19317383   4.271   6.776   5.434  0.1200 -0.3399 -0.0385
   46MOL   O19417384   4.313   6.648   5.472 -0.4879  0.2590  0.0087
   46MOL   C19517385   4.447   6.612   5.457 -0.6394  0.6116 -0.1424
   46MOL   C19617386   4.457   6.463   5.424  0.0382 -0.6931 -0.3419
   46MOL   C19717387   4.597   6.410   5.415  0.0781 -0.0961 -0.2021
   46MOL   C19817388   4.690   6.442   5.532  0.0777 -0.0789 -0.1986
   46MOL   H19917389   4.152   6.933   5.565 -0.2427  0.7037  0.6850
   46MOL   H20017390   4.118   6.767   5.587  0.4795  0.3256  0.3231
   46MOL   H20117391   4.352   6.834   5.389  1.2499 -1.0229  1.0624
   46MOL   H20217392   4.506   6.633   5.546 -1.1765  2.5714 -0.2272
   46MOL   H20317393   4.494   6.662   5.372  0.0809 -0.3436 -0.3183
   46MOL   H20417394   4.407   6.391   5.489  0.2198 -0.3780  0.1476
   46MOL   H20517395   4.405   6.448   5.329  0.4987  0.2393 -0.7481
   46MOL   H20617396   4.639   6.458   5.327  1.7463 -0.6680  0.2471
   46MOL   H20717397   4.602   6.302   5.398  0.0642  0.1791 -2.0322
   46MOL   H20817398   4.665   6.404   5.631  1.9737  1.6023  0.9773
   46MOL   H20917399   4.788   6.417   5.491 -0.2273  0.2686 -1.1645
   46MOL   H21017400   4.706   6.549   5.548 -1.0955  0.4668 -2.4995
   46MOL   C21117401   4.166   6.761   5.320  0.0219  0.2233 -0.1301
   46MOL   C21217402   4.174   6.880   5.223 -0.4059 -0.2166 -0.6311
   46MOL   O21317403   4.298   6.881   5.146 -0.1075 -0.8536 -0.5297
   46MOL   C21417404   4.349   7.005   5.105 -0.0556  0.6709 -0.0202
   46MOL   C21517405   4.439   7.063   5.218  0.4330  0.2446  0.0590
   46MOL   C21617406   4.503   7.195   5.183 -0.3464 -0.2876 -0.4253
   46MOL   C21717407   4.420   7.318   5.222  0.6775  0.0791 -0.3847
   46MOL   H21817408   4.070   6.772   5.370  0.1806 -0.3562  0.2978
   46MOL   H21917409   4.163   6.666   5.268 -0.4735 -1.1931  2.4121
   46MOL   H22017410   4.166   6.970   5.284  0.8894  0.3296 -1.2300
   46MOL   H22117411   4.418   6.981   5.025  1.9441  1.3521  1.4637
   46MOL   H22217412   4.283   7.075   5.055  0.8899  0.8582 -1.0145
   46MOL   H22317413   4.379   7.075   5.308 -1.9834 -2.1549 -1.1316
   46MOL   H22417414   4.511   6.984   5.241 -0.2765 -0.5782 -0.4836
   46MOL   H22517415   4.525   7.204   5.076  0.0548  1.7399 -0.1895
   46MOL   H22617416   4.599   7.213   5.232 -0.0233  0.4457 -1.2967
   46MOL   H22717417   4.376   7.310   5.322  0.2830 -1.9942 -0.7055
   46MOL   H22817418   4.336   7.331   5.154 -0.8903 -3.2741  0.8110
   46MOL   H22917419   4.484   7.406   5.222 -0.5086  1.0159 -3.0065
   46MOL   C23017420   4.066   6.892   5.114 -0.2599  0.5559  0.5091
   46MOL   C23117421   3.945   6.971   5.160 -0.2470  0.3766  0.0778
   46MOL   O23217422   3.895   6.925   5.282 -0.0368 -0.4116  0.8546
   46MOL   C23317423   3.757   6.965   5.311  0.3191 -0.3419  0.2075
   46MOL   C23417424   3.711   6.887   5.427 -0.2683  0.3857 -0.4797
   46MOL   C23517425   3.775   6.940   5.556 -0.2441 -0.1070 -0.1179
   46MOL   C23617426   3.781   6.839   5.670  0.0412 -0.0961 -0.3400
   46MOL   H23717427   4.023   6.799   5.078 -0.2574  1.1436 -1.0200
   46MOL   H23817428   4.111   6.946   5.031  0.1079  0.3070  0.5462
   46MOL   H23917429   3.876   6.955   5.077  0.6788 -2.3124 -0.2224
   46MOL   H24017430   3.740   7.072   5.327 -1.0963 -0.5043 -0.1106
   46MOL   H24117431   3.695   6.936   5.226  0.5060  0.4181 -0.1995
   46MOL   H24217432   3.602   6.885   5.433 -0.4046  0.8431 -2.2704
   46MOL   H24317433   3.723   6.779   5.416 -2.4378  0.0712  0.0245
   46MOL   H24417434   3.733   7.034   5.590 -1.8133 -1.6985  2.4967
   46MOL   H24517435   3.879   6.966   5.538 -0.6441  0.7972 -1.2315
   46MOL   H24617436   3.811   6.888   5.763 -0.2226 -0.5642 -0.0105
   46MOL   H24717437   3.854   6.761   5.650 -1.1961 -1.4179  0.2415
   46MOL   H24817438   3.683   6.799   5.695 -0.4175  1.0611 -0.2455
   46MOL   C24917439   3.963   7.127   5.155  0.2205 -0.5865  0.2762
   46MOL   C25017440   3.929   7.191   5.015  0.0338  0.7962  0.1011
   46MOL   O25117441   3.981   7.321   4.997  0.1207 -0.6229  0.3750
   46MOL   C25217442   4.076   7.344   4.890 -0.5395  0.1278 -0.5382
   46MOL   C25317443   4.071   7.493   4.874  0.2054  0.1656  0.0683
   46MOL   C25417444   3.934   7.551   4.854  0.2945 -0.6084 -0.1170
   46MOL   C25517445   3.945   7.693   4.799  0.3779  0.3035 -0.1254
   46MOL   H25617446   4.060   7.157   5.194  0.3186 -1.4438  0.7048
   46MOL   H25717447   3.902   7.173   5.232  0.2121 -0.4468  0.1838
   46MOL   H25817448   3.972   7.123   4.942 -0.7793  0.1590  0.2061
   46MOL   H25917449   4.046   7.309   4.791  1.0476 -0.0351 -0.9761
   46MOL   H26017450   4.175   7.301   4.910  0.2037  1.3048 -1.5895
   46MOL   H26117451   4.119   7.528   4.966 -0.5249 -1.5711  1.1350
   46MOL   H26217452   4.131   7.519   4.786 -0.4854  2.0768  0.1383
   46MOL   H26317453   3.864   7.485   4.802 -1.2859  1.6135 -0.8759
   46MOL   H26417454   3.892   7.565   4.954  1.3254  0.8967  0.1232
   46MOL   H26517455   4.007   7.764   4.855  0.4167  0.4376 -0.3366
   46MOL   H26617456   3.850   7.747   4.791  0.2030 -0.2908 -2.4802
   46MOL   H26717457   3.990   7.689   4.700  1.2659 -0.3674  0.3053
   46MOL   C26817458   3.781   7.200   4.989  0.1705 -0.1104 -0.7223
   46MOL   C26917459   3.740   7.206   4.842 -0.1715 -0.1548  0.1890
   46MOL   O27017460   3.734   7.078   4.788 -0.1684 -0.1421  0.0998
   46MOL   C27117461   3.754   7.052   4.658 -0.0127  0.6876 -0.3381
   46MOL   C27217462   3.811   6.910   4.632 -0.2623 -0.7269 -0.1025
   46MOL   C27317463   3.933   6.894   4.716 -0.1859 -0.5617 -0.2335
   46MOL   C27417464   4.004   6.765   4.692  0.2769 -0.6221  0.7018
   46MOL   H27517465   3.741   7.107   5.029 -0.9231  0.7572  0.2134
   46MOL   H27617466   3.736   7.287   5.036 -0.7209  1.3025 -4.0216
   46MOL   H27717467   3.810   7.271   4.789 -1.4340 -0.4142 -1.8702
   46MOL   H27817468   3.660   7.071   4.606 -0.1592 -3.1803 -1.6401
   46MOL   H27917469   3.817   7.129   4.614  0.6937  0.3921  0.1553
   46MOL   H28017470   3.730   6.836   4.633 -1.3813  0.3764 -2.7067
   46MOL   H28117471   3.852   6.910   4.531  0.2586  0.5551  0.0953
   46MOL   H28217472   3.914   6.901   4.823  2.9164  0.3249  0.3208
   46MOL   H28317473   4.001   6.973   4.686 -0.5371  0.1604  0.8508
   46MOL   H28417474   4.091   6.750   4.756  0.5717  2.1025  0.9863
   46MOL   H28517475   4.032   6.746   4.589  1.4593  1.0297  0.6969
   46MOL   H28617476   3.938   6.682   4.718  0.5684 -0.9938  0.2716
   46MOL   C28717477   3.605   7.280   4.837  0.1285  0.1755 -0.1316
   46MOL   C28817478   3.566   7.327   4.690 -0.1855  0.0103  0.7244
   46MOL   O28917479   3.676   7.406   4.626 -0.0605  0.4481  0.0587
   46MOL   C29017480   3.678   7.442   4.485 -0.3073 -0.2361 -0.2089
   46MOL   C29117481   3.829   7.496   4.473  0.2738 -0.0602 -0.5141
   46MOL   C29217482   3.933   7.383   4.450  0.7401  0.0758  0.2645
   46MOL   C29317483   4.067   7.434   4.398 -0.1364  0.4446 -0.1963
   46MOL   H29417484   3.609   7.367   4.904  0.9569  0.5799 -0.6964
   46MOL   H29517485   3.522   7.224   4.880  0.1748 -1.4001 -2.0314
   46MOL   H29617486   3.550   7.236   4.633 -0.1569  0.7639 -0.5132
   46MOL   H29717487   3.657   7.364   4.412  0.8286  0.1260 -0.9479
   46MOL   H29817488   3.604   7.521   4.472 -0.4784 -0.2238  0.7696
   46MOL   H29917489   3.866   7.559   4.554  0.4463  0.4165 -0.9682
   46MOL   H30017490   3.842   7.556   4.383 -1.1524  0.1841 -0.5646
   46MOL   H30117491   3.892   7.317   4.373 -0.0085  1.0550 -0.1840
   46MOL   H30217492   3.942   7.324   4.542  0.8556  0.6954  0.6502
   46MOL   H30317493   4.065   7.501   4.312  0.0035 -0.2664 -0.7567
   46MOL   H30417494   4.114   7.492   4.478 -1.5941  1.4616 -0.0593
   46MOL   H30517495   4.129   7.346   4.378  0.8954  1.3781 -1.1990
   46MOL   C30617496   3.430   7.408   4.699  0.5962 -0.0449 -0.1980
   46MOL   C30717497   3.450   7.548   4.753  0.3208 -0.0578  0.2438
   46MOL   O30817498   3.441   7.556   4.901 -0.4192 -0.1027 -0.0488
   46MOL   C30917499   3.530   7.649   4.961 -0.7468 -0.4343 -0.3262
   46MOL   C31017500   3.478   7.673   5.103  0.1130  0.7031 -0.8301
   46MOL   C31117501   3.554   7.780   5.172  0.0081  0.2789 -0.3302
   46MOL   C31217502   3.516   7.785   5.320  0.5623  0.4468  0.6243
   46MOL   H31317503   3.369   7.402   4.609  1.2860  2.6633 -0.9014
   46MOL   H31417504   3.355   7.367   4.767 -1.1855  1.9609 -0.8904
   46MOL   H31517505   3.547   7.585   4.719  0.8836 -1.5635  0.2018
   46MOL   H31617506   3.525   7.747   4.913 -0.8288  0.0665  0.6960
   46MOL   H31717507   3.629   7.605   4.952 -0.4980  0.3478 -1.4971
   46MOL   H31817508   3.485   7.579   5.158 -1.7758  0.3979 -1.0753
   46MOL   H31917509   3.370   7.681   5.115  0.0821 -1.7705  0.9492
   46MOL   H32017510   3.662   7.769   5.166 -0.0312  0.8681 -2.5189
   46MOL   H32117511   3.529   0.077   5.134  2.3030  1.1488  0.3948
   46MOL   H32217512   3.532   0.087   5.349 -3.0207  0.8313  1.5381
   46MOL   H32317513   3.576   7.719   5.383  1.7902  0.6472 -0.3128
   46MOL   H32417514   3.408   7.771   5.334  0.5574  0.5349  0.6791
   46MOL   C32517515   3.336   7.628   4.689 -0.3991  0.3712  0.0202
   46MOL   C32617516   3.373   7.675   4.549  0.4010  0.6098  0.9293
   46MOL   O32717517   3.252   7.707   4.478  0.4066  0.3505  0.6939
   46MOL   C32817518   3.160   0.003   4.523 -0.4533  0.2832  0.0546
   46MOL   C32917519   3.043   0.007   4.426  0.7889 -0.8102 -0.1140
   46MOL   C33017520   3.089   0.062   4.290  0.3004  0.5403 -0.1420
   46MOL   C33117521   2.969   0.061   4.191  0.3073  0.3569 -0.0431
   46MOL   H33217522   3.322   7.715   4.753  1.4095 -0.8479  2.1683
   46MOL   H33317523   3.236   7.584   4.696 -0.4361  0.7422  2.3367
   46MOL   H33417524   3.402   7.589   4.489 -2.6085 -1.9613  3.0126
   46MOL   H33517525   3.207   0.101   4.538  0.1076 -0.0091  0.2523
   46MOL   H33617526   3.119   7.785   4.622 -1.0036 -0.8353 -0.3957
   46MOL   H33717527   2.990   7.713   4.426  0.0086 -0.3835  0.6409
   46MOL   H33817528   2.979   0.078   4.478  0.2806 -1.0299 -0.4403
   46MOL   H33917529   3.157   7.786   4.256  0.7139  0.7702  0.1641
   46MOL   H34017530   3.129   0.163   4.301 -3.0968  1.7304  2.2794
   46MOL   H34117531   2.912   7.770   4.199 -1.1004  0.9438 -2.6269
   46MOL   H34217532   3.003   0.055   4.087  1.1085  1.0916  0.1771
   46MOL   H34317533   2.908   0.151   4.191  1.1809  1.0500 -3.8032
   46MOL   C34417534   3.482   7.795   4.539  0.6863 -0.1677 -0.3632
   46MOL   C34517535   3.502   0.039   4.393 -0.2846  0.7809  0.0447
   46MOL   O34617536   3.545   7.731   4.303 -0.3081  0.0242 -0.5275
   46MOL   C34717537   3.555   7.765   4.164  0.0108 -0.0145 -0.3892
   46MOL   C34817538   3.557   7.630   4.089 -0.5477  0.3755  0.0790
   46MOL   C34917539   3.440   7.525   4.117  0.1000  0.4756  0.7253
   46MOL   C35017540   3.447   7.402   4.030  0.0020 -0.2132  0.6962
   46MOL   H35117541   3.449   0.079   4.597  1.2097  0.1105 -0.4768
   46MOL   H35217542   3.571   7.760   4.590 -0.6139 -2.7845  0.2608
   46MOL   H35317543   3.408   0.078   4.353  0.3654  1.2087 -1.0641
   46MOL   H35417544   3.645   0.021   4.141 -0.7653  1.6725  0.7137
   46MOL   H35517545   3.462   0.014   4.140 -0.4240 -0.8590 -0.4842
   46MOL   H35617546   3.654   7.584   4.107 -0.0172  1.3209 -0.3319
   46MOL   H35717547   3.562   7.652   3.982 -1.3836  0.3650  0.0328
   46MOL   H35817548   3.442   7.498   4.223  2.2603  1.6410  1.0153
   46MOL   H35917549   3.347   7.576   4.092  0.3352 -0.8858 -3.2769
   46MOL   H36017550   3.452   7.432   3.925 -1.0142  0.1161  0.7320
   46MOL   H36117551   3.369   7.327   4.048 -0.5285 -0.3552 -2.0207
   46MOL   H36217552   3.547   7.361   4.045  0.3171  0.3410  0.1245
   46MOL   C36317553   3.614   0.151   4.397  0.2993  0.0358 -0.1362
   46MOL   C36417554   3.754   0.110   4.436  0.9683  0.0965 -0.1212
   46MOL   O36517555   3.847   0.213   4.415 -0.4320  0.4576  0.1316
   46MOL   C36617556   3.978   0.190   4.443  1.4183 -0.6347 -0.4163
   46MOL   C36717557   4.069   0.318   4.407 -0.0123  0.2341 -0.5960
   46MOL   C36817558   4.040   0.453   4.473 -1.0075 -0.1725  0.0995
   46MOL   C36917559   4.155   0.551   4.448  0.7855 -0.0312  0.0993
   46MOL   H37017560   3.580   0.231   4.462 -0.4796 -0.6302  0.2832
   46MOL   H37117561   3.629   0.190   4.296  1.2648 -1.7572 -0.7009
   46MOL   H37217562   3.780   0.029   4.367  0.4771  0.2819 -0.5247
   46MOL   H37317563   4.024   0.113   4.381 -0.5963 -0.1339 -2.5864
   46MOL   H37417564   3.984   0.157   4.547 -1.1888  0.8081  0.2228
   46MOL   H37517565   4.075   0.318   4.298 -0.3409 -0.4079 -0.6181
   46MOL   H37617566   4.165   0.292   4.453 -1.3398 -1.5206  1.3029
   46MOL   H37717567   4.026   0.443   4.580  1.1114 -0.2212  0.3807
   46MOL   H37817568   3.943   0.483   4.434 -0.3806 -0.2313 -1.5440
   46MOL   H37917569   4.191   0.549   4.345 -0.6735  2.4199 -0.5125
   46MOL   H38017570   4.121   0.653   4.464 -0.3672 -0.3741 -0.1288
   46MOL   H38117571   4.237   0.528   4.515  0.1237 -2.4172  0.1386
   46MOL   H38217572   3.763   0.073   4.538  1.6209  2.1589  0.6043
   47MOL     C117573   7.359   3.137   4.613  0.2567 -0.7671  0.1984
   47MOL     C217574   7.496   3.094   4.556 -0.0571  0.2360 -0.8271
   47MOL     O317575   7.586   3.089   4.664  0.0811  0.1288 -0.1690
   47MOL     C417576   7.653   3.204   4.714  0.2954  0.0492  0.3770
   47MOL     C517577   7.765   3.254   4.615  0.4117 -0.0786 -0.4095
   47MOL     C617578   0.049   3.373   4.658 -0.5877 -0.2228  0.3736
   47MOL     C717579   0.147   3.424   4.551  0.0088  0.0013 -0.0395
   47MOL     H817580   7.322   3.074   4.694  0.2934 -1.9291 -0.6759
   47MOL     H917581   7.365   3.235   4.661 -0.7767 -1.3099  1.4810
   47MOL    H1017582   7.520   3.167   4.478 -0.7751  2.0627  0.6114
   47MOL    H1117583   7.594   3.290   4.746 -2.4634 -1.8529  0.5041
   47MOL    H1217584   7.694   3.168   4.808  0.1945 -0.4790  0.2182
   47MOL    H1317585   7.711   3.276   4.523 -1.9986 -2.0161  0.4953
   47MOL    H1417586   0.026   3.169   4.589  0.4717 -0.4054  0.7718
   47MOL    H1517587   0.095   3.346   4.754  0.6428  0.8938  0.1139
   47MOL    H1617588   7.783   3.452   4.690 -2.0810 -1.8443  1.3489
   47MOL    H1717589   0.175   3.520   4.593 -2.1453  0.3015  0.7530
   47MOL    H1817590   0.107   3.430   4.450 -0.0121  2.6152  0.0882
   47MOL    H1917591   0.234   3.359   4.540 -0.6177 -0.9576  0.5493
   47MOL    H2017592   7.283   3.147   4.536  1.1868  1.4884 -0.4608
   47MOL    C2117593   7.487   2.954   4.495  0.0922 -0.2985  0.0556
   47MOL    C2217594   7.614   2.901   4.421 -0.2452 -0.5400 -0.6337
   47MOL    O2317595   7.588   2.774   4.364 -0.2793 -0.0950  0.2488
   47MOL    C2417596   7.591   2.661   4.455  0.1056  0.6908 -0.3482
   47MOL    C2517597   7.546   2.533   4.374  0.3489 -1.1527  0.0820
   47MOL    C2617598   7.517   2.416   4.470 -0.0053  0.0752 -0.2483
   47MOL    C2717599   7.467   2.294   4.400  0.0343  0.7719  0.5182
   47MOL    H2817600   7.398   2.939   4.434 -1.3640 -0.5578  2.2032
   47MOL    H2917601   7.472   2.889   4.582  0.5392  1.7400  1.6950
   47MOL    H3017602   7.697   2.884   4.491 -2.4450 -3.4902  1.3731
   47MOL    H3117603   7.516   2.692   4.528  0.2260 -0.3970  0.2406
   47MOL    H3217604   7.687   2.648   4.505 -0.7022  1.2281  1.3624
   47MOL    H3317605   7.452   2.555   4.324 -0.4558 -5.4313 -0.4654
   47MOL    H3417606   7.616   2.511   4.294  2.3002  3.3411  0.4094
   47MOL    H3517607   7.599   2.405   4.542  0.3800  2.4472 -0.2987
   47MOL    H3617608   7.442   2.454   4.538  0.3108  1.7784 -0.8389
   47MOL    H3717609   7.538   2.257   4.326 -0.6243 -1.6827  1.0614
   47MOL    H3817610   7.439   2.216   4.471  1.1133  0.2423  0.3691
   47MOL    H3917611   7.370   2.315   4.355 -1.4127 -0.9830  2.6981
   47MOL    C4017612   7.664   2.995   4.314  0.4759 -0.1095 -0.5670
   47MOL    C4117613   7.793   2.939   4.243 -0.0313 -0.5310  0.0289
   47MOL    O4217614   0.040   3.042   4.155  0.2715  0.4456 -0.0848
   47MOL    C4317615   0.158   3.095   4.206  0.7062  0.3069 -0.3513
   47MOL    C4417616   0.159   3.225   4.129 -0.1201 -0.8509  1.0090
   47MOL    C4517617   0.051   3.321   4.170  0.0204 -0.2061 -0.3777
   47MOL    C4617618   0.089   3.467   4.136  0.2793  1.1393  0.2357
   47MOL    H4717619   7.688   3.088   4.366 -0.0907 -0.7287  0.8278
   47MOL    H4817620   7.592   3.022   4.236 -0.6791 -0.2718  0.4358
   47MOL    H4917621   0.073   2.916   4.311  2.0298  1.9722 -1.5109
   47MOL    H5017622   0.238   3.024   4.185 -0.8063 -1.8467  0.9089
   47MOL    H5117623   0.165   3.127   4.310  0.0040 -0.0612 -0.1901
   47MOL    H5217624   0.145   3.218   4.021 -3.5030 -0.1214  1.3211
   47MOL    H5317625   0.255   3.268   4.156  0.9516 -2.1663 -0.6251
   47MOL    H5417626   0.029   3.323   4.276  1.2161  2.1831 -0.1442
   47MOL    H5517627   7.756   3.293   4.128  0.8406  0.2121 -2.6585
   47MOL    H5617628   0.179   3.501   4.186  1.6140 -0.3446 -1.1307
   47MOL    H5717629   0.106   3.467   4.029 -1.6692 -1.1312 -0.1305
   47MOL    H5817630   0.001   3.530   4.152 -0.9862 -1.0426  2.2144
   47MOL    C5917631   7.777   2.810   4.159 -0.0922 -0.3990 -0.3416
   47MOL    C6017632   7.686   2.820   4.035  0.0379 -0.1844 -0.1065
   47MOL    O6117633   7.735   2.725   3.938  0.2248 -0.1888  0.1561
   47MOL    C6217634   7.794   2.780   3.827 -0.1983  0.0390  0.4293
   47MOL    C6317635   0.037   2.657   3.748 -0.7061  0.4009  0.2483
   47MOL    C6417636   0.175   2.602   3.782 -0.2074  0.3988 -0.1084
   47MOL    C6517637   0.203   2.475   3.710 -0.0932  0.0987 -0.1139
   47MOL    H6617638   0.080   2.796   4.129  0.6720  0.2067  1.9220
   47MOL    H6717639   7.755   2.717   4.209 -1.2083 -0.6076 -1.1939
   47MOL    H6817640   7.678   2.922   3.998  1.2124 -1.0736 -3.0341
   47MOL    H6917641   0.077   2.845   3.847 -0.6499  0.5511  0.6708
   47MOL    H7017642   7.713   2.829   3.774  0.5865 -1.0324 -1.8036
   47MOL    H7117643   7.755   2.588   3.743  0.2335 -0.8225  1.0593
   47MOL    H7217644   0.036   2.686   3.643  1.8464 -0.9117 -0.1977
   47MOL    H7317645   0.251   2.672   3.749  0.3990  0.2930  1.0344
   47MOL    H7417646   0.206   2.593   3.886 -1.0437 -1.0126  0.0294
   47MOL    H7517647   0.306   2.444   3.728 -0.6109 -0.2423  2.4135
   47MOL    H7617648   0.134   2.396   3.742  2.2554 -1.8281  0.3195
   47MOL    H7717649   0.205   2.489   3.602 -0.8675 -0.6443 -0.2317
   47MOL    C7817650   7.541   2.778   4.059 -0.6776  0.2229  0.0393
   47MOL    C7917651   7.448   2.787   3.939 -0.1209 -0.3409  0.2288
   47MOL    O8017652   7.306   2.806   3.979 -0.2570 -0.5320  0.6458
   47MOL    C8117653   7.266   2.940   3.958  0.2472 -0.1161 -0.0096
   47MOL    C8217654   7.221   2.980   3.823 -0.4145 -0.6707 -0.0520
   47MOL    C8317655   7.148   3.113   3.827  0.3089 -0.1920 -0.2205
   47MOL    C8417656   7.254   3.226   3.835 -0.4577 -0.1459 -0.3582
   47MOL    H8517657   7.502   2.851   4.130 -0.9973 -1.8682  2.0640
   47MOL    H8617658   7.532   2.683   4.110 -1.8369  0.2802 -0.0507
   47MOL    H8717659   7.481   2.870   3.877  2.4228  0.3521  2.4383
   47MOL    H8817660   7.331   3.016   4.003 -0.5452 -1.4650  3.5927
   47MOL    H8917661   7.183   2.954   4.027  0.9320  0.5940  0.6883
   47MOL    H9017662   7.307   2.985   3.756  0.5510  0.2157  1.2317
   47MOL    H9117663   7.150   2.904   3.792 -0.2177 -1.4157  1.2909
   47MOL    H9217664   7.072   3.107   3.905  2.1796 -0.6138  1.6185
   47MOL    H9317665   7.103   3.141   3.732  1.3823  1.6605 -0.2232
   47MOL    H9417666   7.208   3.323   3.816  1.6335  0.5960 -1.7966
   47MOL    H9517667   7.311   3.240   3.927  0.6266  1.8761 -1.3194
   47MOL    H9617668   7.327   3.218   3.755 -1.2668  0.6990 -1.1907
   47MOL    C9717669   7.446   2.649   3.866 -0.1073 -0.0504 -0.0589
   47MOL    C9817670   7.364   2.615   3.733  0.0300  0.0161  0.6568
   47MOL    O9917671   7.456   2.625   3.623 -0.3159 -0.2208 -0.0740
   47MOL   C10017672   7.473   2.762   3.581 -0.2058 -0.3132  0.7269
   47MOL   C10117673   7.581   2.760   3.478  0.9107  0.3464 -0.2212
   47MOL   C10217674   7.537   2.690   3.349 -0.3499  0.6675  0.7392
   47MOL   C10317675   7.663   2.678   3.260  0.0828  0.0399 -0.6079
   47MOL   H10417676   7.408   2.576   3.937  1.2367 -0.7920 -0.0777
   47MOL   H10517677   7.546   2.612   3.841 -0.4645 -1.1952  0.1610
   47MOL   H10617678   7.287   2.689   3.717  0.9793  0.6845 -1.0204
   47MOL   H10717679   7.505   2.823   3.666  0.2850  1.6179 -0.7994
   47MOL   H10817680   7.377   2.797   3.543 -0.6260  1.7358  3.5266
   47MOL   H10917681   7.667   2.718   3.530  1.1368  0.8399 -0.2035
   47MOL   H11017682   7.614   2.863   3.469  0.9758  0.3756  0.3580
   47MOL   H11117683   7.469   2.758   3.297  0.8424 -0.4103 -2.3957
   47MOL   H11217684   7.497   2.593   3.377  1.4961 -0.3174  0.0203
   47MOL   H11317685   7.648   2.617   3.171 -0.1983 -0.4698 -0.2101
   47MOL   H11417686   7.703   2.775   3.229  1.2575 -1.0279 -2.5364
   47MOL   H11517687   7.739   2.628   3.320 -0.0794  1.6732  0.9858
   47MOL   C11617688   7.319   2.470   3.738 -0.1089  0.7151  0.5216
   47MOL   C11717689   7.242   2.429   3.608  0.6943  0.8464 -0.2610
   47MOL   O11817690   7.226   2.287   3.609 -0.2194  0.2486  0.1469
   47MOL   C11917691   7.307   2.218   3.518 -0.1625 -0.0814 -0.2195
   47MOL   C12017692   7.275   2.225   3.366 -0.8283 -0.8057  0.0567
   47MOL   C12117693   7.385   2.157   3.282 -0.2063  0.5120 -0.0403
   47MOL   C12217694   7.374   2.182   3.134  0.1873 -0.3955 -0.0659
   47MOL   H12317695   7.405   2.406   3.758 -1.6815 -1.8337 -0.6212
   47MOL   H12417696   7.251   2.460   3.822 -1.7192  0.6695 -0.7726
   47MOL   H12517697   7.298   2.457   3.519  3.0647  0.2895  1.0182
   47MOL   H12617698   7.302   2.112   3.542 -1.8910 -0.4854 -2.1852
   47MOL   H12717699   7.412   2.247   3.525 -0.2527  1.1598 -2.9745
   47MOL   H12817700   7.267   2.328   3.331  1.5376 -1.0951 -1.4525
   47MOL   H12917701   7.180   2.175   3.348 -0.4096 -1.5784 -0.0338
   47MOL   H13017702   7.487   2.186   3.307  0.9539 -1.9894 -1.7086
   47MOL   H13117703   7.386   2.054   3.315  1.3715  0.5188 -0.0493
   47MOL   H13217704   7.282   2.145   3.089 -0.7923  1.2898  0.5062
   47MOL   H13317705   7.459   2.139   3.082 -0.6370 -0.0944 -1.6763
   47MOL   H13417706   7.380   2.287   3.103 -1.0465 -0.7371 -1.5333
   47MOL   C13517707   7.108   2.496   3.590  0.2085  1.3091 -0.2386
   47MOL   C13617708   7.076   2.551   3.451  0.5975  0.2108 -0.9108
   47MOL   O13717709   6.944   2.597   3.448 -0.0765 -0.5352 -0.7472
   47MOL   C13817710   6.855   2.488   3.422  0.3032  0.0353  0.1279
   47MOL   C13917711   6.856   2.444   3.274 -0.7223 -0.6311  0.2921
   47MOL   C14017712   6.744   2.343   3.229  0.0574 -0.1559 -0.2168
   47MOL   C14117713   6.749   2.313   3.079  0.3772  0.4101 -0.3068
   47MOL   H14217714   7.099   2.576   3.663  1.4975 -0.2033  1.6499
   47MOL   H14317715   7.034   2.426   3.630  1.2642  0.6520  0.6207
   47MOL   H14417716   7.097   2.479   3.373  0.3751 -0.0491 -0.7315
   47MOL   H14517717   6.753   2.525   3.438 -0.3255 -1.5782 -0.0923
   47MOL   H14617718   6.868   2.399   3.484  0.2155 -0.1617 -0.1386
   47MOL   H14717719   6.953   2.405   3.243  0.6042  1.9534  1.0249
   47MOL   H14817720   6.841   2.533   3.213 -0.8066  0.9234  2.5343
   47MOL   H14917721   6.759   2.244   3.273 -0.5019 -0.9272 -1.7356
   47MOL   H15017722   6.649   2.380   3.266 -0.1002 -1.5543  0.8503
   47MOL   H15117723   6.661   2.262   3.039  0.3547  2.0168 -2.3355
   47MOL   H15217724   6.756   2.404   3.020 -0.3152 -1.6668 -3.6926
   47MOL   H15317725   6.841   2.262   3.054  0.3281 -0.2610  0.8246
   47MOL   C15417726   7.152   2.681   3.417 -0.4463  0.0604  0.1797
   47MOL   C15517727   7.124   2.728   3.274 -1.3636 -0.3982  0.0485
   47MOL   O15617728   7.161   2.618   3.189  0.0773 -0.5205 -0.0784
   47MOL   C15717729   7.130   2.640   3.052 -0.0029 -0.3754 -0.5488
   47MOL   C15817730   7.171   2.511   2.979 -0.3723 -0.4241  0.8494
   47MOL   C15917731   7.098   2.486   2.844 -0.0703 -0.3694  0.2274
   47MOL   C16017732   7.163   2.371   2.762 -0.3744 -0.9558  0.1840
   47MOL   H16117733   7.259   2.656   3.420 -0.2685  0.8896  1.0691
   47MOL   H16217734   7.144   2.767   3.483 -1.2082  1.3888 -1.6118
   47MOL   H16317735   7.016   2.744   3.266 -1.3154  0.2502  0.6841
   47MOL   H16417736   7.024   2.659   3.035 -0.5800 -1.3820  1.7608
   47MOL   H16517737   7.179   2.722   3.000 -0.2266 -0.2851 -0.6214
   47MOL   H16617738   7.158   2.414   3.028  0.1174 -1.1405 -0.4404
   47MOL   H16717739   7.276   2.521   2.954 -0.3636  1.9481  1.7295
   47MOL   H16817740   6.990   2.473   2.851 -0.4755  2.2396 -0.6717
   47MOL   H16917741   7.109   2.580   2.791 -2.0013 -0.9724 -1.3085
   47MOL   H17017742   7.127   2.385   2.660 -1.0805 -1.0963  0.4117
   47MOL   H17117743   7.272   2.374   2.768 -0.2395 -2.7520 -0.9881
   47MOL   H17217744   7.134   2.271   2.793  0.9974 -1.9655 -1.7150
   47MOL   C17317745   7.191   2.869   3.254 -0.5861  0.2753  0.1755
   47MOL   C17417746   7.083   2.972   3.204 -0.2257 -0.1312  0.1476
   47MOL   O17517747   7.003   3.001   3.319  0.3423 -0.6543 -1.0871
   47MOL   C17617748   6.868   3.030   3.280 -0.4743  0.7195 -0.0491
   47MOL   C17717749   6.819   3.061   3.421 -0.5522  0.3142 -0.0422
   47MOL   C17817750   6.842   2.949   3.530 -0.7766  0.9979 -0.2106
   47MOL   C17917751   6.746   2.946   3.643 -0.7529  0.5131  0.3850
   47MOL   H18017752   7.270   2.850   3.181 -0.0479  2.0630  0.2763
   47MOL   H18117753   7.257   2.907   3.332 -2.0022  2.5252  0.3228
   47MOL   H18217754   7.032   2.915   3.126 -1.8474 -0.1031  1.1747
   47MOL   H18317755   6.820   2.948   3.227 -1.1479  0.6170  0.7158
   47MOL   H18417756   6.856   3.117   3.216  0.4308  0.4759 -0.5468
   47MOL   H18517757   6.714   3.090   3.422 -1.8005 -3.8561  1.5289
   47MOL   H18617758   6.856   3.156   3.459  0.3196 -0.7426  1.8244
   47MOL   H18717759   6.841   2.849   3.486 -1.8236  0.6441  0.5760
   47MOL   H18817760   6.944   2.969   3.563 -0.3348  0.4235 -1.2189
   47MOL   H18917761   6.745   3.034   3.709 -0.1035  2.8615 -2.6285
   47MOL   H19017762   6.644   2.934   3.607 -0.1099 -2.5069 -0.5274
   47MOL   H19117763   6.772   2.854   3.695  0.2378  0.1093 -0.8097
   47MOL   C19217764   7.143   3.095   3.123 -0.2597 -0.1572 -0.6232
   47MOL   C19317765   7.191   3.045   2.977 -0.0244  0.0590 -0.1366
   47MOL   O19417766   7.076   3.041   2.891  0.2734 -0.2375  0.2585
   47MOL   C19517767   7.081   2.932   2.806  0.2228 -0.0042 -0.3500
   47MOL   C19617768   6.970   2.946   2.693  0.0224  0.0682  0.4363
   47MOL   C19717769   6.828   2.912   2.732  0.1305  0.3393  0.1614
   47MOL   C19817770   6.735   2.880   2.617 -0.2144 -0.4044 -0.2819
   47MOL   H19917771   7.224   3.140   3.179 -1.2216  0.7132  0.0978
   47MOL   H20017772   7.065   3.168   3.099 -1.0608 -1.4130 -2.0017
   47MOL   H20117773   7.242   2.948   2.982 -1.7502 -0.7970  1.3696
   47MOL   H20217774   7.070   2.836   2.857 -1.8251 -0.5890 -1.8253
   47MOL   H20317775   7.183   2.926   2.770  1.6885 -0.2609  3.5429
   47MOL   H20417776   6.970   3.043   2.641 -0.3332  0.3101  0.8887
   47MOL   H20517777   6.987   2.872   2.614 -1.2836 -0.4435  0.6339
   47MOL   H20617778   6.784   2.989   2.796  2.5216  1.3498  0.6518
   47MOL   H20717779   6.837   2.824   2.795  0.0889 -0.3910 -0.8352
   47MOL   H20817780   6.705   2.968   2.561 -0.3556 -1.4523 -1.8890
   47MOL   H20917781   6.779   2.807   2.549  1.8517  0.0716  0.5123
   47MOL   H21017782   6.654   2.823   2.662 -1.7327  3.6705  2.3685
   47MOL   C21117783   7.301   3.137   2.929 -0.2564 -0.0653 -0.0652
   47MOL   C21217784   7.449   3.089   2.953 -0.2693  0.3171 -0.1587
   47MOL   O21317785   7.476   2.976   2.870  0.8176  0.2286  0.1337
   47MOL   C21417786   7.506   2.851   2.941 -0.8372  0.0077 -0.8175
   47MOL   C21517787   7.563   2.750   2.839 -0.4267  0.2228 -0.3094
   47MOL   C21617788   7.587   2.609   2.897 -0.3696 -0.5040 -0.1713
   47MOL   C21717789   7.571   2.503   2.788  0.0774  0.2608 -0.7358
   47MOL   H21817790   7.294   3.238   2.967 -0.4756 -0.6884  1.5898
   47MOL   H21917791   7.292   3.153   2.822  0.3425 -0.1734 -0.1387
   47MOL   H22017792   7.453   3.068   3.060  0.8295 -0.9436 -0.4409
   47MOL   H22117793   7.592   2.874   3.003  0.2058 -1.2268 -1.7955
   47MOL   H22217794   7.415   2.821   2.993 -2.1522  2.9682 -1.2758
   47MOL   H22317795   7.493   2.745   2.756 -1.0145 -1.0738  0.2327
   47MOL   H22417796   7.657   2.785   2.797  0.4409  1.5016  2.5948
   47MOL   H22517797   7.512   2.601   2.975  0.3987  0.1238  0.6388
   47MOL   H22617798   7.677   2.600   2.959 -0.9070 -1.3633  0.4907
   47MOL   H22717799   7.599   2.402   2.821  0.4632  0.4248 -0.5574
   47MOL   H22817800   7.635   2.525   2.702 -0.4324  0.6729 -1.0113
   47MOL   H22917801   7.473   2.497   2.741 -0.2727 -0.7672  0.0911
   47MOL   C23017802   7.540   3.204   2.931 -0.4827 -0.1193  0.5067
   47MOL   C23117803   7.687   3.171   2.959 -0.4446  1.1340 -0.5097
   47MOL   O23217804   7.765   3.282   2.925  0.3764  0.7376 -0.3068
   47MOL   C23317805   0.034   3.291   2.802 -0.5122  0.3062  0.3277
   47MOL   C23417806   0.124   3.415   2.816 -0.4927  0.1341 -0.1260
   47MOL   C23517807   0.244   3.395   2.914  0.4520 -0.0751 -0.1960
   47MOL   C23617808   0.338   3.518   2.907  0.4389 -0.3225  0.1599
   47MOL   H23717809   7.501   3.292   2.983 -0.5356 -0.2918  0.7628
   47MOL   H23817810   7.528   3.225   2.825 -0.7862 -1.0001  0.3607
   47MOL   H23917811   7.719   3.092   2.891 -2.2188  1.2983 -1.5684
   47MOL   H24017812   0.098   3.204   2.783  0.2526  1.0663 -0.6026
   47MOL   H24117813   7.766   3.299   2.719  1.9149  0.1368 -1.8132
   47MOL   H24217814   0.165   3.432   2.717 -0.1705 -0.4174 -0.0873
   47MOL   H24317815   0.068   3.504   2.845 -1.0462  0.0834 -1.0267
   47MOL   H24417816   0.292   3.304   2.879 -0.5234 -1.0398  0.9540
   47MOL   H24517817   0.199   3.386   3.012  0.2316  0.3499 -0.2537
   47MOL   H24617818   0.403   3.503   2.820 -1.6363 -2.2656 -1.1119
   47MOL   H24717819   0.407   3.534   2.990  1.3783 -2.1389 -0.2291
   47MOL   H24817820   0.282   3.609   2.892 -3.4788 -2.5304  0.8362
   47MOL   C24917821   7.722   3.122   3.107  0.3364 -0.1031 -0.9864
   47MOL   C25017822   0.063   3.065   3.126 -0.0554  0.3463  0.1212
   47MOL   O25117823   0.071   2.950   3.046 -0.2547 -0.0295  0.4774
   47MOL   C25217824   0.191   2.956   2.969  0.3850 -0.1925 -0.0235
   47MOL   C25317825   0.190   2.838   2.876  0.5862  0.1350  0.0654
   47MOL   C25417826   0.181   2.716   2.967 -0.4619  0.4440 -0.4703
   47MOL   C25517827   0.185   2.581   2.897  0.2791  0.8964  0.0256
   47MOL   H25617828   7.651   3.044   3.136  0.4569 -0.3284 -1.2976
   47MOL   H25717829   7.703   3.215   3.161 -1.3466 -0.7597 -0.3995
   47MOL   H25817830   0.126   3.148   3.095 -1.3543  0.7563 -1.5006
   47MOL   H25917831   0.272   2.947   3.041 -2.0200 -4.0374  2.3709
   47MOL   H26017832   0.208   3.045   2.909  1.0522 -0.4299 -0.2049
   47MOL   H26117833   0.115   2.839   2.797 -0.7018  2.2390  1.2618
   47MOL   H26217834   0.292   2.834   2.835  0.2560  0.5599 -0.8174
   47MOL   H26317835   0.256   2.730   3.045 -1.4683  1.5568  0.3081
   47MOL   H26417836   0.080   2.713   3.009 -0.7729 -2.4069 -1.3330
   47MOL   H26517837   0.103   2.563   2.828 -0.2884 -1.7405  1.3232
   47MOL   H26617838   0.185   2.493   2.963 -0.7520  0.2440 -0.8294
   47MOL   H26717839   0.273   2.576   2.834 -0.5013 -1.4178 -0.9468
   47MOL   C26817840   0.102   3.025   3.270  0.4515  0.0927  0.0640
   47MOL   C26917841   0.070   3.122   3.380  1.1847 -0.3441  0.3774
   47MOL   O27017842   7.732   3.101   3.420  0.5110 -0.0729  0.5878
   47MOL   C27117843   7.653   3.204   3.464  0.3132  0.0901 -0.2600
   47MOL   C27217844   7.501   3.167   3.434 -0.3201  0.4405 -0.0453
   47MOL   C27317845   7.417   3.292   3.472  0.2403  0.4057 -0.2480
   47MOL   C27417846   7.260   3.266   3.483  0.1782 -0.0170 -0.3297
   47MOL   H27517847   0.053   2.930   3.292 -1.4242  1.1196  0.3383
   47MOL   H27617848   0.210   3.010   3.281  0.7282  1.7688 -0.2445
   47MOL   H27717849   0.081   3.224   3.343  1.6084 -0.8519 -0.9145
   47MOL   H27817850   7.667   3.223   3.571  0.0736 -2.6149  0.2716
   47MOL   H27917851   7.673   3.297   3.410 -0.6457  0.7183  0.4329
   47MOL   H28017852   7.484   3.140   3.330  0.0749  1.2781 -0.3377
   47MOL   H28117853   7.470   3.091   3.505  0.9618 -0.1736 -0.1450
   47MOL   H28217854   7.422   3.367   3.393 -1.1977  0.7611 -0.0219
   47MOL   H28317855   7.461   3.349   3.554  0.6194  0.2531 -0.3486
   47MOL   H28417856   7.221   3.346   3.547  1.1692  0.2173  0.0032
   47MOL   H28517857   7.252   3.163   3.518 -2.9318 -0.6031 -2.6247
   47MOL   H28617858   7.215   3.275   3.385 -0.8972 -0.0929  0.1483
   47MOL   C28717859   0.165   3.122   3.501  0.5864 -0.1109 -0.0925
   47MOL   C28817860   0.177   3.255   3.583 -0.2882 -0.8837  0.2610
   47MOL   O28917861   0.236   3.358   3.502 -0.3669  0.3532  0.6420
   47MOL   C29017862   0.161   3.479   3.505  0.7923 -0.7974 -0.7145
   47MOL   C29117863   0.211   3.570   3.397 -0.1332  0.3838  0.1132
   47MOL   C29217864   0.349   3.623   3.428 -0.0658  0.8176 -1.0768
   47MOL   C29317865   0.405   3.704   3.317 -0.5796  0.9174  0.0626
   47MOL   H29417866   0.262   3.102   3.456  0.2177  0.4656 -1.1723
   47MOL   H29517867   0.145   3.046   3.577 -0.0632  2.5164  2.4102
   47MOL   H29617868   0.079   3.284   3.619  1.2200  4.1800  0.7409
   47MOL   H29717869   0.056   3.459   3.483 -0.0774  0.5798  1.9135
   47MOL   H29817870   0.161   3.526   3.604  0.5861 -1.4445 -0.4012
   47MOL   H29917871   0.143   3.654   3.386  0.1661  0.6125  0.0180
   47MOL   H30017872   0.209   3.514   3.303  2.2367 -0.3654  0.4781
   47MOL   H30117873   0.414   3.540   3.456 -1.1315  0.6004  0.8514
   47MOL   H30217874   0.343   3.699   3.507 -0.1188 -1.2345  0.9578
   47MOL   H30317875   0.511   3.719   3.340 -0.7702  0.5610  1.1832
   47MOL   H30417876   0.400   3.651   3.222 -2.9346  2.8104 -0.9042
   47MOL   H30517877   0.347   3.794   3.299 -1.5202  0.3585  0.2624
   47MOL   C30617878   0.264   3.246   3.707 -0.2762 -0.1831  0.8472
   47MOL   C30717879   0.421   3.253   3.693 -0.0360  0.0806 -0.4495
   47MOL   O30817880   0.477   3.171   3.797 -0.3725 -0.2156  0.1968
   47MOL   C30917881   0.475   3.032   3.782  0.6586 -1.4312  0.4946
   47MOL   C31017882   0.543   2.970   3.901  0.3276  0.7204 -0.2091
   47MOL   C31117883   0.691   3.007   3.920  0.3120 -0.4504 -0.1344
   47MOL   C31217884   0.736   2.995   4.066  0.2789  0.0102 -0.1195
   47MOL   H31317885   0.242   3.325   3.779  2.3560 -0.3232  1.8477
   47MOL   H31417886   0.233   3.155   3.758  0.3924 -1.0150 -0.2169
   47MOL   H31517887   0.459   3.213   3.600 -0.4531  0.7762 -0.9255
   47MOL   H31617888   0.533   2.997   3.696  0.3862  2.0127 -1.1527
   47MOL   H31717889   0.370   3.004   3.773  0.2595 -0.2546  1.3969
   47MOL   H31817890   0.537   2.861   3.900 -0.5176  0.7661 -0.7805
   47MOL   H31917891   0.482   3.003   3.985 -1.3489  0.1769 -1.1996
   47MOL   H32017892   0.748   2.939   3.857  1.0307 -1.2010  1.3126
   47MOL   H32117893   0.714   3.108   3.885 -1.5956  0.2545  0.5457
   47MOL   H32217894   0.713   2.897   4.107  1.2032 -0.3301 -0.4002
   47MOL   H32317895   0.678   3.070   4.120 -1.4160 -1.1724 -0.2528
   47MOL   H32417896   0.843   3.001   4.087 -0.8714  2.5469  6.1535
   47MOL   C32517897   0.476   3.403   3.719  0.0846  0.2360  0.0223
   47MOL   C32617898   0.622   3.421   3.693 -0.1067  0.3052  0.3020
   47MOL   O32717899   0.610   3.426   3.547 -0.1637  0.0700  0.5533
   47MOL   C32817900   0.698   3.343   3.470  0.0014  0.2956  0.1643
   47MOL   C32917901   0.650   3.352   3.322 -0.0936  0.4731  0.3074
   47MOL   C33017902   0.531   3.267   3.289  0.0009  0.4077 -0.3646
   47MOL   C33117903   0.483   3.291   3.144 -0.1170  0.0208 -0.5660
   47MOL   H33217904   0.452   3.435   3.821 -1.7828  2.0226 -0.9361
   47MOL   H33317905   0.421   3.475   3.658 -3.4048  0.5084  3.2675
   47MOL   H33417906   0.683   3.336   3.723 -0.2891 -0.5304 -1.6298
   47MOL   H33517907   0.686   3.242   3.509 -0.4223  0.4993  0.5655
   47MOL   H33617908   0.805   3.364   3.476 -0.2788  1.6633  0.4979
   47MOL   H33717909   0.631   3.457   3.299  1.7281  1.1433  1.7775
   47MOL   H33817910   0.735   3.324   3.260  0.0726 -0.6803  1.0591
   47MOL   H33917911   0.453   3.287   3.362 -0.8421  1.0237 -1.4132
   47MOL   H34017912   0.557   3.162   3.302 -0.9075  0.2834  0.5199
   47MOL   H34117913   0.559   3.286   3.066  0.6276 -1.0517  0.2070
   47MOL   H34217914   0.439   3.391   3.142  1.3140  0.6885  0.3994
   47MOL   H34317915   0.410   3.217   3.113  0.7168 -0.6002 -1.0583
   47MOL   C34417916   0.690   3.558   3.733 -0.2234  0.7846  0.7852
   47MOL   C34517917   0.752   3.544   3.880 -0.3457 -0.1620 -0.3137
   47MOL   O34617918   0.649   3.536   3.975  0.4371 -0.1304 -0.5006
   47MOL   C34717919   0.626   3.405   4.030  0.5746  0.1996  0.4530
   47MOL   C34817920   0.522   3.407   4.139  0.1399  0.0387 -0.0126
   47MOL   C34917921   0.522   3.282   4.234 -0.0258  0.4481 -0.3248
   47MOL   C35017922   0.447   3.300   4.373 -0.2058 -0.1926  0.2737
   47MOL   H35117923   0.773   3.576   3.665 -1.9064  0.5080 -1.4267
   47MOL   H35217924   0.621   3.642   3.721 -1.0954  0.1055  0.9728
   47MOL   H35317925   0.798   3.445   3.877 -1.0781 -0.5031 -0.2989
   47MOL   H35417926   0.713   3.369   4.085 -0.2160 -0.1983  1.4540
   47MOL   H35517927   0.618   3.326   3.956  1.4167 -1.1682  1.8012
   47MOL   H35617928   0.429   3.436   4.091  0.6222  2.0632  0.2544
   47MOL   H35717929   0.547   3.487   4.209 -0.8720 -0.7627  1.3057
   47MOL   H35817930   0.477   3.198   4.180 -0.3298  1.7917 -2.2308
   47MOL   H35917931   0.624   3.248   4.250 -1.0066 -1.1255  3.0139
   47MOL   H36017932   0.438   3.204   4.423  0.9513  0.7239  2.3251
   47MOL   H36117933   0.346   3.336   4.356  0.5570  2.2591  0.7032
   47MOL   H36217934   0.502   3.371   4.436 -1.3593 -0.4524  1.5972
   47MOL   C36317935   0.849   3.656   3.921 -0.3607  0.2245  0.5486
   47MOL   C36417936   0.798   3.805   3.905 -0.0842 -0.2437 -0.0836
   47MOL   O36517937   0.900   3.888   3.946  0.1088 -0.0181  0.1125
   47MOL   C36617938   0.867   4.021   3.918 -0.6285 -1.0147 -0.1387
   47MOL   C36717939   0.982   4.097   3.989  1.1114  0.0344  0.2866
   47MOL   C36817940   0.962   4.246   3.981  0.7018 -0.6695 -0.1868
   47MOL   C36917941   1.077   4.318   4.048  0.4045 -0.3931  0.0105
   47MOL   H37017942   0.942   3.631   3.871  0.3647 -0.7130  2.2992
   47MOL   H37117943   0.876   3.633   4.024 -0.2906  0.0063  0.4832
   47MOL   H37217944   0.721   3.829   3.978 -0.4414 -0.4742 -0.3892
   47MOL   H37317945   0.766   4.044   3.949  0.6033  1.0353  2.5708
   47MOL   H37417946   0.867   4.047   3.812 -0.6903  2.4634  0.6382
   47MOL   H37517947   1.075   4.064   3.942  1.2436  1.6811 -0.6747
   47MOL   H37617948   0.985   4.060   4.091 -1.4890 -0.6202  0.1565
   47MOL   H37717949   0.862   4.281   4.006  0.7442 -0.0004 -0.9374
   47MOL   H37817950   0.961   4.270   3.874  0.9225  0.4670  0.0651
   47MOL   H37917951   1.165   4.280   3.995  0.2125  0.7317 -1.1354
   47MOL   H38017952   1.067   4.426   4.046 -0.4891 -0.4870 -2.9907
   47MOL   H38117953   1.080   4.296   4.155 -1.5259 -2.8898 -0.3891
   47MOL   H38217954   0.772   3.826   3.801 -1.2279 -0.9346  0.0621
   48MOL     C117955   5.148   0.484   4.068  0.2302  0.2644 -0.0046
   48MOL     C217956   5.279   0.431   4.016 -0.3540 -0.0199  0.1466
   48MOL     O317957   5.366   0.528   4.055  0.0735  0.1381  0.2349
   48MOL     C417958   5.491   0.532   3.984 -0.0411  0.1061  0.5206
   48MOL     C517959   5.548   0.665   4.030 -0.4316  0.4330  0.0319
   48MOL     C617960   5.471   0.781   3.968  0.1358  0.0338 -0.5449
   48MOL     C717961   5.515   0.919   4.022  0.5524  0.0145  0.0625
   48MOL     H817962   5.132   0.592   4.059 -0.8282  0.3746  2.7513
   48MOL     H917963   5.072   0.435   4.008 -0.3660  0.5119  0.5412
   48MOL    H1017964   5.281   0.436   3.907  1.0851 -0.5838  0.1293
   48MOL    H1117965   5.550   0.451   4.025 -0.2216 -0.2046  0.1755
   48MOL    H1217966   5.493   0.514   3.876 -1.2484 -0.9070  0.6471
   48MOL    H1317967   5.646   0.666   3.982 -0.7448 -2.4133 -0.7694
   48MOL    H1417968   5.547   0.672   4.139 -0.5884 -1.1760  0.1497
   48MOL    H1517969   5.367   0.757   3.991  0.6131  0.4082  2.1547
   48MOL    H1617970   5.475   0.789   3.859  0.6192 -1.9632 -0.6951
   48MOL    H1717971   5.484   1.006   3.963  0.8125 -0.5621 -0.9237
   48MOL    H1817972   5.624   0.918   4.025  0.6541  2.2066 -1.1923
   48MOL    H1917973   5.489   0.924   4.128  0.3385  0.8207 -0.0243
   48MOL    H2017974   5.128   0.454   4.171 -1.3209 -1.3218 -0.7388
   48MOL    C2117975   5.324   0.288   4.063 -0.2984  0.3966  0.6863
   48MOL    C2217976   5.229   0.167   4.013 -0.3909 -0.0349  0.3310
   48MOL    O2317977   5.246   0.162   3.872 -0.1830 -0.4672  0.2564
   48MOL    C2417978   5.146   0.094   3.797  0.7213  0.3047 -0.3744
   48MOL    C2517979   5.192   0.071   3.648 -0.1910  0.3712 -0.0230
   48MOL    C2617980   5.222   0.203   3.564 -0.3282 -0.1912 -0.1462
   48MOL    C2717981   5.295   0.171   3.430 -0.3976  0.0486  0.0971
   48MOL    H2817982   5.316   0.281   4.171  0.7055 -1.7410  0.6428
   48MOL    H2917983   5.426   0.275   4.029 -0.6500  1.8095 -0.9684
   48MOL    H3017984   5.127   0.190   4.044 -0.8082 -1.0531 -0.2479
   48MOL    H3117985   5.057   0.156   3.783  0.2556 -0.0313  1.0493
   48MOL    H3217986   5.126   7.800   3.845 -2.7897  1.0328 -0.2809
   48MOL    H3317987   5.275   0.002   3.635 -0.0896  0.2455  1.1997
   48MOL    H3417988   5.113   0.022   3.592 -1.3155  1.3973  0.6242
   48MOL    H3517989   5.134   0.262   3.540  0.2749  0.3616 -1.0389
   48MOL    H3617990   5.283   0.271   3.623  0.0522 -0.1358 -0.5896
   48MOL    H3717991   5.373   0.100   3.458  1.2821  0.5223 -3.0589
   48MOL    H3817992   5.231   0.110   3.367  0.5838  3.0918 -4.0911
   48MOL    H3917993   5.329   0.258   3.374 -0.5337 -1.0744 -1.7923
   48MOL    C4017994   5.272   0.039   4.072  0.3355 -0.4456  0.9122
   48MOL    C4117995   5.306   0.035   4.227  0.0973 -0.2006  1.1126
   48MOL    O4217996   5.331   7.698   4.259 -0.3766  0.0326  0.5390
   48MOL    C4317997   5.467   7.668   4.283 -0.8603  0.1948 -0.2888
   48MOL    C4417998   5.483   7.527   4.345  0.8014  0.5277  0.3926
   48MOL    C4517999   5.398   7.512   4.480 -0.5803 -0.0073 -0.2885
   48MOL    C4618000   5.480   7.442   4.589  0.0466  0.4559  0.0802
   48MOL    H4718001   5.349   7.793   4.012 -0.5695 -0.7652 -0.0152
   48MOL    H4818002   5.188   7.771   4.064  1.1938 -1.4422  0.4021
   48MOL    H4918003   5.390   0.097   4.258  0.0935  1.1646 -1.4846
   48MOL    H5018004   5.511   7.740   4.353  0.0254 -0.3978 -0.2215
   48MOL    H5118005   5.510   7.676   4.183 -2.2035  2.4359 -0.7141
   48MOL    H5218006   5.586   7.503   4.371  1.6101  1.6099 -1.7461
   48MOL    H5318007   5.456   7.454   4.269  0.9691  1.0301 -0.1497
   48MOL    H5418008   5.314   7.443   4.470  0.2531 -1.1392  0.3164
   48MOL    H5518009   5.370   7.610   4.519 -0.9872 -0.6412  1.0410
   48MOL    H5618010   5.540   7.362   4.545  0.0285  0.9793 -0.8916
   48MOL    H5718011   5.552   7.515   4.625 -0.0476  0.3425  0.5094
   48MOL    H5818012   5.421   7.402   4.672  1.9620 -1.6362  0.5011
   48MOL    C5918013   5.183   0.063   4.320  0.6551  0.3840 -0.2760
   48MOL    C6018014   5.237   0.088   4.465 -0.0069 -0.0876  0.3322
   48MOL    O6118015   5.309   0.208   4.448 -0.6100  0.3498  0.3702
   48MOL    C6218016   5.439   0.208   4.515  0.0926  0.3501 -0.4366
   48MOL    C6318017   5.502   0.349   4.466  0.0597 -0.0933  0.3829
   48MOL    C6418018   5.644   0.365   4.522  0.1076  0.1997 -0.5912
   48MOL    C6518019   5.709   0.499   4.491 -0.3954 -0.3323 -0.3666
   48MOL    H6618020   5.116   0.142   4.286  1.1392 -0.0160 -2.2184
   48MOL    H6718021   5.119   7.776   4.314  1.7290 -0.3910 -0.5610
   48MOL    H6818022   5.312   0.013   4.491 -0.3158 -0.6461 -0.3692
   48MOL    H6918023   5.493   0.120   4.482 -0.6142 -0.2752  0.0700
   48MOL    H7018024   5.424   0.197   4.622  3.6275  0.7320  0.1414
   48MOL    H7118025   5.503   0.341   4.358 -0.5926  2.4639  0.1661
   48MOL    H7218026   5.439   0.436   4.485  0.7597  0.3624  0.6448
   48MOL    H7318027   5.645   0.362   4.631 -0.2700  0.6163 -0.5782
   48MOL    H7418028   5.715   0.291   4.485 -1.6051 -0.3666 -2.8526
   48MOL    H7518029   5.736   0.515   4.387 -1.0374 -1.2639 -0.6877
   48MOL    H7618030   5.635   0.576   4.509  1.9536  2.0836 -0.7599
   48MOL    H7718031   5.800   0.503   4.551 -0.7321 -1.5331  0.2514
   48MOL    C7818032   5.137   0.121   4.580 -0.5973  0.0103 -0.2539
   48MOL    C7918033   5.029   0.012   4.605 -0.7295  0.1445  0.1853
   48MOL    O8018034   4.932   0.067   4.692 -0.0340  0.0731  0.3434
   48MOL    C8118035   4.824   0.114   4.618 -0.8768 -0.4685  0.1304
   48MOL    C8218036   4.706   0.019   4.613 -0.3131  0.4610 -0.6113
   48MOL    C8318037   4.592   0.057   4.529 -0.4333 -0.3458  0.1419
   48MOL    C8418038   4.477   7.757   4.530  0.8314  0.0532  0.0888
   48MOL    H8518039   5.085   0.214   4.559  0.2215  0.9040  1.6427
   48MOL    H8618040   5.194   0.148   4.669 -1.1097  0.1965  0.0159
   48MOL    H8718041   4.993   7.778   4.509  0.0720 -1.2505  0.3948
   48MOL    H8818042   4.847   0.154   4.519 -1.4217 -0.4263  0.0211
   48MOL    H8918043   4.779   0.202   4.665  1.2692  0.6579  0.1583
   48MOL    H9018044   4.738   7.723   4.577  3.4431  1.6505 -0.7278
   48MOL    H9118045   4.678   0.019   4.718  3.1899  0.4768  0.4138
   48MOL    H9218046   4.633   0.060   4.429 -1.4904 -1.1329 -0.3306
   48MOL    H9318047   4.564   0.162   4.540 -0.7470 -0.5538  1.4830
   48MOL    H9418048   4.510   7.655   4.546 -0.9746 -0.3642  1.3600
   48MOL    H9518049   4.414   7.772   4.618  1.0111 -2.3693  0.6750
   48MOL    H9618050   4.423   7.761   4.435  1.4201 -1.3684 -0.3100
   48MOL    C9718051   5.087   7.700   4.687 -0.0331  0.4362  0.0042
   48MOL    C9818052   5.000   7.571   4.698 -0.1409 -0.0306  0.7548
   48MOL    O9918053   4.999   7.528   4.562  0.2080  0.1976  0.1025
   48MOL   C10018054   4.884   7.443   4.540 -0.5211 -0.5149  0.0618
   48MOL   C10118055   4.828   7.498   4.408 -0.3895  0.1731 -0.3157
   48MOL   C10218056   4.695   7.449   4.373  0.3910 -0.3010  1.2679
   48MOL   C10318057   4.629   7.523   4.253 -0.2836 -0.1592 -0.2584
   48MOL   H10418058   5.122   7.742   4.782  1.5097  0.0049 -0.3652
   48MOL   H10518059   5.183   7.672   4.644 -0.0092  0.5387 -0.0083
   48MOL   H10618060   4.896   7.600   4.710 -0.2844  0.3929 -1.2917
   48MOL   H10718061   4.805   7.443   4.616  2.0697  1.7183  2.8449
   48MOL   H10818062   4.893   7.335   4.527  2.9635 -0.4325  1.3519
   48MOL   H10918063   4.903   7.477   4.332 -1.9410  0.0972 -1.8493
   48MOL   H11018064   4.828   7.607   4.407 -0.9171  0.1774 -2.5352
   48MOL   H11118065   4.629   7.444   4.460 -1.4013  0.0887 -0.0455
   48MOL   H11218066   4.707   7.345   4.343  0.7780  0.4807 -1.4457
   48MOL   H11318067   4.538   7.475   4.218 -1.7886  1.4264  1.3182
   48MOL   H11418068   4.605   7.622   4.291 -1.5582 -0.5828  0.0697
   48MOL   H11518069   4.705   7.532   4.176 -1.4887  1.4761 -1.2755
   48MOL   C11618070   5.052   7.458   4.797  0.5720  0.1065  0.3060
   48MOL   C11718071   5.025   7.496   4.942 -0.4233 -0.3105  0.2756
   48MOL   O11818072   4.891   7.457   4.966 -0.3275  0.5162  0.6903
   48MOL   C11918073   4.805   7.561   5.004 -0.1467 -0.4316  0.1885
   48MOL   C12018074   4.665   7.497   4.998  0.1961 -0.2152 -0.6447
   48MOL   C12118075   4.630   7.459   4.856  0.0265  0.7066 -0.3178
   48MOL   C12218076   4.504   7.379   4.829  0.4974  0.1316 -0.0036
   48MOL   H12318077   5.017   7.357   4.776 -1.6070  0.7910  0.5181
   48MOL   H12418078   5.155   7.439   4.770  0.3725 -0.7547  0.1299
   48MOL   H12518079   5.053   7.598   4.968  0.1401 -0.2188 -0.6987
   48MOL   H12618080   4.819   7.650   4.942 -0.2804  0.0141  0.7924
   48MOL   H12718081   4.823   7.593   5.106  0.3587  0.0095 -0.0346
   48MOL   H12818082   4.588   7.552   5.052 -1.0943  0.2212 -2.8829
   48MOL   H12918083   4.657   7.412   5.065  0.8315 -0.4218 -0.8300
   48MOL   H13018084   4.639   7.544   4.787  2.1643  1.3795  0.7473
   48MOL   H13118085   4.707   7.393   4.817 -1.1990  1.4143 -4.1918
   48MOL   H13218086   4.424   7.414   4.894  0.1266  1.2814 -1.0587
   48MOL   H13318087   4.524   7.276   4.857 -0.4558  0.1938  0.9559
   48MOL   H13418088   4.483   7.392   4.723  1.5619 -0.5138 -0.3075
   48MOL   C13518089   5.113   7.422   5.042  0.3943 -0.0710  0.5407
   48MOL   C13618090   5.266   7.461   5.042  0.6894 -0.7748  0.2114
   48MOL   O13718091   5.282   7.601   5.068 -0.4246  0.2428 -0.4756
   48MOL   C13818092   5.385   7.667   5.003  0.1853  0.8662 -0.4892
   48MOL   C13918093   5.381   0.022   5.044 -0.0685 -0.1656  0.1569
   48MOL   C14018094   5.441   0.094   4.924  0.1031  0.1172 -0.6433
   48MOL   C14118095   5.444   0.248   4.932  0.1703  0.7640 -0.0215
   48MOL   H14218096   5.103   7.314   5.027  1.8250 -0.2581  0.9074
   48MOL   H14318097   5.082   7.443   5.144 -1.0577 -0.3175  0.1685
   48MOL   H14418098   5.311   7.446   4.944  0.3997  1.2459 -0.2495
   48MOL   H14518099   5.371   7.652   4.896 -0.0811 -0.6193 -0.2497
   48MOL   H14618100   5.474   7.610   5.029  0.5811  1.4048 -0.6642
   48MOL   H14718101   5.441   0.027   5.135  1.0600  0.5275 -0.6058
   48MOL   H14818102   5.280   0.063   5.050 -0.2073 -0.4264 -0.3815
   48MOL   H14918103   5.546   0.069   4.908 -0.1215 -0.2539 -1.5891
   48MOL   H15018104   5.397   0.061   4.830 -1.3337 -1.2176  0.4735
   48MOL   H15118105   5.511   0.283   5.011  1.2429  1.1606 -1.0829
   48MOL   H15218106   5.466   0.295   4.836 -0.5163 -0.3133 -0.7171
   48MOL   H15318107   5.345   0.287   4.957  0.0103  1.0329 -1.0491
   48MOL   C15418108   5.367   7.385   5.134 -0.0702 -0.3837 -0.2914
   48MOL   C15518109   5.377   7.226   5.124  0.9343 -0.3976  0.0126
   48MOL   O15618110   5.442   7.173   5.235  0.0580  0.3482 -0.1116
   48MOL   C15718111   5.368   7.145   5.353  0.1302  0.7226  0.5453
   48MOL   C15818112   5.294   7.011   5.346 -0.0508 -0.2445 -0.5133
   48MOL   C15918113   5.226   6.973   5.476  0.5425 -0.5017 -0.2395
   48MOL   C16018114   5.327   6.933   5.585  0.1231 -0.0245 -0.1362
   48MOL   H16118115   5.350   7.407   5.240  0.4674 -1.5231  0.0435
   48MOL   H16218116   5.468   7.424   5.127  0.3064 -1.1509  0.6914
   48MOL   H16318117   5.282   7.175   5.109  1.2063 -0.9845  0.2796
   48MOL   H16418118   5.433   7.149   5.440  2.0636 -0.5785 -0.7834
   48MOL   H16518119   5.290   7.221   5.354 -2.3443 -1.7095 -0.0586
   48MOL   H16618120   5.371   6.944   5.308  0.0773  0.9289 -2.4065
   48MOL   H16718121   5.214   7.016   5.272 -0.4696  0.6902 -0.0013
   48MOL   H16818122   5.154   7.047   5.511  0.0794 -1.0110 -0.1065
   48MOL   H16918123   5.168   6.882   5.458 -1.7757  0.9265 -0.2195
   48MOL   H17018124   5.277   6.877   5.664  1.2225  1.4821  1.6601
   48MOL   H17118125   5.398   6.861   5.547 -0.5579 -0.7564 -0.0446
   48MOL   H17218126   5.379   7.021   5.622 -0.3284  0.8847 -1.6293
   48MOL   C17318127   5.468   7.200   5.007 -0.5816  0.7056  0.4962
   48MOL   C17418128   5.501   7.049   4.978 -0.3207  0.2123  0.2582
   48MOL   O17518129   5.382   6.990   4.931 -0.5892  0.6726 -0.1423
   48MOL   C17618130   5.337   6.875   5.002 -0.1885  0.5205 -0.1363
   48MOL   C17718131   5.194   6.828   4.957 -0.1303  0.0157 -0.0939
   48MOL   C17818132   5.194   6.799   4.810  0.0342 -0.8944  0.0874
   48MOL   C17918133   5.274   6.669   4.765 -0.3631  0.4195 -0.3374
   48MOL   H18018134   5.562   7.245   5.038  0.3331 -1.1446  0.4439
   48MOL   H18118135   5.436   7.254   4.917 -0.5077 -1.2431 -0.7137
   48MOL   H18218136   5.532   7.007   5.074  0.7530 -0.7873 -0.5127
   48MOL   H18318137   5.347   6.891   5.109  1.3174 -1.2211 -0.0112
   48MOL   H18418138   5.399   6.786   4.995 -0.7012 -0.0118  1.8901
   48MOL   H18518139   5.134   6.915   4.980  0.3483  0.2615  0.2358
   48MOL   H18618140   5.160   6.741   5.012  1.7629  0.4091  1.7860
   48MOL   H18718141   5.087   6.804   4.789 -0.1778  0.9467  1.4948
   48MOL   H18818142   5.222   6.888   4.755 -0.8189 -0.9796 -0.5048
   48MOL   H18918143   5.235   6.583   4.819 -1.8768  0.9106 -0.6317
   48MOL   H19018144   5.271   6.654   4.657  0.3535  1.4587 -0.5201
   48MOL   H19118145   5.379   6.669   4.795 -0.3053 -0.2990 -0.5318
   48MOL   C19218146   5.608   7.018   4.873  0.1189  0.4577 -1.1743
   48MOL   C19318147   5.748   7.024   4.928 -0.5550 -0.3343 -0.6155
   48MOL   O19418148   5.770   6.908   5.005 -0.1658  0.3081  0.1698
   48MOL   C19518149   5.787   6.939   5.146  0.0303  0.1575 -0.6809
   48MOL   C19618150   5.830   6.818   5.225 -0.2853  0.4081 -0.4127
   48MOL   C19718151   5.832   6.844   5.372  0.4068  0.0116  0.4041
   48MOL   C19818152   5.690   6.885   5.422 -0.1878  0.0241  0.1633
   48MOL   H19918153   5.593   7.092   4.793  1.3117  1.9526 -0.0490
   48MOL   H20018154   5.586   6.922   4.825  2.8542 -2.1016  2.4865
   48MOL   H20118155   5.770   7.122   4.971 -0.8072 -0.4130 -0.3111
   48MOL   H20218156   5.699   6.990   5.185  0.7542  0.8366  0.0810
   48MOL   H20318157   5.867   7.012   5.154  0.8009 -0.9709  2.7006
   48MOL   H20418158   5.772   6.728   5.203  0.4343  0.4167 -2.4963
   48MOL   H20518159   5.934   6.788   5.210  0.1307  1.3661  0.4888
   48MOL   H20618160   5.898   6.925   5.403  1.7787 -0.3710 -1.4926
   48MOL   H20718161   5.853   6.744   5.411 -1.1952 -0.9744 -1.1919
   48MOL   H20818162   5.601   6.838   5.380  0.3796 -1.4495  0.5648
   48MOL   H20918163   5.681   6.884   5.531 -0.4920 -1.2966  0.1417
   48MOL   H21018164   5.671   6.989   5.397 -0.9374 -0.5635 -1.7832
   48MOL   C21118165   5.848   7.003   4.809  0.4326 -0.0279 -0.0789
   48MOL   C21218166   5.850   7.106   4.690  0.5374  0.2308 -0.0173
   48MOL   O21318167   5.895   7.232   4.750 -0.4669 -0.4000  0.5782
   48MOL   C21418168   5.787   7.318   4.766 -0.2573 -0.0955 -0.4423
   48MOL   C21518169   5.841   7.433   4.850 -0.2709 -0.1573 -0.7996
   48MOL   C21618170   5.737   7.534   4.881  0.5625 -0.1841 -0.3253
   48MOL   C21718171   5.781   7.651   4.977  0.2315 -0.1060 -0.5006
   48MOL   H21818172   5.820   6.906   4.767 -1.4778  0.4044  0.1422
   48MOL   H21918173   5.950   6.992   4.845  0.3571  0.2863  0.2341
   48MOL   H22018174   5.753   7.116   4.640 -0.8185 -0.2011  2.4230
   48MOL   H22118175   5.770   7.354   4.664 -0.0339  0.8557 -0.1495
   48MOL   H22218176   5.692   7.284   4.806 -0.6583  0.7516 -0.6668
   48MOL   H22318177   5.881   7.403   4.947 -4.4497  1.1769  1.4723
   48MOL   H22418178   5.917   7.481   4.789  0.3559 -0.0634  0.0418
   48MOL   H22518179   5.653   7.479   4.924 -0.0203 -1.7248 -3.2511
   48MOL   H22618180   5.697   7.573   4.787 -0.2569 -2.2629 -0.8899
   48MOL   H22718181   5.863   7.715   4.946 -1.2967  1.5489 -1.2202
   48MOL   H22818182   5.814   7.624   5.078 -2.2813  0.9991  0.6543
   48MOL   H22918183   5.700   7.719   5.003 -0.4201 -1.1447  0.2072
   48MOL   C23018184   5.970   7.084   4.590 -0.6752 -0.6616 -0.3826
   48MOL   C23118185   5.979   7.186   4.475  0.6203 -0.6227 -0.0489
   48MOL   O23218186   6.098   7.159   4.403 -0.0338  0.3303  0.6359
   48MOL   C23318187   6.217   7.218   4.456  0.6887 -0.2221  0.5848
   48MOL   C23418188   6.301   7.275   4.339 -0.4551  0.6530 -0.1528
   48MOL   C23518189   6.256   7.410   4.286 -0.2571 -0.5127 -0.4696
   48MOL   C23618190   6.321   7.460   4.154 -0.3473  0.9223  0.3065
   48MOL   H23718191   5.971   6.984   4.547 -1.3347  0.2159 -2.5094
   48MOL   H23818192   6.063   7.080   4.647 -0.6862 -0.0860 -0.3283
   48MOL   H23918193   5.983   7.289   4.510  0.2450 -0.4145 -0.6097
   48MOL   H24018194   6.190   7.308   4.512  0.1472 -0.3262  0.4922
   48MOL   H24118195   6.258   7.135   4.515  1.2298 -1.0085 -0.8829
   48MOL   H24218196   6.406   7.272   4.370 -0.2507  1.8053 -0.7284
   48MOL   H24318197   6.288   7.208   4.254  1.0999  0.6265 -0.3864
   48MOL   H24418198   6.266   7.482   4.367 -0.8172 -0.2822 -0.6005
   48MOL   H24518199   6.148   7.413   4.272 -0.3379 -1.8751 -0.1593
   48MOL   H24618200   6.428   7.464   4.175  0.0797  2.9249 -2.0226
   48MOL   H24718201   6.285   7.559   4.123 -2.1529  0.3798  0.6251
   48MOL   H24818202   6.310   7.393   4.069  2.5205 -0.5022  1.0055
   48MOL   C24918203   5.864   7.177   4.375 -0.1108  0.0599  0.5948
   48MOL   C25018204   5.861   7.301   4.276 -0.2530  0.5641  0.5069
   48MOL   O25118205   5.844   7.419   4.361  0.4143 -0.0062  0.3781
   48MOL   C25218206   5.871   7.540   4.301 -0.7679  0.0580 -0.1209
   48MOL   C25318207   5.925   7.642   4.406  0.3448 -0.4621 -0.1606
   48MOL   C25418208   5.819   7.681   4.516  0.2719  0.3701 -0.5249
   48MOL   C25518209   5.857   0.003   4.609  0.2232  0.0463  0.2617
   48MOL   H25618210   5.772   7.189   4.433  0.6350 -0.1934  1.8334
   48MOL   H25718211   5.881   7.085   4.319  2.5959  1.1452 -0.4654
   48MOL   H25818212   5.952   7.307   4.216  0.1439  0.2087  1.0689
   48MOL   H25918213   5.783   7.577   4.249 -0.1034 -0.2418 -1.4963
   48MOL   H26018214   5.953   7.527   4.230  1.2386  1.7244  1.7998
   48MOL   H26118215   6.015   7.595   4.445  0.6669  1.0596  0.9897
   48MOL   H26218216   5.948   7.738   4.360 -0.1782  0.5378  1.5934
   48MOL   H26318217   5.724   7.704   4.469  0.0754 -1.4003 -1.0368
   48MOL   H26418218   5.788   7.592   4.571 -0.7208  0.0829 -1.5290
   48MOL   H26518219   5.873   0.098   4.557  1.3387 -0.6411 -0.6838
   48MOL   H26618220   5.949   7.781   4.662 -0.5103  0.6551  1.8291
   48MOL   H26718221   5.778   0.026   4.680 -0.7674  0.1509 -0.8458
   48MOL   C26818222   5.745   7.290   4.177  0.1794 -0.5908  0.0529
   48MOL   C26918223   5.766   7.192   4.066 -0.5472 -0.0241  0.6329
   48MOL   O27018224   5.738   7.063   4.123  1.0775 -0.0269  0.1839
   48MOL   C27118225   5.793   6.948   4.055 -0.0800 -0.0614 -0.1364
   48MOL   C27218226   5.760   6.826   4.141 -0.1612  0.3069 -0.6536
   48MOL   C27318227   5.831   6.696   4.086 -0.4462  0.3874  0.2556
   48MOL   C27418228   5.810   6.563   4.161  0.1574 -0.0614  0.8035
   48MOL   H27518229   5.668   7.269   4.250  1.8586 -1.9936  1.4740
   48MOL   H27618230   5.716   7.388   4.138 -0.1708 -1.0658 -0.9160
   48MOL   H27718231   5.872   7.187   4.038  0.0218  0.9381  2.5222
   48MOL   H27818232   5.757   6.949   3.953 -2.3992 -1.0004  0.6452
   48MOL   H27918233   5.902   6.948   4.049 -0.0612 -2.5361 -0.1225
   48MOL   H28018234   5.785   6.840   4.246 -1.2817 -0.9357 -0.1963
   48MOL   H28118235   5.651   6.821   4.132 -0.1823 -1.3566  0.2807
   48MOL   H28218236   5.937   6.721   4.087 -0.4275  0.3232 -0.1796
   48MOL   H28318237   5.802   6.686   3.981 -0.8589  0.9493  0.3133
   48MOL   H28418238   5.891   6.494   4.136 -2.0933 -1.9115 -1.6481
   48MOL   H28518239   5.715   6.517   4.133  0.6467  0.9748 -2.6957
   48MOL   H28618240   5.802   6.583   4.268 -2.8029 -3.0178  1.2268
   48MOL   C28718241   5.674   7.223   3.945  0.5334  0.1759 -0.0701
   48MOL   C28818242   5.723   7.349   3.867 -0.3690 -0.0965 -0.1891
   48MOL   O28918243   5.622   7.408   3.782  0.3324 -0.2290  0.0137
   48MOL   C29018244   5.522   7.473   3.854  0.1967  0.2527 -0.0589
   48MOL   C29118245   5.414   7.520   3.762 -0.3229  0.0197 -0.3239
   48MOL   C29218246   5.324   7.413   3.696  0.4999  0.4459  0.0051
   48MOL   C29318247   5.217   7.483   3.604 -0.9671 -0.0755  0.0839
   48MOL   H29418248   5.568   7.224   3.970  0.6018 -1.9702  0.4508
   48MOL   H29518249   5.682   7.144   3.870  1.4811 -0.5696  0.7920
   48MOL   H29618250   5.757   7.423   3.939  3.6470 -1.6449 -0.3273
   48MOL   H29718251   5.483   7.410   3.934  1.1174  2.1366  1.9153
   48MOL   H29818252   5.541   7.562   3.914  0.2749 -0.4351  0.9531
   48MOL   H29918253   5.455   7.589   3.688 -2.0936  0.4985 -0.8601
   48MOL   H30018254   5.345   7.583   3.817 -0.0293 -1.0537  1.3086
   48MOL   H30118255   5.281   7.349   3.773 -0.2067 -1.4540 -1.9500
   48MOL   H30218256   5.383   7.335   3.648 -0.4347 -2.2587  3.0727
   48MOL   H30318257   5.260   7.510   3.508  1.7676 -2.3865  0.5971
   48MOL   H30418258   5.155   7.394   3.589  0.2747 -1.5019  2.9399
   48MOL   H30518259   5.171   7.571   3.649  0.1491  1.1423 -1.0922
   48MOL   C30618260   5.848   7.326   3.782  0.1998  0.0817  0.4756
   48MOL   C30718261   5.907   7.451   3.724 -0.1692 -0.5564 -1.2441
   48MOL   O30818262   5.976   7.429   3.605 -0.1572  0.4413  0.4211
   48MOL   C30918263   5.884   7.419   3.488 -0.6152  0.5143 -0.0408
   48MOL   C31018264   5.966   7.368   3.370  0.1008 -1.1134 -0.2138
   48MOL   C31118265   5.881   7.366   3.245  0.8010 -0.8254  0.6037
   48MOL   C31218266   5.971   7.348   3.120 -0.1669  0.1144 -0.3680
   48MOL   H31318267   5.921   7.271   3.842 -1.1299 -0.8498  1.2839
   48MOL   H31418268   5.813   7.264   3.699 -3.0891  1.2372  0.9166
   48MOL   H31518269   5.826   7.520   3.700  0.8216  1.8324  1.9414
   48MOL   H31618270   5.847   7.520   3.472  1.8065  1.0391 -2.6512
   48MOL   H31718271   5.792   7.362   3.500 -0.0043 -0.9036 -1.9915
   48MOL   H31818272   6.006   7.267   3.378 -1.5794 -1.8088 -0.4080
   48MOL   H31918273   6.050   7.433   3.348 -0.3741 -1.0660 -1.9102
   48MOL   H32018274   5.808   7.284   3.250 -1.8781  1.4439 -0.0184
   48MOL   H32118275   5.839   7.463   3.221  2.8325  0.2821  1.4467
   48MOL   H32218276   6.002   7.243   3.125 -0.4624  0.0907  1.3093
   48MOL   H32318277   6.058   7.413   3.121 -0.1222  0.0435  0.5082
   48MOL   H32418278   5.914   7.352   3.027  0.0938 -0.2739 -0.5491
   48MOL   C32518279   5.989   7.526   3.831 -0.0460 -0.5225  0.2938
   48MOL   C32618280   6.050   7.662   3.793 -0.5538  0.1758  0.0439
   48MOL   O32718281   5.944   7.753   3.789 -0.5657  0.3047 -0.3449
   48MOL   C32818282   5.909   7.790   3.660  0.3150 -0.3775  0.1898
   48MOL   C32918283   5.803   0.091   3.679 -0.3453  0.7028 -0.2830
   48MOL   C33018284   5.665   0.040   3.734 -0.3649  0.6071  0.3870
   48MOL   C33118285   5.558   0.149   3.723 -0.0689  0.5945  0.6114
   48MOL   H33218286   6.074   7.467   3.865 -0.2103  0.0590  1.7405
   48MOL   H33318287   5.929   7.533   3.922 -2.2364  2.3244 -1.2984
   48MOL   H33418288   6.100   7.667   3.696  1.3198 -1.0845  0.9097
   48MOL   H33518289   5.865   7.709   3.601  1.0976 -1.2666  0.8171
   48MOL   H33618290   5.995   0.026   3.605 -0.5518 -0.9202 -1.5820
   48MOL   H33718291   5.828   0.171   3.749  1.6755 -0.1457 -0.0004
   48MOL   H33818292   5.794   0.150   3.588  1.7726  1.9851  0.3116
   48MOL   H33918293   5.668   0.011   3.839  2.5359  2.4486  0.8583
   48MOL   H34018294   5.622   7.758   3.679  1.8755  0.8237 -1.7681
   48MOL   H34118295   5.530   0.165   3.619 -0.2915  3.1826  1.0331
   48MOL   H34218296   5.591   0.241   3.771 -0.1530  0.9840 -0.0709
   48MOL   H34318297   5.468   0.119   3.777 -1.8342  1.3556 -1.7952
   48MOL   C34418298   6.144   7.711   3.904  0.0188  0.2519  0.3755
   48MOL   C34518299   6.211   0.041   3.867 -0.2354  0.1951  0.7874
   48MOL   O34618300   6.304   7.797   3.767  0.2020  0.6595 -0.3148
   48MOL   C34718301   6.318   0.062   3.644 -0.3683 -0.2387 -0.2364
   48MOL   C34818302   6.410   0.186   3.669  0.2666  0.1150 -0.2219
   48MOL   C34918303   6.462   0.245   3.535  0.6995 -0.5049 -0.8820
   48MOL   C35018304   6.508   0.389   3.543 -0.1216 -0.5662  0.0451
   48MOL   H35118305   6.091   7.724   3.999  1.2192 -2.0501  1.3887
   48MOL   H35218306   6.221   7.639   3.931 -0.5478 -0.9784 -1.2251
   48MOL   H35318307   6.140   0.108   3.818 -0.1326 -0.9000 -0.9407
   48MOL   H35418308   6.220   0.086   3.601 -0.4172  0.4866  0.2687
   48MOL   H35518309   6.376   0.001   3.574  0.6629 -0.6385  0.9446
   48MOL   H35618310   6.494   0.162   3.734 -0.4566  0.7009  0.9462
   48MOL   H35718311   6.355   0.266   3.719  0.9324 -0.3222  1.2591
   48MOL   H35818312   6.549   0.187   3.506  0.3628 -0.5127 -1.9086
   48MOL   H35918313   6.383   0.228   3.461  0.4843  1.7003 -1.1884
   48MOL   H36018314   6.528   0.433   3.445  0.0578  1.0784  0.8148
   48MOL   H36118315   6.607   0.387   3.588 -0.6389 -1.9760  1.1537
   48MOL   H36218316   6.442   0.460   3.593 -0.3163  0.1371 -1.1985
   48MOL   C36318317   6.288   0.118   3.981  0.2125 -0.0546  0.2949
   48MOL   C36418318   6.192   0.159   4.093 -0.0293 -0.3568 -0.3211
   48MOL   O36518319   6.269   0.226   4.194 -0.2148  0.0436 -0.1891
   48MOL   C36618320   6.193   0.302   4.286  0.7927 -0.7537 -0.0239
   48MOL   C36718321   6.118   0.221   4.389  0.6415 -0.4503  0.0862
   48MOL   C36818322   6.064   0.313   4.497  0.5091  0.1689  0.4145
   48MOL   C36918323   6.156   0.323   4.615 -0.4259 -0.4812 -0.9188
   48MOL   H37018324   6.330   0.201   3.923  1.2660 -2.1552 -2.0250
   48MOL   H37118325   6.378   0.065   4.011  1.0483  0.0904 -1.8889
   48MOL   H37218326   6.123   0.088   4.139  0.5690 -1.2302 -0.7537
   48MOL   H37318327   6.129   0.361   4.220  2.2936 -0.8656 -1.6359
   48MOL   H37418328   6.265   0.369   4.332  0.3636  0.3927 -1.0057
   48MOL   H37518329   6.180   0.141   4.429  1.5878 -0.1580 -0.7673
   48MOL   H37618330   6.028   0.178   4.344  0.6559 -0.5582  0.1631
   48MOL   H37718331   5.965   0.278   4.524  1.7547 -3.1600  0.9625
   48MOL   H37818332   6.043   0.411   4.455 -0.9149 -0.7961 -1.2023
   48MOL   H37918333   6.161   0.219   4.647  1.2563 -0.3641 -0.7244
   48MOL   H38018334   6.256   0.364   4.598 -0.3261 -0.3275  0.0045
   48MOL   H38118335   6.098   0.371   4.693 -0.3922 -2.5447  0.4014
   48MOL   H38218336   6.125   0.233   4.049 -0.0620  0.4737  1.1013
   49MOL     C118337   3.705   1.651   1.580  0.0009  0.4522  0.4551
   49MOL     C218338   3.564   1.587   1.578  0.1351  0.3167 -0.4424
   49MOL     O318339   3.500   1.597   1.704 -0.2784  0.3459  0.1862
   49MOL     C418340   3.547   1.500   1.797  0.2717  0.2112 -0.2219
   49MOL     C518341   3.467   1.516   1.926 -1.0021  0.6756 -0.0678
   49MOL     C618342   3.519   1.412   2.035 -1.1284 -0.5436  0.1080
   49MOL     C718343   3.438   1.446   2.164 -0.4762  0.9793  0.6407
   49MOL     H818344   3.767   1.600   1.653  0.4108  0.1676 -0.0952
   49MOL     H918345   3.752   1.646   1.482 -1.7625  1.9520 -0.5108
   49MOL    H1018346   3.577   1.481   1.557  0.1754  0.2256  0.0342
   49MOL    H1118347   3.542   1.404   1.746  2.7374 -0.6929  1.1714
   49MOL    H1218348   3.651   1.519   1.822 -0.0573 -0.2187  1.5340
   49MOL    H1318349   3.362   1.500   1.903 -0.7993 -0.5055 -0.2186
   49MOL    H1418350   3.486   1.617   1.963  1.0297  0.4433 -0.4086
   49MOL    H1518351   3.626   1.415   2.059 -1.4801 -1.9511  1.9271
   49MOL    H1618352   3.505   1.310   2.000 -1.2668 -0.0085 -1.4172
   49MOL    H1718353   3.487   1.536   2.203  0.1719  0.8002  0.2543
   49MOL    H1818354   3.433   1.376   2.247  0.0916  3.1663  2.5886
   49MOL    H1918355   3.338   1.481   2.139 -1.2577 -2.3237 -1.0893
   49MOL    H2018356   3.708   1.757   1.605 -0.2523  0.7806 -0.8778
   49MOL    C2118357   3.480   1.662   1.476  0.6174  0.3734 -0.2835
   49MOL    C2218358   3.332   1.636   1.469 -0.5626 -0.6249  0.1281
   49MOL    O2318359   3.273   1.751   1.403  0.7106  0.7931 -0.5111
   49MOL    C2418360   3.180   1.829   1.480  0.9785  0.4061 -0.1791
   49MOL    C2518361   3.130   1.955   1.407  0.1026  0.3350 -0.3453
   49MOL    C2618362   3.029   2.045   1.485 -0.0890  0.1347  0.7163
   49MOL    C2718363   3.008   2.181   1.429  0.1982  0.2571  0.5087
   49MOL    H2818364   3.522   1.646   1.377 -0.1127 -2.4190 -0.1926
   49MOL    H2918365   3.494   1.768   1.499  3.4639 -0.1127  0.3633
   49MOL    H3018366   3.299   1.641   1.573  0.5335 -3.7937  0.6889
   49MOL    H3118367   3.215   1.861   1.578  1.8227  1.8504 -0.9316
   49MOL    H3218368   3.095   1.763   1.496  0.5315  0.4491 -2.2158
   49MOL    H3318369   3.216   2.019   1.388  1.2332 -0.9382  0.4212
   49MOL    H3418370   3.093   1.920   1.311  0.9772 -0.1758 -0.5015
   49MOL    H3518371   2.933   1.994   1.493  0.1821 -0.3333  0.9767
   49MOL    H3618372   3.057   2.061   1.589  1.2761 -1.1578  0.5655
   49MOL    H3718373   2.927   2.231   1.482 -0.5811  3.0405 -3.0550
   49MOL    H3818374   3.096   2.241   1.453  0.1467 -0.0156  1.3951
   49MOL    H3918375   2.984   2.193   1.323 -2.0353  1.2758  1.0967
   49MOL    C4018376   3.289   1.506   1.397 -0.5082  0.5466 -0.9477
   49MOL    C4118377   3.138   1.473   1.413 -0.0765  1.1061 -0.8376
   49MOL    O4218378   3.134   1.373   1.515 -0.2189 -0.2286 -0.8511
   49MOL    C4318379   3.139   1.416   1.650 -0.0536 -0.2577  0.4630
   49MOL    C4418380   3.098   1.298   1.737  0.1312 -0.1600  0.2714
   49MOL    C4518381   3.128   1.316   1.889 -0.1473 -0.1490 -0.6480
   49MOL    C4618382   3.048   1.206   1.965 -0.3575  0.0669  0.1850
   49MOL    H4718383   3.356   1.425   1.427  0.5219  1.4363 -0.7830
   49MOL    H4818384   3.327   1.517   1.295  0.0932 -1.6677 -0.9936
   49MOL    H4918385   3.078   1.562   1.433  0.6168  1.6692 -1.2355
   49MOL    H5018386   3.072   1.499   1.670 -0.0250  0.1748 -1.1505
   49MOL    H5118387   3.243   1.444   1.667 -0.2822 -0.8700  2.9813
   49MOL    H5218388   3.148   1.203   1.718 -1.0539 -0.7592  0.0975
   49MOL    H5318389   2.993   1.272   1.724 -0.0634 -0.4616  2.2004
   49MOL    H5418390   3.089   1.415   1.915 -0.2893 -0.2216 -0.5885
   49MOL    H5518391   3.235   1.312   1.909 -0.2350  2.9217  0.7388
   49MOL    H5618392   3.081   1.104   1.945 -1.7842 -0.4350  0.3843
   49MOL    H5718393   3.060   1.222   2.072  1.2101  0.6864 -0.0677
   49MOL    H5818394   2.942   1.216   1.943 -0.4493 -1.4448 -0.1174
   49MOL    C5918395   3.073   1.397   1.298 -0.2990  0.1578 -0.2847
   49MOL    C6018396   3.027   1.479   1.184  0.2844 -0.5939  0.8189
   49MOL    O6118397   3.148   1.498   1.116 -0.1420 -0.0270 -0.2209
   49MOL    C6218398   3.153   1.626   1.053 -0.4802  0.5378  0.2844
   49MOL    C6318399   3.291   1.649   1.002  0.3143 -0.3950  0.3973
   49MOL    C6418400   3.307   1.786   0.933 -0.0756  0.5541 -0.0111
   49MOL    C6518401   3.347   1.890   1.034 -0.0561 -0.4712 -0.6674
   49MOL    H6618402   3.128   1.313   1.257  2.4190  0.8681  1.7641
   49MOL    H6718403   2.982   1.360   1.347 -0.5013  0.6269 -0.3039
   49MOL    H6818404   2.981   1.575   1.209  1.5314  0.3464 -0.3981
   49MOL    H6918405   3.133   1.698   1.132 -0.1256  0.8021  0.1375
   49MOL    H7018406   3.082   1.641   0.972 -0.8353 -0.1619  0.4644
   49MOL    H7118407   3.366   1.632   1.080 -1.1537  1.6313  2.3090
   49MOL    H7218408   3.322   1.578   0.925 -0.4417 -0.7225  0.3952
   49MOL    H7318409   3.393   1.772   0.868  1.5014 -1.4608  2.4062
   49MOL    H7418410   3.227   1.820   0.867  0.8010  1.9368 -0.3943
   49MOL    H7518411   3.439   1.867   1.088 -0.7163 -1.8074 -0.0855
   49MOL    H7618412   3.360   1.985   0.982 -0.0144 -0.9171 -1.4740
   49MOL    H7718413   3.274   1.888   1.115 -0.5688  2.1318 -1.0162
   49MOL    C7818414   2.932   1.384   1.093  0.0646 -0.1759 -1.1986
   49MOL    C7918415   2.784   1.422   1.132  0.9294 -0.0035  0.5897
   49MOL    O8018416   2.760   1.405   1.267 -0.7483  0.6084  0.2183
   49MOL    C8118417   2.679   1.506   1.330 -0.9145 -0.0107 -0.1836
   49MOL    C8218418   2.651   1.455   1.473 -0.2954 -0.3089  0.8289
   49MOL    C8318419   2.775   1.428   1.561  0.2671 -0.3034 -0.7779
   49MOL    C8418420   2.726   1.432   1.710  0.5705  0.5526  0.0283
   49MOL    H8518421   2.951   1.280   1.119  0.3191  0.0537 -0.4504
   49MOL    H8618422   2.951   1.393   0.986  0.2295 -0.5463 -1.2012
   49MOL    H8718423   2.781   1.530   1.117 -1.2029 -0.0344  0.6392
   49MOL    H8818424   2.582   1.517   1.282 -0.1634 -0.2426 -1.8002
   49MOL    H8918425   2.747   1.591   1.323 -0.0243 -0.7330 -0.4347
   49MOL    H9018426   2.596   1.526   1.534 -0.4562 -1.3341  1.9043
   49MOL    H9118427   2.588   1.366   1.465  0.9753 -1.0827 -0.8961
   49MOL    H9218428   2.852   1.503   1.543 -0.3245  0.1945 -1.2621
   49MOL    H9318429   2.819   1.329   1.547 -0.1471 -0.7432  0.9836
   49MOL    H9418430   2.694   1.534   1.730  2.5006  0.8581  1.6411
   49MOL    H9518431   2.656   1.351   1.733  2.5403 -1.4175 -0.7798
   49MOL    H9618432   2.810   1.401   1.772  0.4788 -0.1340 -0.1815
   49MOL    C9718433   2.678   1.372   1.044 -0.0098  0.5516 -0.6327
   49MOL    C9818434   2.646   1.444   0.907 -0.0073  0.4855 -0.3334
   49MOL    O9918435   2.760   1.436   0.819  0.2764  0.5427  0.2892
   49MOL   C10018436   2.840   1.554   0.813 -0.0157  0.4701  0.5526
   49MOL   C10118437   2.946   1.509   0.716  0.5202  0.0714  0.0931
   49MOL   C10218438   2.879   1.463   0.584 -0.0363 -0.2335 -0.5600
   49MOL   C10318439   2.985   1.438   0.476 -0.3788 -0.3363  0.2806
   49MOL   H10418440   2.587   1.374   1.103  0.0503 -2.3637 -0.3557
   49MOL   H10518441   2.683   1.264   1.030 -0.6820  0.1637  1.8512
   49MOL   H10618442   2.608   1.545   0.921 -1.0945 -0.1064  1.0655
   49MOL   H10718443   2.898   1.570   0.903 -0.5851 -1.7133  1.3561
   49MOL   H10818444   2.777   1.637   0.781 -1.5689  0.7394  4.0353
   49MOL   H10918445   3.007   1.428   0.757  0.8945  1.1078  1.6259
   49MOL   H11018446   3.015   1.590   0.694 -1.2398  1.6818  0.3741
   49MOL   H11118447   2.805   1.534   0.547 -0.1236 -0.5587 -1.0034
   49MOL   H11218448   2.819   1.372   0.586  0.0793 -0.3155 -0.8021
   49MOL   H11318449   2.946   1.375   0.397  0.7695 -1.7095  0.7903
   49MOL   H11418450   3.027   1.524   0.423 -1.1404  0.4508  0.9457
   49MOL   H11518451   3.070   1.380   0.511  0.6940 -1.5525 -4.0204
   49MOL   C11618452   2.532   1.363   0.844  0.2713  0.0581 -0.0619
   49MOL   C11718453   2.452   1.430   0.730 -0.4841 -0.7301 -0.8470
   49MOL   O11818454   2.408   1.333   0.632  0.4680  0.2968  0.0583
   49MOL   C11918455   2.491   1.332   0.507 -0.0204 -0.0374  0.4890
   49MOL   C12018456   2.407   1.271   0.394  0.0712  0.9812 -0.2382
   49MOL   C12118457   2.283   1.343   0.366 -0.5150 -0.3634 -0.0976
   49MOL   C12218458   2.220   1.306   0.235 -0.1900 -0.0163  0.9286
   49MOL   H12318459   2.562   1.264   0.811  1.3917  0.1426  0.6669
   49MOL   H12418460   2.461   1.336   0.921  0.6638  1.7567  0.9443
   49MOL   H12518461   2.526   1.493   0.679 -1.2402  0.2016 -0.8099
   49MOL   H12618462   2.571   1.260   0.522 -1.1575 -1.6753 -1.0873
   49MOL   H12718463   2.531   1.428   0.473 -2.2091  0.3737 -1.0375
   49MOL   H12818464   2.406   1.164   0.412  1.4817  0.6583 -1.9413
   49MOL   H12918465   2.464   1.263   0.301  0.8564 -2.2547  0.4749
   49MOL   H13018466   2.204   1.329   0.440  0.9281 -0.7529  1.3994
   49MOL   H13118467   2.300   1.451   0.359  2.7881 -0.7892  0.6053
   49MOL   H13218468   2.278   1.336   0.149 -2.7497  0.0613 -0.8307
   49MOL   H13318469   2.129   1.367   0.227  0.7886  1.1056 -2.0347
   49MOL   H13418470   2.194   1.200   0.230 -1.1269  0.3413 -2.5471
   49MOL   C13518471   2.340   1.520   0.778  0.7328 -0.5353 -0.4174
   49MOL   C13618472   2.291   1.627   0.671 -0.3021  0.6644 -0.0375
   49MOL   O13718473   2.176   1.698   0.731  0.9240  0.2665  0.3380
   49MOL   C13818474   2.057   1.621   0.752 -0.0084 -0.3307  0.6785
   49MOL   C13918475   1.934   1.721   0.752 -0.1154 -0.4804 -0.6298
   49MOL   C14018476   1.939   1.819   0.879 -0.8537 -0.5585 -0.1706
   49MOL   C14118477   1.809   1.904   0.890  0.0575 -0.2051 -0.1083
   49MOL   H14218478   2.365   1.569   0.872 -0.9219  0.8443 -0.6686
   49MOL   H14318479   2.258   1.451   0.802 -0.6114  1.2853  0.3593
   49MOL   H14418480   2.271   1.575   0.578  2.5764  1.4432 -1.1456
   49MOL   H14518481   2.063   1.570   0.849 -1.4986  0.0131  0.9747
   49MOL   H14618482   2.033   1.555   0.669 -1.8779  0.1488  0.8154
   49MOL   H14718483   1.836   1.673   0.755  0.0509 -1.1570 -3.9316
   49MOL   H14818484   1.939   1.776   0.658  1.2996 -0.5930 -0.6285
   49MOL   H14918485   1.968   1.765   0.969 -2.1171 -0.4995  0.2806
   49MOL   H15018486   2.022   1.890   0.873 -0.2910 -1.0843  1.1025
   49MOL   H15118487   1.787   1.934   0.787 -0.1184  0.2607  0.0618
   49MOL   H15218488   1.729   1.840   0.926 -0.4943  0.1739 -0.6426
   49MOL   H15318489   1.820   1.983   0.965 -0.3494  0.1263 -0.3954
   49MOL   C15418490   2.392   1.745   0.655 -0.1616 -0.8029 -0.1226
   49MOL   C15518491   2.367   1.830   0.524 -1.1659  0.4377 -0.3322
   49MOL   O15618492   2.395   1.740   0.417 -0.3116 -0.6096 -0.0387
   49MOL   C15718493   2.401   1.789   0.286  0.0222 -0.0728 -0.2677
   49MOL   C15818494   2.412   1.677   0.182  0.0055 -0.2062  0.2209
   49MOL   C15918495   2.410   1.722   0.035 -0.5336  0.1441  0.3356
   49MOL   C16018496   2.344   1.617   7.742 -0.7755 -0.3385  0.0048
   49MOL   H16118497   2.495   1.709   0.655  0.1850  0.1846  0.5031
   49MOL   H16218498   2.390   1.808   0.744 -1.2779 -1.3230  0.2344
   49MOL   H16318499   2.266   1.869   0.509 -1.7029 -0.7535  0.1819
   49MOL   H16418500   2.307   1.838   0.258  0.7161  0.5719 -1.5561
   49MOL   H16518501   2.484   1.858   0.269 -0.8536  1.3639  1.2044
   49MOL   H16618502   2.328   1.611   0.208  0.5131 -1.0524 -0.2632
   49MOL   H16718503   2.495   1.612   0.210 -2.7543 -3.6265  0.8776
   49MOL   H16818504   2.359   1.818   0.029  1.1152  0.9845 -0.3097
   49MOL   H16918505   2.513   1.743   0.006 -0.7777 -1.9439 -2.2021
   49MOL   H17018506   2.242   1.606   7.778 -0.6900 -2.5337 -0.3395
   49MOL   H17118507   2.356   1.648   7.638 -0.9591  4.3607  1.2689
   49MOL   H17218508   2.389   1.518   7.756  0.4437 -0.2534 -2.9213
   49MOL   C17318509   2.472   1.939   0.522 -0.0475  0.6087  0.0835
   49MOL   C17418510   2.440   2.077   0.465 -0.5760  0.6210 -0.0649
   49MOL   O17518511   2.319   2.112   0.525  0.4244  0.7105 -0.0359
   49MOL   C17618512   2.207   2.156   0.442 -0.1329  0.2505  0.5719
   49MOL   C17718513   2.066   2.125   0.504 -0.5349  0.0771  0.2155
   49MOL   C17818514   2.042   2.229   0.619  0.1144  0.0832 -0.8886
   49MOL   C17918515   1.912   2.226   0.694 -0.3231  0.2662  0.1415
   49MOL   H18018516   2.565   1.903   0.478  0.0343  1.3425 -0.3538
   49MOL   H18118517   2.508   1.970   0.620  0.7522 -1.6400  0.5521
   49MOL   H18218518   2.427   2.059   0.358 -0.8621  0.0908  0.0571
   49MOL   H18318519   2.208   2.122   0.338 -1.5339  0.7589  0.3816
   49MOL   H18418520   2.222   2.263   0.427 -1.5379  0.4210  0.3317
   49MOL   H18518521   2.054   2.025   0.546 -1.1997  0.3064  0.5783
   49MOL   H18618522   2.000   2.134   0.417  1.4357 -0.1368 -1.3330
   49MOL   H18718523   2.117   2.208   0.695 -0.7733 -0.5616 -0.1714
   49MOL   H18818524   2.064   2.334   0.599 -1.8177  0.6503 -0.1999
   49MOL   H18918525   1.916   2.291   0.782 -0.7921  0.6121 -0.0932
   49MOL   H19018526   1.826   2.252   0.632  0.1806  2.2394  0.2405
   49MOL   H19118527   1.888   2.133   0.747  0.8810  0.9964  2.0469
   49MOL   C19218528   2.551   2.181   0.487  0.7853 -0.1292  0.9447
   49MOL   C19318529   2.673   2.161   0.395 -0.3379  0.1275  0.3387
   49MOL   O19418530   2.627   2.172   0.262 -0.3990 -0.1065 -0.0510
   49MOL   C19518531   2.693   2.075   0.182 -0.2225 -0.3086  0.2488
   49MOL   C19618532   2.628   2.075   0.046  0.2426  0.2245 -0.6857
   49MOL   C19718533   2.710   2.004   7.744  0.6006  0.0861  0.0035
   49MOL   C19818534   2.643   2.012   7.600  0.0219 -0.8743  0.2728
   49MOL   H19918535   2.578   2.195   0.592 -2.3284  1.2962  1.6143
   49MOL   H20018536   2.501   2.274   0.460  0.0890 -0.2682  1.7343
   49MOL   H20118537   2.733   2.073   0.419  0.7582  0.7010 -0.2480
   49MOL   H20218538   2.701   1.975   0.227  1.3130 -0.3937 -0.1829
   49MOL   H20318539   2.792   2.120   0.171 -1.1342  1.9697  1.2705
   49MOL   H20418540   2.530   2.026   0.051  1.1326 -1.4183  1.1555
   49MOL   H20518541   2.599   2.174   0.011  0.7907  1.0271  1.1223
   49MOL   H20618542   2.724   1.899   7.771 -0.8805 -0.5101 -1.4668
   49MOL   H20718543   2.798   2.067   7.738 -1.4086  2.9943  0.1720
   49MOL   H20818544   2.539   1.984   7.589 -0.3708  0.3586  0.7192
   49MOL   H20918545   2.646   2.114   7.561  2.0535 -1.0162 -0.0073
   49MOL   H21018546   2.694   1.943   7.534 -0.1896 -0.7306 -0.0418
   49MOL   C21118547   2.770   2.279   0.416 -0.7555  0.3779  0.1445
   49MOL   C21218548   2.817   2.306   0.556  0.5864  0.2249 -0.0030
   49MOL   O21318549   2.890   2.192   0.592 -0.2621  0.7018  0.8308
   49MOL   C21418550   2.906   2.189   0.735  0.9021  0.2164 -0.1048
   49MOL   C21518551   2.964   2.061   0.784 -0.2347  0.6725  0.0170
   49MOL   C21618552   2.888   1.937   0.733  0.3434 -0.0519 -0.3768
   49MOL   C21718553   2.957   1.894   0.601 -0.0373 -0.2921 -1.2868
   49MOL   H21818554   2.751   2.375   0.368 -1.1550  0.0869 -0.2921
   49MOL   H21918555   2.852   2.249   0.352 -1.1501 -0.2519 -0.0724
   49MOL   H22018556   2.728   2.315   0.618  0.7602 -2.2041  0.6458
   49MOL   H22118557   2.965   2.270   0.777  1.5744 -0.9241  1.1764
   49MOL   H22218558   2.812   2.205   0.788  0.8684 -2.2108  0.6535
   49MOL   H22318559   3.065   2.058   0.744 -0.0229 -0.6439  0.6232
   49MOL   H22418560   2.984   2.060   0.891 -2.1496  1.2795  0.4038
   49MOL   H22518561   2.782   1.958   0.716 -0.0540 -2.9398 -1.7753
   49MOL   H22618562   2.889   1.863   0.813 -0.2982  0.5889  0.2349
   49MOL   H22718563   3.065   1.902   0.607 -0.2207  1.4588  0.1399
   49MOL   H22818564   2.927   1.958   0.518 -2.5927  2.2776  1.4911
   49MOL   H22918565   2.935   1.790   0.576  0.1893 -0.6716  0.0301
   49MOL   C23018566   2.896   2.438   0.565  0.1238 -0.1950 -0.6753
   49MOL   C23118567   3.034   2.445   0.498 -0.4873 -0.4725  0.2027
   49MOL   O23218568   3.036   2.583   0.469 -0.5058  0.7260 -0.0762
   49MOL   C23318569   3.031   2.618   0.332  0.3770 -0.0433 -0.1653
   49MOL   C23418570   3.044   2.774   0.338  0.0658  0.6426  0.2342
   49MOL   C23518571   3.033   2.838   0.195  0.0095  0.5695 -0.2125
   49MOL   C23618572   3.023   2.993   0.192  0.7153  0.0019  0.1574
   49MOL   H23718573   2.895   2.472   0.668  0.6911  1.1164 -1.0858
   49MOL   H23818574   2.833   2.516   0.523  0.5250  1.3705  1.5404
   49MOL   H23918575   3.043   2.384   0.409  2.4867 -0.4379  0.4365
   49MOL   H24018576   3.119   2.577   0.283  2.2214  1.6070  1.6677
   49MOL   H24118577   2.945   2.574   0.281  0.9079 -2.2281  0.7651
   49MOL   H24218578   2.963   2.812   0.401  0.6536 -1.5417  2.3551
   49MOL   H24318579   3.139   2.797   0.385  0.1457  2.4474 -0.7307
   49MOL   H24418580   2.947   2.797   0.142 -0.3333 -0.9988  1.5172
   49MOL   H24518581   3.120   2.805   0.138  0.0292 -0.6633  0.5095
   49MOL   H24618582   3.091   3.039   0.264  0.4778 -0.6551  0.8046
   49MOL   H24718583   2.920   3.022   0.213  0.5503  0.3557 -1.1146
   49MOL   H24818584   3.047   3.025   0.091  0.0994  1.2792  0.4110
   49MOL   C24918585   3.145   2.400   0.598  0.3016 -0.5556 -0.1082
   49MOL   C25018586   3.290   2.398   0.517  0.3421 -0.1395 -0.2518
   49MOL   O25118587   3.366   2.294   0.565  0.3188 -0.7462  0.1145
   49MOL   C25218588   3.340   2.161   0.519  0.8355  0.3751 -0.4191
   49MOL   C25318589   3.463   2.076   0.552 -0.9007 -0.6030  0.3197
   49MOL   C25418590   3.514   2.083   0.699 -0.4101  0.1443  0.6789
   49MOL   C25518591   3.623   1.991   0.737 -0.4506 -0.2570 -0.1677
   49MOL   H25618592   3.126   2.298   0.632 -0.3216  0.4603  2.6476
   49MOL   H25718593   3.143   2.472   0.679  0.7924  0.2846 -0.8263
   49MOL   H25818594   3.284   2.377   0.410 -0.8102  0.7636 -0.3734
   49MOL   H25918595   3.328   2.168   0.411 -1.5923  1.1708 -0.1163
   49MOL   H26018596   3.249   2.123   0.565  0.7570  0.6644 -0.3356
   49MOL   H26118597   3.438   1.974   0.525 -0.1231 -0.7253  0.0311
   49MOL   H26218598   3.540   2.113   0.484 -0.4650 -2.7134 -0.3524
   49MOL   H26318599   3.544   2.186   0.717 -1.3941  0.7536 -1.0767
   49MOL   H26418600   3.429   2.059   0.763  0.6535 -1.5351  1.4957
   49MOL   H26518601   3.587   1.889   0.722  0.6178 -0.3647 -2.1746
   49MOL   H26618602   3.649   1.997   0.843 -1.1463  0.3205 -0.0296
   49MOL   H26718603   3.716   2.002   0.682  1.0262 -2.0448  1.8593
   49MOL   C26818604   3.368   2.531   0.534  0.1399 -0.1660 -0.3590
   49MOL   C26918605   3.464   2.563   0.418  0.4070 -0.0374  0.2071
   49MOL   O27018606   3.525   2.689   0.445 -0.6338  0.3175 -0.2605
   49MOL   C27118607   3.461   2.808   0.400  0.8460  0.1343 -0.3221
   49MOL   C27218608   3.469   2.920   0.496 -0.2215  0.5495  0.2973
   49MOL   C27318609   3.393   3.043   0.457 -0.5921 -1.0190 -0.2201
   49MOL   C27418610   3.431   3.165   0.546  0.4610 -0.0315  0.0633
   49MOL   H27518611   3.297   2.613   0.535  0.7483  0.3802 -1.1655
   49MOL   H27618612   3.416   2.532   0.632 -0.6823  0.3984  0.0426
   49MOL   H27718613   3.416   2.572   0.321 -0.0955 -1.1623  0.3485
   49MOL   H27818614   3.507   2.835   0.305  1.6257  0.2629  0.0929
   49MOL   H27918615   3.355   2.800   0.373  0.3473  2.0059  1.0002
   49MOL   H28018616   3.426   2.889   0.591  0.7193  1.6076  1.0877
   49MOL   H28118617   3.574   2.933   0.520  0.4379 -1.8448 -1.1423
   49MOL   H28218618   3.287   3.018   0.463 -0.9279  0.4376  0.1562
   49MOL   H28318619   3.414   3.066   0.352  0.2024 -1.6288 -0.2043
   49MOL   H28418620   3.539   3.181   0.556  0.6425 -0.2821 -1.2785
   49MOL   H28518621   3.396   3.150   0.648 -1.8400 -2.2122 -0.9884
   49MOL   H28618622   3.393   3.265   0.522 -0.2638 -0.5377 -0.9375
   49MOL   C28718623   3.579   2.462   0.400 -0.2584 -1.0091  0.6092
   49MOL   C28818624   3.642   2.460   0.261  0.4369  0.9058 -0.4851
   49MOL   O28918625   3.537   2.445   0.168 -0.0417  0.0297  0.1742
   49MOL   C29018626   3.569   2.459   0.028  0.3360 -0.0862 -0.3017
   49MOL   C29118627   3.442   2.474   7.745 -0.0721  0.1840 -0.5127
   49MOL   C29218628   3.329   2.545   0.018 -0.2591  0.2662 -0.1472
   49MOL   C29318629   3.203   2.585   7.738  0.2833  0.0858 -0.3356
   49MOL   H29418630   3.552   2.358   0.419  1.3327 -1.5349  0.1075
   49MOL   H29518631   3.652   2.482   0.478 -0.7293 -0.0006  0.7915
   49MOL   H29618632   3.695   2.553   0.239  2.0047 -0.1477 -1.2282
   49MOL   H29718633   3.645   2.535   0.008 -0.1044  0.4981  0.2536
   49MOL   H29818634   3.614   2.367   7.791  0.3534  0.1412 -0.8328
   49MOL   H29918635   3.410   2.371   7.725  0.0742  0.3792 -1.7880
   49MOL   H30018636   3.461   2.527   7.652 -1.3206  0.4423 -0.6251
   49MOL   H30118637   3.372   2.639   0.055  1.1992 -0.8698  1.0831
   49MOL   H30218638   3.291   2.487   0.102 -0.1324  0.6574  0.1869
   49MOL   H30318639   3.127   2.634   7.800  1.5710  0.9155  0.6090
   49MOL   H30418640   3.223   2.632   7.642  1.0994  1.2290  0.3665
   49MOL   H30518641   3.153   2.493   7.708  0.6481 -0.1055 -0.3544
   49MOL   C30618642   3.748   2.349   0.251  0.0169 -0.6728  0.1892
   49MOL   C30718643   3.883   2.377   0.334 -0.1691 -0.5305  0.2725
   49MOL   O30818644   3.977   2.427   0.237 -0.2197  0.2921 -0.2403
   49MOL   C30918645   4.022   2.562   0.272  0.8948  0.1877  1.3463
   49MOL   C31018646   4.123   2.616   0.169  0.3503 -0.3721  0.0055
   49MOL   C31118647   4.254   2.527   0.182 -0.2241  0.0181  0.6051
   49MOL   C31218648   4.352   2.579   0.076  0.2130 -0.0833  0.0027
   49MOL   H31318649   3.703   2.252   0.272 -1.0082 -0.4108 -0.7062
   49MOL   H31418650   3.773   2.342   0.145 -3.1641 -1.1369 -0.5790
   49MOL   H31518651   3.870   2.451   0.413 -0.5062 -1.9334  1.5473
   49MOL   H31618652   4.063   2.559   0.373  3.8275  0.5706  0.2283
   49MOL   H31718653   3.936   2.629   0.270 -0.3671 -1.4129 -0.4953
   49MOL   H31818654   4.143   2.721   0.190  1.0591 -0.3302 -0.8420
   49MOL   H31918655   4.081   2.619   0.069  0.4560  1.1654 -0.0103
   49MOL   H32018656   4.284   2.533   0.286  0.5952 -1.2317  0.4477
   49MOL   H32118657   4.231   2.422   0.167 -1.2047  0.1703  1.0401
   49MOL   H32218658   4.346   2.688   0.077 -0.6762 -0.1123 -1.1859
   49MOL   H32318659   4.336   2.543   7.776  1.7105  1.3534 -0.7854
   49MOL   H32418660   4.456   2.565   0.104 -0.2077 -0.8644  1.1885
   49MOL   C32518661   3.927   2.255   0.412 -0.2604  0.4455 -0.0474
   49MOL   C32618662   4.046   2.275   0.513 -0.2211  0.5811  0.1510
   49MOL   O32718663   4.033   2.187   0.624  0.3404  1.2988 -0.4107
   49MOL   C32818664   3.956   2.226   0.734 -0.0514 -0.0197 -0.2818
   49MOL   C32918665   3.977   2.141   0.861  0.4848 -0.3095  0.6657
   49MOL   C33018666   4.124   2.124   0.918  0.1868  0.1097  0.0566
   49MOL   C33118667   4.124   2.046   1.052 -0.3213 -0.0873 -0.1307
   49MOL   H33218668   3.929   2.178   0.336 -0.1631 -2.2981  2.6453
   49MOL   H33318669   3.840   2.216   0.465  1.7397 -2.0641  1.5079
   49MOL   H33418670   4.058   2.378   0.546  1.0766 -0.3131  2.5896
   49MOL   H33518671   3.851   2.220   0.707  0.1850  0.9188 -1.4949
   49MOL   H33618672   3.985   2.328   0.763  0.2753 -0.0345 -0.5496
   49MOL   H33718673   3.913   2.184   0.938 -0.7907  0.0476 -0.5829
   49MOL   H33818674   3.935   2.042   0.838  0.1322  0.3132 -1.4775
   49MOL   H33918675   4.172   2.222   0.921 -1.8092  1.0669  2.6040
   49MOL   H34018676   4.185   2.067   0.848 -0.5074 -3.5844  2.3626
   49MOL   H34118677   4.077   2.100   1.134  0.2964 -0.3106  0.3687
   49MOL   H34218678   4.228   2.031   1.080 -0.8604 -0.9980  1.4139
   49MOL   H34318679   4.074   1.952   1.029 -3.2146  1.3955 -0.1867
   49MOL   C34418680   4.192   2.246   0.446  0.1890 -0.5612 -0.2176
   49MOL   C34518681   4.310   2.277   0.539  0.1064  0.3471 -0.2396
   49MOL   O34618682   4.316   2.421   0.547  0.0855 -0.4782  0.5372
   49MOL   C34718683   4.309   2.470   0.679 -0.5566  0.0557 -0.8664
   49MOL   C34818684   4.327   2.618   0.699 -0.5040  0.4556  0.4041
   49MOL   C34918685   4.245   2.703   0.603 -0.6666 -0.0050  0.3861
   49MOL   C35018686   4.308   2.840   0.592  0.3154 -0.1529 -0.4052
   49MOL   H35118687   4.189   2.141   0.415 -0.3175 -1.0082  1.3280
   49MOL   H35218688   4.188   2.312   0.359  0.8568 -0.6072 -0.2823
   49MOL   H35318689   4.295   2.226   0.634  2.8758 -0.1844 -0.0508
   49MOL   H35418690   4.382   2.418   0.740 -1.0191  0.3280 -0.0750
   49MOL   H35518691   4.214   2.436   0.718  0.0361 -0.3592  0.2260
   49MOL   H35618692   4.435   2.634   0.695 -0.1494 -1.4401  1.8266
   49MOL   H35718693   4.318   2.650   0.803  1.2517  1.0712  0.3770
   49MOL   H35818694   4.227   2.660   0.505 -2.0824  3.1283 -0.8062
   49MOL   H35918695   4.146   2.711   0.647 -2.0237  1.8559 -2.8656
   49MOL   H36018696   4.248   2.902   0.525 -0.8434 -0.3649  0.4252
   49MOL   H36118697   4.411   2.833   0.556  0.5172 -2.1150  0.5042
   49MOL   H36218698   4.322   2.903   0.680  0.8798 -1.1660  0.2444
   49MOL   C36318699   4.455   2.239   0.485 -0.2955  0.4074 -0.2955
   49MOL   C36418700   4.557   2.223   0.595 -0.2028  0.8468  0.8872
   49MOL   O36518701   4.677   2.155   0.537 -0.3860  0.2416 -0.4170
   49MOL   C36618702   4.770   2.120   0.638  0.0286  0.1866  0.5371
   49MOL   C36718703   4.883   2.042   0.579  0.3227 -0.4313  0.8361
   49MOL   C36818704   4.948   1.954   0.691  0.2012 -0.2577  0.5806
   49MOL   C36918705   5.057   1.869   0.629  0.3123 -0.0556  0.8845
   49MOL   H37018706   4.482   2.313   0.410  0.2017  2.8682  2.1953
   49MOL   H37118707   4.451   2.147   0.428 -0.6274 -0.8662  1.7439
   49MOL   H37218708   4.513   2.180   0.685 -1.6487  1.6132  0.5595
   49MOL   H37318709   4.712   2.062   0.710 -0.1144 -1.8445 -1.1556
   49MOL   H37418710   4.805   2.204   0.697  1.2021  0.6435 -0.7990
   49MOL   H37518711   4.954   2.106   0.527 -1.3797  0.9147  0.1067
   49MOL   H37618712   4.837   1.973   0.507  2.0511 -1.6660  0.8641
   49MOL   H37718713   4.876   1.893   0.748 -0.9742  2.7233  2.4027
   49MOL   H37818714   4.992   2.018   0.767  0.9506 -1.6254  1.3290
   49MOL   H37918715   5.133   1.933   0.585  0.1241 -1.3286 -1.3413
   49MOL   H38018716   5.097   1.797   0.699 -0.3117 -1.4742 -0.2040
   49MOL   H38118717   5.024   1.809   0.544  2.5062 -1.5045  1.0259
   49MOL   H38218718   4.589   2.324   0.622  0.0414  1.5086 -1.7782
   50MOL     C118719   7.652   4.073   3.940 -0.0130  0.0838 -0.1141
   50MOL     C218720   7.682   4.229   3.946 -0.9187  0.5419  0.0295
   50MOL     O318721   7.571   4.289   4.002 -0.0034  0.2956  0.0305
   50MOL     C418722   7.550   4.423   3.953  0.2440 -0.2173 -0.8260
   50MOL     C518723   7.418   4.469   4.007 -0.1718 -0.1615  0.1170
   50MOL     C618724   7.384   4.619   3.973  0.0271  0.4080 -0.1630
   50MOL     C718725   7.234   4.643   3.972  0.2611 -0.4039  0.4699
   50MOL     H818726   7.591   4.036   4.021 -0.3485  2.5764  0.8228
   50MOL     H918727   7.592   4.064   3.849 -1.4402  1.1665  0.7073
   50MOL    H1018728   7.702   4.268   3.846 -1.1531  1.4815  0.3391
   50MOL    H1118729   7.637   4.476   3.993 -0.2778 -2.5455  3.7122
   50MOL    H1218730   7.546   4.429   3.844 -1.8502 -1.3771 -0.8255
   50MOL    H1318731   7.415   4.449   4.115 -0.9698  0.2950  0.1800
   50MOL    H1418732   7.337   4.408   3.967  0.2547 -0.8450  0.2872
   50MOL    H1518733   7.416   4.654   3.875  1.1962  1.0577  0.4384
   50MOL    H1618734   7.432   4.685   4.045  1.9677 -0.6382 -0.4627
   50MOL    H1718735   7.191   4.591   3.886 -0.0891 -0.2677  0.5621
   50MOL    H1818736   7.204   4.746   3.950 -0.5018 -1.0793 -1.7603
   50MOL    H1918737   7.180   4.600   4.056  0.5265 -0.9953  0.3363
   50MOL    H2018738   7.742   4.012   3.932 -0.9096 -1.0814 -1.4605
   50MOL    C2118739   0.003   4.262   4.036  0.6100  0.3753  0.5954
   50MOL    C2218740   0.139   4.235   3.974  0.5707 -0.1820 -0.5880
   50MOL    O2318741   0.161   4.338   3.877 -0.1721  0.4008  0.4364
   50MOL    C2418742   0.201   4.287   3.752  0.6755 -0.0178  0.2906
   50MOL    C2518743   0.306   4.383   3.692 -0.6680  0.4546 -0.5738
   50MOL    C2618744   0.251   4.525   3.654 -0.9703  0.6416  0.0765
   50MOL    C2718745   0.330   4.592   3.547  1.1402  0.0096 -0.0394
   50MOL    H2818746   7.794   4.204   4.128 -2.4990  1.0279  0.7072
   50MOL    H2918747   7.801   4.368   4.058 -2.0218  0.1162  1.6663
   50MOL    H3018748   0.138   4.133   3.935  2.2143 -0.8339  0.9524
   50MOL    H3118749   0.113   4.282   3.687  0.8331 -2.6451  0.2061
   50MOL    H3218750   0.255   4.194   3.769  0.7795 -0.4200 -2.0052
   50MOL    H3318751   0.386   4.395   3.764  0.4939  0.7743 -1.8923
   50MOL    H3418752   0.360   4.345   3.605  0.7055 -0.1380  0.5320
   50MOL    H3518753   0.148   4.513   3.620 -1.5192  2.8747  0.9046
   50MOL    H3618754   0.260   4.591   3.740  1.5553 -0.2693  0.5579
   50MOL    H3718755   0.435   4.594   3.574  1.2108 -0.4697 -0.2687
   50MOL    H3818756   0.321   4.559   3.443 -0.7093 -0.9055  0.3862
   50MOL    H3918757   0.309   4.698   3.534  1.3381  0.4524  2.9521
   50MOL    C4018758   0.250   4.259   4.078  0.1945 -0.1648  0.3175
   50MOL    C4118759   0.379   4.207   4.033 -0.7794 -0.3663  0.2332
   50MOL    O4218760   0.362   4.065   4.016 -0.2790 -0.5412  1.0459
   50MOL    C4318761   0.465   4.004   3.936 -0.2526  0.0883  0.6326
   50MOL    C4418762   0.414   3.865   3.920  0.3427 -0.2075  0.2939
   50MOL    C4518763   0.272   3.838   3.853 -0.0119 -0.4906  1.1796
   50MOL    C4618764   0.225   3.699   3.865 -0.6414  0.3297 -0.1284
   50MOL    H4718765   0.227   4.206   4.171  0.8990 -1.9784 -0.5304
   50MOL    H4818766   0.260   4.367   4.093 -0.0533  0.0220 -0.8168
   50MOL    H4918767   0.407   4.255   3.939  3.7940 -1.5797  0.8740
   50MOL    H5018768   0.562   3.988   3.983  0.7882  1.7762 -0.9128
   50MOL    H5118769   0.494   4.058   3.846  2.3737  1.7195  2.4032
   50MOL    H5218770   0.421   3.826   4.022 -0.7610 -0.3165  0.3261
   50MOL    H5318771   0.491   3.813   3.863 -1.0493 -0.9688 -0.9175
   50MOL    H5418772   0.267   3.873   3.750 -1.6913 -0.9185  1.0982
   50MOL    H5518773   0.194   3.895   3.904 -1.4532 -0.9803 -0.4217
   50MOL    H5618774   0.223   3.667   3.969  0.0564 -0.9834 -0.5169
   50MOL    H5718775   0.131   3.671   3.816 -0.8930 -0.5942  0.8722
   50MOL    H5818776   0.300   3.641   3.812 -2.1615  0.0559 -2.0335
   50MOL    C5918777   0.495   4.242   4.138  0.1505 -0.4616  0.8154
   50MOL    C6018778   0.552   4.391   4.150 -0.6902 -0.1963 -0.0047
   50MOL    O6118779   0.682   4.393   4.212 -0.1084 -0.1461  0.2685
   50MOL    C6218780   0.702   4.369   4.349  0.5983  0.5563  0.6389
   50MOL    C6318781   0.852   4.363   4.380 -0.6581  0.1324 -0.1829
   50MOL    C6418782   0.917   4.494   4.341 -0.0222 -0.3136 -1.0168
   50MOL    C6518783   1.061   4.514   4.382 -0.2955 -0.2592  0.3146
   50MOL    H6618784   0.468   4.209   4.238  0.2591 -2.4520  0.1988
   50MOL    H6718785   0.574   4.180   4.096  0.8200  1.2970 -0.5927
   50MOL    H6818786   0.479   4.438   4.215 -0.0817  0.9517 -0.1390
   50MOL    H6918787   0.652   4.281   4.387 -1.0649  0.9425 -0.5838
   50MOL    H7018788   0.666   4.458   4.401 -0.4048 -0.3510  1.5064
   50MOL    H7118789   0.862   4.347   4.487 -1.0884  0.6029 -0.0714
   50MOL    H7218790   0.905   4.279   4.336 -2.8865 -0.8510 -1.0615
   50MOL    H7318791   0.915   4.507   4.233  1.4521  1.6332 -0.8395
   50MOL    H7418792   0.862   4.584   4.367  0.6264 -0.1899 -0.0197
   50MOL    H7518793   1.065   4.540   4.488 -2.9698 -0.4941  0.5250
   50MOL    H7618794   1.132   4.434   4.362  0.6746  0.6169  0.2468
   50MOL    H7718795   1.104   4.601   4.332  2.7332 -0.5488  2.2974
   50MOL    C7818796   0.551   4.462   4.020  0.0730 -0.2140 -0.2800
   50MOL    C7918797   0.591   4.611   4.022  0.2573 -0.2718 -0.1114
   50MOL    O8018798   0.508   4.681   4.113 -0.0312 -0.2100 -0.1902
   50MOL    C8118799   0.585   4.796   4.179 -0.4102  0.8613  0.0019
   50MOL    C8218800   0.503   4.917   4.222  0.5343  0.5191 -0.2695
   50MOL    C8318801   0.417   4.972   4.106  0.2956 -0.8914  0.5937
   50MOL    C8418802   0.366   5.122   4.123 -0.4355 -0.5573 -0.0927
   50MOL    H8518803   0.451   4.461   3.977  0.6585  0.2485 -1.6667
   50MOL    H8618804   0.618   4.417   3.947 -0.1453  0.1684 -0.7189
   50MOL    H8718805   0.693   4.603   4.059  0.8876  3.0440 -0.9763
   50MOL    H8818806   0.670   4.837   4.125  0.7454 -1.2942  0.1328
   50MOL    H8918807   0.637   4.751   4.263 -0.4171  0.3720 -0.2513
   50MOL    H9018808   0.430   4.883   4.295  0.9031 -0.8801 -0.5525
   50MOL    H9118809   0.558   4.992   4.279 -2.4304  2.2389  0.4501
   50MOL    H9218810   0.328   4.913   4.090 -0.8557  0.3259  2.3474
   50MOL    H9318811   0.466   4.972   4.008 -1.0972 -0.4698 -0.1216
   50MOL    H9418812   0.316   5.143   4.218 -0.1923 -1.9087  0.3532
   50MOL    H9518813   0.447   5.194   4.118 -0.1953 -0.9489 -2.0345
   50MOL    H9618814   0.309   5.157   4.037 -3.0064 -1.0546  1.3441
   50MOL    C9718815   0.574   4.688   3.886 -1.1333 -0.1727 -0.5210
   50MOL    C9818816   0.703   4.657   3.800 -0.0669  0.4112 -0.1190
   50MOL    O9918817   0.684   4.538   3.714  0.2073 -0.2013 -0.3825
   50MOL   C10018818   0.809   4.461   3.701  0.1087  0.3102 -0.9838
   50MOL   C10118819   0.796   4.327   3.631 -0.3983 -0.4348  0.0326
   50MOL   C10218820   0.679   4.241   3.675 -0.0441 -0.3233  0.6551
   50MOL   C10318821   0.644   4.117   3.594 -0.1263 -0.0349  0.1650
   50MOL   H10418822   0.579   4.795   3.908  0.2099 -0.7708  2.3267
   50MOL   H10518823   0.479   4.676   3.834 -2.8902  0.2818  2.4892
   50MOL   H10618824   0.784   4.640   3.871  0.4864 -1.1215 -1.0921
   50MOL   H10718825   0.849   4.453   3.802 -1.3028  0.3724 -0.4078
   50MOL   H10818826   0.879   4.526   3.648 -1.3613 -0.4983 -3.9927
   50MOL   H10918827   0.886   4.267   3.645 -0.5852 -0.7529 -0.1269
   50MOL   H11018828   0.790   4.353   3.525 -1.2950 -0.1109  0.1563
   50MOL   H11118829   0.589   4.300   3.684  0.2959  0.2645  0.2630
   50MOL   H11218830   0.690   4.202   3.776  0.2403  1.1708  1.2034
   50MOL   H11318831   0.738   4.067   3.570  0.6831  0.9432  1.2184
   50MOL   H11418832   0.586   4.044   3.650 -0.1174 -0.0253  0.1879
   50MOL   H11518833   0.591   4.144   3.503  0.0722  0.7202  0.2674
   50MOL   C11618834   0.758   4.775   3.724  0.2777  0.3160 -0.0187
   50MOL   C11718835   0.839   4.878   3.794  0.5009 -0.0050 -0.1910
   50MOL   O11818836   0.956   4.827   3.864  0.0037  0.2943 -0.4991
   50MOL   C11918837   0.954   4.853   4.001 -0.3445 -0.5512  0.2416
   50MOL   C12018838   1.096   4.826   4.063  0.3281  0.5426 -0.1099
   50MOL   C12118839   1.108   4.875   4.212 -0.7702 -0.1317 -0.5882
   50MOL   C12218840   1.118   5.025   4.242  0.0140 -0.2941 -0.5842
   50MOL   H12318841   0.813   4.730   3.642  0.3295 -0.0278  0.2059
   50MOL   H12418842   0.679   4.828   3.670  1.0363 -0.2656 -1.7082
   50MOL   H12518843   0.774   4.936   3.859  1.6985  1.4179 -0.2440
   50MOL   H12618844   0.891   4.786   4.060  1.0085  0.7825  3.3467
   50MOL   H12718845   0.941   4.959   4.024  0.6546 -0.0369 -1.4732
   50MOL   H12818846   1.175   4.888   4.022  0.3860 -0.4558 -1.5470
   50MOL   H12918847   1.119   4.719   4.061 -0.1572  0.4392 -0.5309
   50MOL   H13018848   1.023   4.835   4.268  0.5295 -1.6273  0.3582
   50MOL   H13118849   1.200   4.834   4.255  1.1475  2.4016 -2.1142
   50MOL   H13218850   1.029   5.079   4.209  0.1670 -0.1438 -0.7541
   50MOL   H13318851   1.203   5.074   4.194 -1.1765 -0.5143 -3.0127
   50MOL   H13418852   1.129   5.049   4.347 -1.2133 -0.1440 -0.4811
   50MOL   C13518853   0.895   4.985   3.707 -0.3276  0.5044 -0.1505
   50MOL   C13618854   0.791   5.098   3.680 -0.1962 -0.9059  0.1537
   50MOL   O13718855   0.804   5.197   3.786 -1.0642 -0.4638  0.4301
   50MOL   C13818856   0.691   5.192   3.874  0.1589  0.5545  0.2090
   50MOL   C13918857   0.654   5.328   3.934 -0.0329 -0.4959  0.3606
   50MOL   C14018858   0.753   5.388   4.036  0.4691 -1.0708 -0.4416
   50MOL   C14118859   0.821   5.292   4.138 -0.5824 -0.2869  0.2433
   50MOL   H14218860   0.932   4.937   3.617  1.3949  0.6277  0.4830
   50MOL   H14318861   0.994   5.020   3.737  0.2007 -1.7896  0.8833
   50MOL   H14418862   0.691   5.057   3.667 -2.1247  3.9901 -1.4934
   50MOL   H14518863   0.701   5.106   3.940 -0.0952  0.6774  0.4109
   50MOL   H14618864   0.599   5.174   3.819 -0.0820 -0.7597  1.0149
   50MOL   H14718865   0.561   5.326   3.991 -0.7275  0.3374 -0.6989
   50MOL   H14818866   0.633   5.413   3.868  1.1115 -0.7542 -0.3420
   50MOL   H14918867   0.833   5.438   3.980  0.9144 -1.7267 -0.4035
   50MOL   H15018868   0.706   5.471   4.089 -1.3505 -0.0334 -3.5535
   50MOL   H15118869   0.883   5.217   4.089 -3.1968 -2.3113 -0.0226
   50MOL   H15218870   0.882   5.354   4.205 -1.0552 -0.3817  0.7610
   50MOL   H15318871   0.758   5.247   4.215  1.1216  0.3811  2.0706
   50MOL   C15418872   0.822   5.152   3.541 -0.3532 -0.2910 -0.2535
   50MOL   C15518873   0.715   5.264   3.522  0.2459  0.1306  0.3711
   50MOL   O15618874   0.587   5.201   3.512 -0.1070  0.2959 -0.8670
   50MOL   C15718875   0.475   5.277   3.544  0.1472  0.3236  0.6922
   50MOL   C15818876   0.351   5.180   3.566 -0.3621 -0.5282  0.2611
   50MOL   C15918877   0.382   5.086   3.684 -0.6928 -0.2188  0.4120
   50MOL   C16018878   0.271   4.985   3.719 -0.7823 -0.0537  0.5158
   50MOL   H16118879   0.817   5.075   3.464 -0.0764 -2.0499  1.4479
   50MOL   H16218880   0.925   5.189   3.546 -0.3054 -0.3725 -0.6415
   50MOL   H16318881   0.706   5.329   3.609 -2.2838  0.6931 -0.2578
   50MOL   H16418882   0.498   5.333   3.635  0.6170  0.0734  0.7291
   50MOL   H16518883   0.460   5.352   3.467  1.1440 -1.5300 -1.3485
   50MOL   H16618884   0.352   5.115   3.479  2.0738 -0.4390  0.1848
   50MOL   H16718885   0.254   5.229   3.561 -0.4171 -0.5852  0.7876
   50MOL   H16818886   0.476   5.041   3.651 -1.1924 -0.0605 -1.3058
   50MOL   H16918887   0.398   5.147   3.773  0.9992 -0.9542  0.6338
   50MOL   H17018888   0.310   4.918   3.795 -2.1982 -0.8951  0.5167
   50MOL   H17118889   0.186   5.041   3.758 -0.0202  1.5052 -0.0044
   50MOL   H17218890   0.244   4.928   3.630  1.4665 -0.4582  0.0610
   50MOL   C17318891   0.736   5.339   3.391 -0.2951 -0.2302 -0.2415
   50MOL   C17418892   0.880   5.396   3.371  0.4973  0.0353 -0.0285
   50MOL   O17518893   0.874   5.484   3.260  0.4020 -0.3874  0.4545
   50MOL   C17618894   0.834   5.422   3.139 -0.1348 -0.2460  0.3109
   50MOL   C17718895   0.886   5.511   3.027 -0.2945 -0.2532 -1.2382
   50MOL   C17818896   0.875   5.447   2.886 -0.0943 -0.6973 -0.0151
   50MOL   C17918897   0.923   5.538   2.772 -0.2663  0.2173 -0.6601
   50MOL   H18018898   0.668   5.424   3.387  0.2727  0.2344 -0.0885
   50MOL   H18118899   0.718   5.261   3.316  1.9298 -2.5822  1.5802
   50MOL   H18218900   0.947   5.313   3.345  1.3309  1.1570 -1.5345
   50MOL   H18318901   0.726   5.418   3.127 -0.0190 -1.1075 -0.4879
   50MOL   H18418902   0.874   5.321   3.126  0.5640  0.0544  0.0638
   50MOL   H18518903   0.989   5.542   3.045 -0.2507  0.6955 -3.0221
   50MOL   H18618904   0.834   5.606   3.014 -0.1236 -0.0530 -0.4660
   50MOL   H18718905   0.929   5.353   2.886 -0.1187 -0.7250  1.8286
   50MOL   H18818906   0.772   5.415   2.868  0.2275 -3.2300  2.3632
   50MOL   H18918907   1.021   5.583   2.786 -0.6614  1.6370 -2.3858
   50MOL   H19018908   0.927   5.487   2.676 -0.9261 -2.0840  0.4868
   50MOL   H19118909   0.844   5.612   2.760 -1.4117 -1.1126 -1.3931
   50MOL   C19218910   0.940   5.474   3.496 -0.0456 -0.1405 -0.0832
   50MOL   C19318911   1.098   5.478   3.495 -0.2122  0.9398  0.2491
   50MOL   O19418912   1.137   5.340   3.471  0.4703 -0.3704 -0.1207
   50MOL   C19518913   1.188   5.277   3.593 -0.3751 -0.9385  0.4511
   50MOL   C19618914   1.246   5.144   3.561 -0.6874 -0.0062  0.6969
   50MOL   C19718915   1.316   5.074   3.680  0.1201  0.2767 -0.2489
   50MOL   C19818916   1.435   5.138   3.752 -0.1740 -0.0659 -0.1073
   50MOL   H19918917   0.910   5.421   3.586  3.2895  0.4207  1.4217
   50MOL   H20018918   0.892   5.570   3.509 -1.4621 -0.5365 -2.1439
   50MOL   H20118919   1.126   5.529   3.587  1.7033  0.4292 -0.0384
   50MOL   H20218920   1.113   5.257   3.670  1.8812 -0.8733  2.7128
   50MOL   H20318921   1.262   5.343   3.638 -0.2928 -0.8677  0.2104
   50MOL   H20418922   1.173   5.071   3.527 -0.6655  0.9277 -1.4174
   50MOL   H20518923   1.326   5.154   3.487 -1.5311  2.9760  0.1188
   50MOL   H20618924   1.349   4.974   3.650 -2.2911 -0.6694  0.1123
   50MOL   H20718925   1.239   5.044   3.751  0.0433  0.2387 -0.3467
   50MOL   H20818926   1.414   5.224   3.816  2.3920 -0.8369  1.8813
   50MOL   H20918927   1.479   5.058   3.811 -0.8572 -1.7896 -1.8969
   50MOL   H21018928   1.514   5.171   3.685  0.0202 -0.4013 -0.0419
   50MOL   C21118929   1.156   5.568   3.375 -0.0806  0.7738  0.2728
   50MOL   C21218930   1.306   5.565   3.351 -0.2318  0.5215  0.0052
   50MOL   O21318931   1.329   5.662   3.247 -0.1555 -0.0652  0.2396
   50MOL   C21418932   1.306   5.617   3.112 -0.0816  0.0222 -0.5291
   50MOL   C21518933   1.340   5.727   3.012  0.6682  0.8399  0.5973
   50MOL   C21618934   1.300   5.693   2.864  0.1501  0.0220  0.7294
   50MOL   C21718935   1.348   5.558   2.819  0.1613  0.0783 -0.2900
   50MOL   H21818936   1.117   5.670   3.376  1.3130  1.3692 -2.4860
   50MOL   H21918937   1.115   5.525   3.284  3.8690  0.1688 -1.3027
   50MOL   H22018938   1.337   5.467   3.314  0.2094  0.9829 -0.8705
   50MOL   H22118939   1.375   5.535   3.095  0.8435  0.8258 -0.6960
   50MOL   H22218940   1.203   5.580   3.107 -0.6908  1.6005 -0.1050
   50MOL   H22318941   1.275   5.809   3.042  0.5974  1.4407 -1.1013
   50MOL   H22418942   1.442   5.765   3.019  1.7332 -2.0227  1.0259
   50MOL   H22518943   1.346   5.759   2.791  0.1277  0.3289  0.9919
   50MOL   H22618944   1.193   5.700   2.846 -0.0149 -0.4240  1.4744
   50MOL   H22718945   1.454   5.546   2.842  0.0469  1.0660  0.8603
   50MOL   H22818946   1.329   5.547   2.712 -3.2611  0.0724  0.2592
   50MOL   H22918947   1.290   5.475   2.859 -0.4089  0.6326  0.0564
   50MOL   C23018948   1.390   5.603   3.478 -0.3831 -0.4520 -0.3691
   50MOL   C23118949   1.538   5.612   3.451 -0.0879 -0.0476  0.6754
   50MOL   O23218950   1.616   5.691   3.539 -0.6188  0.3178 -0.2427
   50MOL   C23318951   1.626   5.830   3.506  0.1490 -0.4298 -1.0851
   50MOL   C23418952   1.754   5.884   3.565 -0.0118 -0.0364  0.1964
   50MOL   C23518953   1.803   6.023   3.516  0.4865 -0.7500  0.5437
   50MOL   C23618954   1.926   6.049   3.597 -0.1238  0.6308 -0.4195
   50MOL   H23718955   1.370   5.534   3.560 -0.3308 -0.3592 -0.2770
   50MOL   H23818956   1.343   5.696   3.511  1.1635  0.2336 -0.0430
   50MOL   H23918957   1.562   5.648   3.351 -0.8065  1.5952  1.0792
   50MOL   H24018958   1.644   5.843   3.399  3.8192 -0.0745 -0.4566
   50MOL   H24118959   1.546   5.895   3.544 -0.1948 -2.2605  1.4425
   50MOL   H24218960   1.718   5.884   3.668  1.9800 -1.0052  0.9227
   50MOL   H24318961   1.832   5.809   3.552  0.9529  1.3653 -2.2823
   50MOL   H24418962   1.727   6.101   3.522  2.0580  0.8389 -0.1319
   50MOL   H24518963   1.826   6.022   3.410  2.7676  0.9254  0.9909
   50MOL   H24618964   1.972   6.142   3.565 -0.8526  1.0762 -0.1739
   50MOL   H24718965   1.997   5.967   3.589  1.5311  1.9203  0.8088
   50MOL   H24818966   1.899   6.049   3.703  3.1994 -0.5986  0.4714
   50MOL   C24918967   1.594   5.467   3.450 -0.0769  0.1935 -0.1006
   50MOL   C25018968   1.732   5.459   3.383  0.0326 -0.3848  0.2202
   50MOL   O25118969   1.704   5.459   3.244  0.6785  0.6425 -0.0787
   50MOL   C25218970   1.777   5.563   3.176  0.6882  0.0981  0.9484
   50MOL   C25318971   1.716   5.586   3.044  0.2422 -0.2058  0.2877
   50MOL   C25418972   1.802   5.693   2.964  0.6494  0.5256  0.0746
   50MOL   C25518973   1.767   5.694   2.816  0.3213 -0.0137 -0.0017
   50MOL   H25618974   1.533   5.391   3.400  2.3204 -1.4907 -0.5431
   50MOL   H25718975   1.597   5.424   3.550 -0.9408  0.0597 -0.1260
   50MOL   H25818976   1.788   5.546   3.417 -1.6334  0.4234  0.9602
   50MOL   H25918977   1.882   5.533   3.166  0.0447 -1.5919 -1.0558
   50MOL   H26018978   1.781   5.659   3.228  0.3923  1.2473 -1.0880
   50MOL   H26118979   1.702   5.486   3.001 -0.1280  0.3082 -0.8023
   50MOL   H26218980   1.616   5.623   3.063 -1.0522 -2.4006 -1.9930
   50MOL   H26318981   1.769   5.788   3.006  2.1215  1.1833 -0.2389
   50MOL   H26418982   1.909   5.691   2.985  0.7346  0.8837 -0.3256
   50MOL   H26518983   1.808   5.783   2.767 -0.8284  1.1288  1.0540
   50MOL   H26618984   1.662   5.683   2.790  0.8337 -1.1957 -1.6610
   50MOL   H26718985   1.831   5.621   2.767  0.6824  1.4989 -1.8705
   50MOL   C26818986   1.813   5.331   3.410 -0.4851  0.3387  0.4997
   50MOL   C26918987   1.876   5.299   3.549  0.5875  0.5234 -0.1650
   50MOL   O27018988   1.922   5.167   3.528 -0.0565  0.5744 -0.5984
   50MOL   C27118989   1.870   5.075   3.628 -0.5593  0.0020 -0.4047
   50MOL   C27218990   1.934   4.938   3.602 -0.1295 -0.4145 -0.5497
   50MOL   C27318991   2.087   4.949   3.646 -0.3369 -0.0686 -0.0889
   50MOL   C27418992   2.149   4.814   3.658  0.5860 -0.8351  0.2047
   50MOL   H27518993   1.752   5.245   3.383  2.6772 -1.8870  0.1836
   50MOL   H27618994   1.892   5.320   3.337 -2.4937 -0.9346 -1.5502
   50MOL   H27718995   1.804   5.309   3.629 -0.8974  0.2777 -1.4350
   50MOL   H27818996   1.895   5.103   3.730  0.2652  2.6638 -1.2859
   50MOL   H27918997   1.762   5.072   3.615 -0.4852 -1.9408 -0.6894
   50MOL   H28018998   1.886   4.851   3.646 -0.1488  0.0521  0.3634
   50MOL   H28118999   1.923   4.915   3.496  0.1880 -2.3835 -0.1750
   50MOL   H28219000   2.087   5.003   3.741 -0.3905 -0.6542  0.2470
   50MOL   H28319001   2.150   5.010   3.581  1.2596 -0.4396  1.0655
   50MOL   H28419002   2.256   4.818   3.681  0.4567 -0.7527  0.8132
   50MOL   H28519003   2.122   4.777   3.559  0.4521 -2.7593  0.9351
   50MOL   H28619004   2.094   4.745   3.723 -0.5121 -0.8807 -0.7694
   50MOL   C28719005   2.003   5.373   3.584  0.2725  0.1982  0.3209
   50MOL   C28819006   2.068   5.344   3.728  0.3304 -0.3582 -0.1741
   50MOL   O28919007   1.981   5.390   3.830  0.1075  1.0813 -0.3169
   50MOL   C29019008   1.983   5.301   3.939 -0.3918 -1.0779  0.2065
   50MOL   C29119009   1.861   5.310   4.028 -0.1768 -0.2743  0.5345
   50MOL   C29219010   1.743   5.238   3.967 -0.5253  0.9352  0.4814
   50MOL   C29319011   1.624   5.261   4.058  0.2963 -0.3176  0.1881
   50MOL   H29419012   1.975   5.478   3.577  1.5738  0.4349 -1.8551
   50MOL   H29519013   2.078   5.360   3.505 -0.8631  0.4036 -0.8005
   50MOL   H29619014   2.073   5.235   3.720 -0.0902 -0.3491 -0.5679
   50MOL   H29719015   2.001   5.197   3.911  1.2195 -0.8227  0.2561
   50MOL   H29819016   2.064   5.328   4.007 -0.9019  0.8020  0.1102
   50MOL   H29919017   1.839   5.417   4.040 -0.8098 -0.4748  1.2866
   50MOL   H30019018   1.883   5.269   4.127  1.0708 -1.7051 -0.3272
   50MOL   H30119019   1.760   5.131   3.962 -2.3491  0.7574 -2.9486
   50MOL   H30219020   1.719   5.272   3.866 -0.7945 -3.1748 -0.9095
   50MOL   H30319021   1.582   5.360   4.040  1.2013  0.0631  0.1398
   50MOL   H30419022   1.546   5.189   4.032 -1.4519  0.9751  1.7005
   50MOL   H30519023   1.649   5.251   4.163  0.8049 -1.6934 -0.0578
   50MOL   C30619024   2.202   5.421   3.746  0.7373  0.0722  0.4421
   50MOL   C30719025   2.197   5.574   3.737 -0.6589  0.0285 -0.4131
   50MOL   O30819026   2.232   5.601   3.600  0.2074  0.3605  0.2670
   50MOL   C30919027   2.227   5.730   3.548  0.1570  0.1481  0.2697
   50MOL   C31019028   2.142   5.730   3.428  0.5522 -0.3606 -0.1762
   50MOL   C31119029   2.132   5.856   3.353 -0.0442  0.2587  0.0795
   50MOL   C31219030   2.034   5.845   3.227 -0.5627  0.0408  0.3742
   50MOL   H31319031   2.243   5.390   3.842  0.5887 -1.0823  0.1450
   50MOL   H31419032   2.285   5.382   3.687  0.1558 -2.0255  0.9422
   50MOL   H31519033   2.095   5.608   3.751 -0.1117  0.9499  1.4834
   50MOL   H31619034   2.327   5.766   3.523 -0.2418  1.4089  0.4763
   50MOL   H31719035   2.190   5.797   3.626  0.9479  1.6120 -0.6105
   50MOL   H31819036   2.044   5.684   3.440  1.3314 -2.5835 -1.9070
   50MOL   H31919037   2.199   5.663   3.363  1.7443  0.6212 -0.1440
   50MOL   H32019038   2.107   5.939   3.419 -2.0290 -1.0037  0.9441
   50MOL   H32119039   2.232   5.877   3.315 -0.5234 -1.0351 -1.9772
   50MOL   H32219040   1.936   5.860   3.272 -0.7481  0.5348 -0.1973
   50MOL   H32319041   2.038   5.750   3.173  1.6404  0.4549 -0.2573
   50MOL   H32419042   2.043   5.930   3.160 -0.7927 -0.2955 -0.0827
   50MOL   C32519043   2.297   5.647   3.829 -0.1748 -0.4521  0.0617
   50MOL   C32619044   2.238   5.700   3.961  0.0625  0.3722  0.0018
   50MOL   O32719045   2.338   5.741   4.048  0.1306 -0.5577 -0.1100
   50MOL   C32819046   2.336   5.660   4.167  0.6445  0.2528  0.2714
   50MOL   C32919047   2.397   5.734   4.290  0.0566  0.4518 -0.5338
   50MOL   C33019048   2.352   5.670   4.422 -0.1841 -0.1685 -0.7727
   50MOL   C33119049   2.401   5.749   4.544 -0.1337 -0.0941  0.0464
   50MOL   H33219050   2.348   5.729   3.779 -0.8628 -0.0772 -0.0211
   50MOL   H33319051   2.374   5.582   3.872 -0.4682  0.8171  2.6164
   50MOL   H33419052   2.185   5.614   4.002  1.0400 -0.5748 -0.6987
   50MOL   H33519053   2.376   5.559   4.161 -1.7141 -0.6693 -0.4064
   50MOL   H33619054   2.231   5.645   4.191  0.2320 -0.8546 -2.0331
   50MOL   H33719055   2.505   5.721   4.280  0.1962 -0.6644  2.0710
   50MOL   H33819056   2.385   5.842   4.291 -0.7607  0.3590 -0.3082
   50MOL   H33919057   2.373   5.564   4.434  0.4101  0.0866  0.5333
   50MOL   H34019058   2.243   5.665   4.428 -0.1036 -0.4439  0.6222
   50MOL   H34119059   2.376   5.707   4.641  0.5210 -0.2761  0.1414
   50MOL   H34219060   2.366   5.852   4.552  0.9520  0.2663  0.3009
   50MOL   H34319061   2.508   5.763   4.530 -0.2172  0.7960  0.3011
   50MOL   C34419062   2.134   5.807   3.951  0.6078  0.2317  0.2433
   50MOL   C34519063   2.058   5.833   4.083  0.4381  0.4351  0.0708
   50MOL   O34619064   1.962   5.735   4.107 -0.2840  0.3523 -0.0142
   50MOL   C34719065   1.928   5.713   4.243  0.1637  0.1414  0.4295
   50MOL   C34819066   1.844   5.584   4.277  0.5938 -0.0129  0.1031
   50MOL   C34919067   1.796   5.572   4.427  0.3356  0.0779  0.2810
   50MOL   C35019068   1.709   5.439   4.437  0.0754  0.5164  0.2635
   50MOL   H35119069   2.190   5.890   3.908  1.6547 -0.0370  1.0673
   50MOL   H35219070   2.056   5.780   3.880  0.8375  0.2079  0.0015
   50MOL   H35319071   2.135   5.843   4.159  1.5642 -0.6537 -0.9082
   50MOL   H35419072   1.878   5.805   4.273 -1.4342  0.8146 -3.9610
   50MOL   H35519073   2.024   5.706   4.294  0.0727  0.1781  0.6068
   50MOL   H35619074   1.910   5.500   4.255  1.6810  0.7298  0.5320
   50MOL   H35719075   1.753   5.575   4.217 -0.1998 -1.1738  1.4280
   50MOL   H35819076   1.874   5.565   4.502  0.8547  1.0198 -0.1586
   50MOL   H35919077   1.737   5.660   4.452  0.7894  0.1064  1.2349
   50MOL   H36019078   1.657   5.446   4.532  0.2668 -0.8720  0.4844
   50MOL   H36119079   1.762   5.344   4.429  0.9216  0.8591  1.6482
   50MOL   H36219080   1.632   5.445   4.360 -1.4574 -0.1221  1.7294
   50MOL   C36319081   1.978   5.967   4.066  0.7253 -0.0458 -0.3630
   50MOL   C36419082   2.068   6.089   4.057  0.0734 -0.2590 -0.0038
   50MOL   O36519083   1.998   6.212   4.032  0.5335  0.4450 -0.8328
   50MOL   C36619084   2.082   6.312   3.996 -0.1602 -0.0427  0.1836
   50MOL   C36719085   1.989   6.433   3.984  0.2546  0.0666 -0.3565
   50MOL   C36819086   1.918   6.465   4.119 -0.4955  0.8410 -0.1210
   50MOL   C36919087   1.814   6.568   4.099 -0.1391  0.2339  0.1693
   50MOL   H37019088   1.904   5.986   4.144  0.2383 -1.1224 -0.5576
   50MOL   H37119089   1.919   5.964   3.974  1.7419 -0.2431 -1.0221
   50MOL   H37219090   2.152   6.075   3.990  0.5232  1.0871  0.2604
   50MOL   H37319091   2.113   6.301   3.893 -0.5285  3.4122 -0.3493
   50MOL   H37419092   2.171   6.323   4.058  0.2201  1.9218 -0.7018
   50MOL   H37519093   1.905   6.414   3.917 -0.1594 -1.8411  0.6581
   50MOL   H37619094   2.039   6.518   3.938  0.4076  1.0589  1.6054
   50MOL   H37719095   1.991   6.502   4.190 -1.3307  0.7044  0.8199
   50MOL   H37819096   1.872   6.373   4.154 -1.0703  0.5237 -1.6504
   50MOL   H37919097   1.747   6.539   4.017  2.2443 -3.1532 -0.7136
   50MOL   H38019098   1.751   6.584   4.186  0.8533 -0.7833  1.0936
   50MOL   H38119099   1.860   6.664   4.076  1.2804 -0.7188 -1.1082
   50MOL   H38219100   2.110   6.098   4.157 -2.3687  0.2730  1.0124
   51MOL     C119101   3.586   6.243   0.875  0.3586 -0.5553 -0.2161
   51MOL     C219102   3.709   6.327   0.835  0.4393  0.1020  0.4177
   51MOL     O319103   3.657   6.438   0.759 -0.0512 -0.2755 -0.2395
   51MOL     C419104   3.739   6.476   0.644 -0.0173  0.0868 -0.2781
   51MOL     C519105   3.661   6.585   0.567  0.7000  0.0594  0.7332
   51MOL     C619106   3.519   6.543   0.529  0.3675  0.2149 -0.1546
   51MOL     C719107   3.440   6.669   0.486  0.8269 -0.6253 -0.2640
   51MOL     H819108   3.532   6.302   0.949 -0.8723 -0.8385 -0.8752
   51MOL     H919109   3.526   6.206   0.792  0.1540 -1.2785  0.2497
   51MOL    H1019110   3.759   6.253   0.772  0.9085 -0.8283  1.8709
   51MOL    H1119111   3.833   6.525   0.669 -0.9179  1.6558  0.1025
   51MOL    H1219112   3.756   6.387   0.582  0.1517  1.5572 -2.4065
   51MOL    H1319113   3.727   6.616   0.486  1.1295  0.3479  1.1913
   51MOL    H1419114   3.659   6.677   0.625  1.0399 -0.5324  1.6920
   51MOL    H1519115   3.471   6.485   0.609  1.8122 -2.4822 -1.1666
   51MOL    H1619116   3.536   6.459   0.461  0.7386 -0.4769  0.7732
   51MOL    H1719117   3.333   6.647   0.482  0.4936  1.2015 -2.1140
   51MOL    H1819118   3.478   6.717   0.395 -1.4758  1.2410 -0.2704
   51MOL    H1919119   3.453   6.751   0.557  0.5011  0.0164 -0.9391
   51MOL    H2019120   3.608   6.148   0.925 -1.4970 -0.1220  1.4611
   51MOL    C2119121   3.797   6.374   0.945  0.3194 -0.2541 -0.2373
   51MOL    C2219122   3.887   6.259   1.004 -0.0071 -0.3510 -0.1598
   51MOL    O2319123   4.030   6.282   0.988 -0.2278 -0.2847 -0.1742
   51MOL    C2419124   4.079   6.315   0.853 -0.6042 -0.9144 -0.1059
   51MOL    C2519125   4.230   6.290   0.850 -0.4558  0.2063 -0.2113
   51MOL    C2619126   4.271   6.147   0.869  1.0516 -0.0430 -0.2195
   51MOL    C2719127   4.242   6.068   0.741  0.3395 -0.7363 -0.2369
   51MOL    H2819128   3.732   6.423   1.018 -1.6656 -0.0888 -2.0567
   51MOL    H2919129   3.857   6.453   0.900  1.0673 -0.9715 -0.5068
   51MOL    H3019130   3.865   6.169   0.947  0.7227 -0.2760 -0.5647
   51MOL    H3119131   4.066   6.420   0.827 -0.6911 -0.5056  1.5265
   51MOL    H3219132   4.036   6.249   0.778 -0.1057 -1.5715  0.1828
   51MOL    H3319133   4.278   6.331   0.761 -1.9600  2.2617 -0.1094
   51MOL    H3419134   4.266   6.356   0.929 -1.7883 -0.1157  0.6731
   51MOL    H3519135   4.375   6.141   0.901  1.2239  0.4866 -0.6697
   51MOL    H3619136   4.220   6.108   0.957 -1.6481  0.4900 -1.4956
   51MOL    H3719137   4.135   6.046   0.745  0.6517 -2.4567 -1.0306
   51MOL    H3819138   4.262   6.119   0.647 -1.1236  1.5299  0.6411
   51MOL    H3919139   4.295   5.974   0.752 -1.0881 -1.3592  1.6443
   51MOL    C4019140   3.861   6.236   1.151  0.1216 -0.4765 -0.7000
   51MOL    C4119141   3.721   6.173   1.197 -0.5635 -0.7456  0.2520
   51MOL    O4219142   3.697   6.189   1.335  0.8400 -0.1693 -0.2290
   51MOL    C4319143   3.651   6.317   1.378 -0.5359 -0.6115  0.0898
   51MOL    C4419144   3.507   6.308   1.430 -0.3313  0.4675 -0.5897
   51MOL    C4519145   3.509   6.218   1.550  0.8691  0.2583 -1.2177
   51MOL    C4619146   3.365   6.167   1.576 -1.2163  0.2307 -0.1496
   51MOL    H4719147   3.871   6.327   1.209 -0.9612 -0.6936 -0.1614
   51MOL    H4819148   3.928   6.160   1.192 -0.5372  0.2663  1.8565
   51MOL    H4919149   3.640   6.220   1.141  0.6740  0.6051 -0.4392
   51MOL    H5019150   3.654   6.382   1.291 -1.1625 -0.7676 -0.0525
   51MOL    H5119151   3.712   6.361   1.457 -0.4415 -3.0378  1.4205
   51MOL    H5219152   3.452   6.249   1.356 -0.5901  0.9365 -0.7712
   51MOL    H5319153   3.453   6.400   1.453 -0.7569  0.4143 -1.3627
   51MOL    H5419154   3.542   6.271   1.639 -0.2593  0.9223 -1.1783
   51MOL    H5519155   3.587   6.143   1.535  0.2805 -0.2067 -2.0144
   51MOL    H5619156   3.323   6.101   1.501 -0.2406 -0.1058 -0.3997
   51MOL    H5719157   3.357   6.117   1.672 -1.1752  1.4417  0.4973
   51MOL    H5819158   3.311   6.260   1.593 -1.2442 -0.0690  1.5337
   51MOL    C5919159   3.727   6.025   1.173 -0.0768  0.5684 -0.3372
   51MOL    C6019160   3.585   5.952   1.195 -0.7701  0.5044  0.2353
   51MOL    O6119161   3.502   5.972   1.077  0.6151 -0.2991 -0.0085
   51MOL    C6219162   3.384   6.054   1.085  0.3052  0.5033 -0.1554
   51MOL    C6319163   3.267   5.988   1.153  0.1255  0.0299 -0.1535
   51MOL    C6419164   3.146   6.084   1.155  0.2123  0.2820  0.2200
   51MOL    C6519165   3.015   6.010   1.194 -0.4997 -0.0277 -0.6230
   51MOL    H6619166   3.756   5.998   1.071  1.3879  2.7686 -0.5442
   51MOL    H6719167   3.805   5.986   1.239 -0.8455  1.2121  0.9715
   51MOL    H6819168   3.538   5.970   1.291 -0.7503 -1.3317  0.6027
   51MOL    H6919169   3.361   6.093   0.985  1.6445  0.6531 -0.4227
   51MOL    H7019170   3.412   6.134   1.153  0.5795  0.3518 -0.0901
   51MOL    H7119171   3.246   5.889   1.111  1.0836  0.0331 -0.6512
   51MOL    H7219172   3.305   5.967   1.253  1.7625  0.6485 -0.6266
   51MOL    H7319173   3.174   6.165   1.223  1.4104 -1.4971  1.9068
   51MOL    H7419174   3.147   6.136   1.060  1.8905 -0.1694 -0.0194
   51MOL    H7519175   2.925   6.071   1.203 -0.5827  0.0720 -1.9677
   51MOL    H7619176   2.993   5.927   1.127  0.0469 -0.6658 -0.0091
   51MOL    H7719177   3.031   5.958   1.288 -1.0956  0.9304  0.0075
   51MOL    C7819178   3.600   5.797   1.196 -0.3439  0.0314 -0.5046
   51MOL    C7919179   3.674   5.746   1.321 -0.4291  1.2096 -0.2848
   51MOL    O8019180   3.806   5.703   1.284 -0.0994 -0.0894  0.1529
   51MOL    C8119181   3.900   5.720   1.392  0.0988  0.5660  0.3118
   51MOL    C8219182   4.034   5.650   1.351  0.4854 -0.4772  0.4288
   51MOL    C8319183   4.010   5.497   1.335  0.0188 -0.0058 -0.5631
   51MOL    C8419184   4.040   5.445   1.196  0.4678  0.9068 -0.1099
   51MOL    H8519185   3.647   5.765   1.103  0.1341 -1.4878  0.2390
   51MOL    H8619186   3.500   5.754   1.197 -0.2522 -0.1834 -0.2011
   51MOL    H8719187   3.662   5.816   1.404 -1.9805 -1.1539  1.5529
   51MOL    H8819188   3.860   5.679   1.485 -2.0677  0.6945 -0.5287
   51MOL    H8919189   3.918   5.827   1.407 -2.3454  1.0487 -0.0731
   51MOL    H9019190   4.063   5.702   1.260  0.0092  1.2543  1.2375
   51MOL    H9119191   4.106   5.677   1.428  0.9823 -4.9987  1.6793
   51MOL    H9219192   3.904   5.471   1.341 -0.0044  0.1377 -0.3563
   51MOL    H9319193   4.067   5.451   1.417 -0.9302 -1.5277 -0.7303
   51MOL    H9419194   3.985   5.486   1.112 -0.3356 -1.0543 -0.5613
   51MOL    H9519195   4.144   5.456   1.167  0.1525  1.1265 -1.1684
   51MOL    H9619196   4.023   5.337   1.190  1.4068  0.8708 -2.8485
   51MOL    C9719197   3.604   5.613   1.374  0.0300  0.3006 -1.0119
   51MOL    C9819198   3.468   5.629   1.454  0.2202  0.1709  0.2989
   51MOL    O9919199   3.428   5.502   1.497  0.0323 -0.2072  0.5529
   51MOL   C10019200   3.360   5.422   1.403  0.2894 -0.0231 -0.3068
   51MOL   C10119201   3.398   5.274   1.419 -0.1914  0.6553 -0.8317
   51MOL   C10219202   3.302   5.175   1.349 -0.2567  0.0013 -0.0645
   51MOL   C10319203   3.348   5.032   1.324  0.2412 -0.2669 -0.3266
   51MOL   H10419204   3.671   5.558   1.439 -0.0261 -0.4799 -1.6096
   51MOL   H10519205   3.593   5.547   1.288 -1.4567 -3.1453  1.6993
   51MOL   H10619206   3.401   5.672   1.379 -1.3483 -1.7433  0.5540
   51MOL   H10719207   3.369   5.464   1.302  2.4250  0.5529  0.0893
   51MOL   H10819208   3.255   5.446   1.419  0.4657 -0.3015  1.2936
   51MOL   H10919209   3.406   5.244   1.523 -2.9239  3.3432  0.2489
   51MOL   H11019210   3.498   5.258   1.380  0.3402  0.6943  0.5081
   51MOL   H11119211   3.266   5.207   1.251 -2.8816 -1.7881  0.2789
   51MOL   H11219212   3.211   5.168   1.409 -1.2068 -2.6699 -1.7397
   51MOL   H11319213   3.445   5.040   1.276  0.3698  2.7414  0.3767
   51MOL   H11419214   3.357   4.975   1.417  1.2314  0.1679 -0.1539
   51MOL   H11519215   3.277   4.972   1.267 -1.6681  1.4683  0.1643
   51MOL   C11619216   3.478   5.722   1.578  0.1878  0.6091 -0.2768
   51MOL   C11719217   3.347   5.729   1.660  0.2031 -0.0223  0.9125
   51MOL   O11819218   3.375   5.807   1.782  0.0695 -0.2740  0.8825
   51MOL   C11919219   3.410   5.718   1.891 -0.4021  0.3661  0.6378
   51MOL   C12019220   3.435   5.781   2.029 -0.4704 -0.1508  0.0770
   51MOL   C12119221   3.309   5.780   2.111  0.2969 -0.2158 -0.0042
   51MOL   C12219222   3.309   5.866   2.243  0.6832  0.6017  0.1478
   51MOL   H12319223   3.556   5.669   1.633  0.5373  1.6856  0.2819
   51MOL   H12419224   3.505   5.826   1.558  3.5017  0.0065  0.7527
   51MOL   H12519225   3.320   5.627   1.688  0.5512 -0.9984 -2.1082
   51MOL   H12619226   3.501   5.661   1.868 -2.0765 -2.4439  0.6982
   51MOL   H12719227   3.336   5.640   1.906  1.4263 -1.4452  0.5722
   51MOL   H12819228   3.472   5.883   2.018  1.1196 -0.7577 -0.4450
   51MOL   H12919229   3.504   5.720   2.088 -2.5889 -1.3633  1.3381
   51MOL   H13019230   3.228   5.825   2.053  0.1392  0.5362  0.7878
   51MOL   H13119231   3.274   5.678   2.120 -0.4021 -0.2288 -2.3517
   51MOL   H13219232   3.369   5.957   2.240  0.9984  0.3736 -1.0549
   51MOL   H13319233   3.341   5.809   2.330 -0.8355 -1.0820 -0.3717
   51MOL   H13419234   3.208   5.894   2.270 -0.9186 -1.8647 -2.9246
   51MOL   C13519235   3.226   5.798   1.585 -0.0571  0.5781 -0.3478
   51MOL   C13619236   3.101   5.815   1.667  0.2683 -0.4219  0.2783
   51MOL   O13719237   3.010   5.904   1.598 -0.0949  0.3191 -0.2737
   51MOL   C13819238   3.009   6.036   1.652 -0.6885  0.1856  0.8940
   51MOL   C13919239   2.931   6.124   1.567 -0.5842  0.1748 -0.3994
   51MOL   C14019240   2.779   6.105   1.599  0.4492 -0.3765  0.3351
   51MOL   C14119241   2.696   6.173   1.484 -1.2392 -0.2425 -0.1694
   51MOL   H14219242   3.203   5.742   1.494  2.1193 -1.0688  0.0770
   51MOL   H14319243   3.245   5.894   1.537  1.2764 -0.2257 -1.4372
   51MOL   H14419244   3.126   5.843   1.769 -2.7432  1.5661  0.5176
   51MOL   H14519245   3.112   6.069   1.654 -0.0009 -1.8690  0.8028
   51MOL   H14619246   2.968   6.047   1.752 -1.2993  0.5263  0.6090
   51MOL   H14719247   2.958   6.093   1.467  0.0430 -0.3045 -0.0786
   51MOL   H14819248   2.969   6.225   1.583  0.0380 -0.4015  1.9677
   51MOL   H14919249   2.757   5.999   1.615 -1.1504 -0.3486 -1.4941
   51MOL   H15019250   2.750   6.152   1.693 -0.8845 -0.4380 -0.0307
   51MOL   H15119251   2.745   6.150   1.390 -0.7241  0.8469 -0.1763
   51MOL   H15219252   2.590   6.151   1.494 -1.0476 -0.3376  1.8442
   51MOL   H15319253   2.713   6.281   1.485  0.7674 -0.5436  0.7724
   51MOL   C15419254   3.039   5.679   1.681  0.0677  0.1956 -0.4347
   51MOL   C15519255   2.918   5.686   1.782 -0.3498  0.2226 -0.5843
   51MOL   O15619256   2.968   5.721   1.908 -0.1843 -0.6085  0.3006
   51MOL   C15719257   2.864   5.779   1.986 -0.1260 -0.0237  0.4125
   51MOL   C15819258   2.915   5.848   2.113  0.0982  0.0543 -0.4179
   51MOL   C15919259   2.801   5.869   2.207 -0.4127 -0.5926 -0.3008
   51MOL   C16019260   2.689   5.958   2.159  0.2668  0.1337 -0.7700
   51MOL   H16119261   3.111   5.612   1.729 -0.7104  0.0558  0.5780
   51MOL   H16219262   3.007   5.641   1.584  0.6812 -1.1376 -0.1260
   51MOL   H16319263   2.848   5.756   1.736 -0.7921 -1.0926 -1.9754
   51MOL   H16419264   2.807   5.845   1.921  0.8615  1.5755  1.1596
   51MOL   H16519265   2.788   5.701   1.997  0.8412 -0.6422  2.9131
   51MOL   H16619266   2.963   5.938   2.076 -1.3343  0.4075 -1.4802
   51MOL   H16719267   2.976   5.781   2.174 -0.2298 -0.1167 -0.2744
   51MOL   H16819268   2.769   5.773   2.246  0.3490 -0.9230 -0.4741
   51MOL   H16919269   2.831   5.921   2.298  0.2938  2.5569 -2.2577
   51MOL   H17019270   2.724   6.053   2.117 -2.0113  1.7764  0.9161
   51MOL   H17119271   2.621   5.908   2.090 -0.5835 -0.9106  0.8157
   51MOL   H17219272   2.627   5.972   2.247  0.9705 -0.3041 -0.1961
   51MOL   C17319273   2.848   5.545   1.798 -0.4687 -0.5308  0.1102
   51MOL   C17419274   2.941   5.434   1.860 -0.0544  0.0881  0.1753
   51MOL   O17519275   2.853   5.353   1.937 -0.6565 -0.0330 -0.5221
   51MOL   C17619276   2.869   5.374   2.079 -0.7831 -0.1898 -0.3181
   51MOL   C17719277   2.751   5.305   2.147 -0.2069 -0.0383 -0.2861
   51MOL   C17819278   2.767   5.267   2.293  0.2940 -0.0780 -0.4828
   51MOL   C17919279   2.638   5.195   2.341  0.2484  0.1330  0.0528
   51MOL   H18019280   2.819   5.519   1.696 -2.4410  0.0080  0.5160
   51MOL   H18119281   2.753   5.555   1.849  0.4037 -1.4288  1.9625
   51MOL   H18219282   3.019   5.467   1.928 -0.9444  5.1588 -1.0399
   51MOL   H18319283   2.882   5.480   2.101 -0.4070  0.2113 -2.3441
   51MOL   H18419284   2.959   5.324   2.116 -1.9740 -0.2340  2.6486
   51MOL   H18519285   2.722   5.217   2.090 -0.0356  0.5326 -1.2761
   51MOL   H18619286   2.671   5.377   2.130  1.6092  1.5943 -2.1794
   51MOL   H18719287   2.852   5.200   2.303 -0.1280 -0.3261  1.6761
   51MOL   H18819288   2.780   5.344   2.369 -0.6193  1.0102 -1.4120
   51MOL   H18919289   2.555   5.266   2.333 -0.8683 -0.8441  2.2678
   51MOL   H19019290   2.615   5.108   2.281 -0.0793 -0.2178  0.6722
   51MOL   H19119291   2.655   5.152   2.440  1.4282  0.8303  0.1656
   51MOL   C19219292   2.989   5.343   1.754  0.4645 -0.2688 -0.2194
   51MOL   C19319293   3.092   5.238   1.814  0.1957 -0.6281  0.1038
   51MOL   O19419294   3.101   5.129   1.719 -0.2771  0.1637 -0.0200
   51MOL   C19519295   3.015   5.019   1.724  0.1330 -0.6831  0.8769
   51MOL   C19619296   3.020   4.929   1.607 -0.3195  0.0814  0.3728
   51MOL   C19719297   3.155   4.852   1.607 -0.0690 -0.1086 -0.4118
   51MOL   C19819298   3.193   4.767   1.479 -0.2777  0.0006 -0.0504
   51MOL   H19919299   3.036   5.391   1.668  0.1521 -0.9468 -0.7750
   51MOL   H20019300   2.897   5.302   1.714 -2.0260  2.4945  2.4280
   51MOL   H20119301   3.050   5.192   1.904  0.4960 -2.2476 -0.5593
   51MOL   H20219302   2.917   5.064   1.738  0.4113 -0.6094  2.8408
   51MOL   H20319303   3.029   4.963   1.817 -0.7908  1.5579  2.4136
   51MOL   H20419304   2.930   4.867   1.602  0.6966 -1.6027  2.0817
   51MOL   H20519305   3.015   5.001   1.526 -2.2732  1.6759  1.8735
   51MOL   H20619306   3.168   4.788   1.694  1.5469 -0.1896 -0.6899
   51MOL   H20719307   3.239   4.920   1.622 -0.6128  0.6462 -0.7622
   51MOL   H20819308   3.124   4.682   1.480 -0.4506  0.1515  1.8967
   51MOL   H20919309   3.192   4.821   1.384 -1.7625  0.3787  0.1580
   51MOL   H21019310   3.289   4.718   1.490  0.2303  0.5902 -1.7301
   51MOL   C21119311   3.230   5.292   1.840 -0.0550 -0.1222  0.3583
   51MOL   C21219312   3.341   5.193   1.882  0.0425  0.5482  0.4863
   51MOL   O21319313   3.457   5.275   1.871  0.5111 -0.6259 -0.1305
   51MOL   C21419314   3.576   5.222   1.813 -0.0385 -0.6263  0.0259
   51MOL   C21519315   3.674   5.345   1.821 -0.0004  0.6335 -0.0069
   51MOL   C21619316   3.803   5.305   1.749 -0.3384 -0.2629 -0.2090
   51MOL   C21719317   3.898   5.419   1.725 -0.2655  0.5850 -0.6032
   51MOL   H21819318   3.225   5.381   1.903 -0.3412 -0.7777  1.2802
   51MOL   H21919319   3.251   5.335   1.742 -2.0386  2.2527  0.9350
   51MOL   H22019320   3.354   5.113   1.808 -1.1262 -1.0630  1.9669
   51MOL   H22119321   3.620   5.137   1.865  2.9485  0.1431 -1.0982
   51MOL   H22219322   3.565   5.188   1.710 -0.1120  0.0366 -0.1911
   51MOL   H22319323   3.623   5.426   1.769 -0.8022  1.6942  2.3402
   51MOL   H22419324   3.692   5.373   1.925  0.0982 -0.8710  0.3979
   51MOL   H22519325   3.772   5.280   1.647 -0.6327  1.8238 -0.6545
   51MOL   H22619326   3.853   5.229   1.809  1.7820 -0.8254 -2.5963
   51MOL   H22719327   3.986   5.368   1.686 -0.0023  1.0712 -0.6464
   51MOL   H22819328   3.940   5.469   1.812  0.3755  1.1729 -1.2393
   51MOL   H22919329   3.852   5.493   1.658 -0.8565  0.4042 -0.4035
   51MOL   C23019330   3.327   5.140   2.024 -0.1963 -0.1801  0.2212
   51MOL   C23119331   3.295   5.240   2.144  0.1819 -0.4924  0.2856
   51MOL   O23219332   3.280   5.159   2.266  0.3214 -0.2220  0.0580
   51MOL   C23319333   3.143   5.125   2.290 -0.5086 -0.3667 -0.0353
   51MOL   C23419334   3.131   4.985   2.345  0.0731  0.1818 -0.0096
   51MOL   C23519335   3.000   4.916   2.322 -0.5372  0.3987  0.4570
   51MOL   C23619336   2.991   4.781   2.389  0.2793  0.2127  0.6337
   51MOL   H23719337   3.410   5.077   2.054 -1.9290 -1.0742  3.3989
   51MOL   H23819338   3.244   5.068   2.026 -0.6882  0.3285 -1.2228
   51MOL   H23919339   3.203   5.294   2.123  0.0487 -1.3306 -1.4528
   51MOL   H24019340   3.103   5.198   2.360 -1.7804 -2.3474  1.3529
   51MOL   H24119341   3.088   5.127   2.196  0.0112  0.1096 -0.3323
   51MOL   H24219342   3.206   4.929   2.289  1.6537 -1.4912  3.6284
   51MOL   H24319343   3.158   4.988   2.450  1.6104  1.1534 -0.4009
   51MOL   H24419344   2.984   4.904   2.215  2.2183  0.9020 -0.0637
   51MOL   H24519345   2.919   4.983   2.350  0.2745  1.2652  0.7977
   51MOL   H24619346   2.995   4.798   2.496 -1.2373  0.3976  0.6836
   51MOL   H24719347   3.067   4.710   2.356 -0.9755 -0.2039 -1.5021
   51MOL   H24819348   2.897   4.732   2.363  1.4298 -1.4225 -0.5773
   51MOL   C24919349   3.417   5.333   2.171  0.4086 -0.6554  0.2822
   51MOL   C25019350   3.404   5.413   2.304  0.2787  0.3842  0.1961
   51MOL   O25119351   3.284   5.477   2.296  0.3302  0.2487  0.3160
   51MOL   C25219352   3.219   5.513   2.416 -0.3457 -0.0089 -0.7240
   51MOL   C25319353   3.073   5.554   2.382  0.9566 -0.3540 -0.9367
   51MOL   C25419354   2.992   5.577   2.516  0.2322 -0.9157  0.2219
   51MOL   C25519355   2.858   5.640   2.486 -0.9884 -0.7097  0.1924
   51MOL   H25619356   3.418   5.401   2.085  0.1989 -0.8311  0.1419
   51MOL   H25719357   3.513   5.281   2.167 -0.1593 -1.6728 -0.0046
   51MOL   H25819358   3.406   5.335   2.381  0.2367 -0.0960 -0.2835
   51MOL   H25919359   3.278   5.589   2.466 -0.0382 -0.2864 -0.6665
   51MOL   H26019360   3.226   5.429   2.485  0.4149  0.2571 -0.4746
   51MOL   H26119361   3.061   5.643   2.321 -3.1398  1.3558  2.1304
   51MOL   H26219362   3.025   5.473   2.326 -1.0192  1.5623 -2.1071
   51MOL   H26319363   2.976   5.479   2.561 -0.0418 -1.4732 -1.0607
   51MOL   H26419364   3.044   5.645   2.584 -0.2478 -0.3905  0.0657
   51MOL   H26519365   2.858   5.740   2.444  0.2778 -1.5350 -1.8275
   51MOL   H26619366   2.816   5.649   2.587  0.9462  0.6780  0.8919
   51MOL   H26719367   2.792   5.577   2.426  0.1873 -2.5471  0.7977
   51MOL   C26819368   3.513   5.515   2.326  0.5467 -0.1572 -0.2579
   51MOL   C26919369   3.650   5.447   2.354 -0.3366  0.6024  0.6017
   51MOL   O27019370   3.741   5.540   2.310 -0.0656 -0.5561  0.5298
   51MOL   C27119371   3.794   5.514   2.182 -0.3209  0.0083 -0.3355
   51MOL   C27219372   3.916   5.607   2.172  0.1832 -0.1048 -0.4795
   51MOL   C27319373   3.886   5.756   2.194 -0.4948  0.9723  0.5237
   51MOL   C27419374   3.984   5.853   2.128  0.0412  0.0731  0.2546
   51MOL   H27519375   3.516   5.578   2.237 -3.2986 -0.5223 -0.7376
   51MOL   H27619376   3.486   5.577   2.412 -0.9871 -0.9475 -0.1647
   51MOL   H27719377   3.654   5.351   2.302 -0.5530  0.7036  0.3964
   51MOL   H27819378   3.814   5.407   2.168  0.0634  0.0910 -0.4313
   51MOL   H27919379   3.724   5.554   2.109 -0.1216  0.6982 -0.1506
   51MOL   H28019380   3.985   5.584   2.253 -0.6074 -0.1780  0.1825
   51MOL   H28119381   3.958   5.596   2.072 -0.3214 -0.3250 -0.6668
   51MOL   H28219382   3.868   5.780   2.299  1.2841  2.8865  0.4090
   51MOL   H28319383   3.793   5.763   2.137 -0.3682  2.5580  0.5002
   51MOL   H28419384   3.941   5.952   2.145  2.9668  1.5102 -0.3495
   51MOL   H28519385   3.992   5.833   2.021  0.6560  2.3488 -0.1375
   51MOL   H28619386   4.088   5.847   2.162 -0.7379 -0.0694  2.7541
   51MOL   C28719387   3.668   5.406   2.502 -0.0242  0.2297  0.5211
   51MOL   C28819388   3.782   5.296   2.529  0.1071 -0.2835  0.3936
   51MOL   O28919389   3.747   5.182   2.449 -0.4220  0.0534  0.3929
   51MOL   C29019390   3.865   5.137   2.384 -0.4331 -0.2487 -0.4281
   51MOL   C29119391   3.823   5.006   2.321  0.1660 -0.1828  0.1943
   51MOL   C29219392   3.704   5.014   2.224  0.3178  0.3692  0.4259
   51MOL   C29319393   3.650   4.880   2.170 -0.0175 -0.3736 -0.0670
   51MOL   H29419394   3.577   5.350   2.524  0.6522 -0.7565  0.8604
   51MOL   H29519395   3.676   5.495   2.565 -0.5876 -1.2639  2.7601
   51MOL   H29619396   3.879   5.341   2.507 -1.1874  2.2467 -0.2723
   51MOL   H29719397   3.916   5.207   2.317  0.3160  1.0594  1.4640
   51MOL   H29819398   3.944   5.117   2.457  1.2094 -0.7184 -2.2809
   51MOL   H29919399   3.790   4.925   2.387 -2.0056 -0.4506 -1.1768
   51MOL   H30019400   3.914   4.979   2.266 -0.0165  0.5736 -0.4816
   51MOL   H30119401   3.733   5.070   2.135  0.7127 -2.1362 -1.0774
   51MOL   H30219402   3.622   5.071   2.267  0.9187  1.3296  0.3317
   51MOL   H30319403   3.557   4.896   2.115  1.3966  0.3789 -2.3192
   51MOL   H30419404   3.733   4.842   2.110  1.8151  3.6284 -0.2011
   51MOL   H30519405   3.623   4.813   2.252  4.0741 -0.5649  1.2229
   51MOL   C30619406   3.795   5.252   2.679 -0.0067 -0.0820 -0.0439
   51MOL   C30719407   3.877   5.357   2.759 -0.6951 -0.1022 -0.3494
   51MOL   O30819408   4.008   5.358   2.711  0.1131 -0.2794 -0.7056
   51MOL   C30919409   4.082   5.480   2.746 -0.9257  0.1991  0.3171
   51MOL   C31019410   4.191   5.505   2.642 -0.3290 -0.0701  0.1101
   51MOL   C31119411   4.127   5.559   2.507 -1.2498  0.3241  0.2899
   51MOL   C31219412   4.233   5.589   2.406 -0.2470 -0.2321 -0.2606
   51MOL   H31319413   3.697   5.253   2.727 -0.4321  0.4041 -0.9246
   51MOL   H31419414   3.854   5.160   2.692 -1.3000 -0.7912  0.8823
   51MOL   H31519415   3.845   5.460   2.744 -0.2297 -0.0648 -1.1594
   51MOL   H31619416   4.132   5.458   2.841  2.0717  1.1002 -0.9682
   51MOL   H31719417   4.027   5.572   2.766 -0.1786  0.8717 -0.6692
   51MOL   H31819418   4.248   5.414   2.624  2.7695  2.0409 -1.3160
   51MOL   H31919419   4.266   5.579   2.671  0.0477  0.4975 -2.1619
   51MOL   H32019420   4.059   5.485   2.464 -1.1743  0.5444 -0.2133
   51MOL   H32119421   4.068   5.649   2.520  0.2592  1.3422  0.1583
   51MOL   H32219422   4.309   5.662   2.434 -0.6988  1.5471 -3.4350
   51MOL   H32319423   4.179   5.625   2.318 -0.6225  1.1136  0.5036
   51MOL   H32419424   4.284   5.497   2.380 -1.7866 -1.6300  1.5401
   51MOL   C32519425   3.874   5.337   2.915 -0.3605 -1.0607 -0.1575
   51MOL   C32619426   3.741   5.370   2.992 -0.8265 -0.7181  0.6143
   51MOL   O32719427   3.765   5.354   3.128  0.8736 -0.8172  0.4428
   51MOL   C32819428   3.693   5.242   3.186 -0.0694 -0.4759  0.6733
   51MOL   C32919429   3.749   5.209   3.321 -0.4715  0.2795 -0.2122
   51MOL   C33019430   3.727   5.317   3.432 -0.7404 -0.2152 -0.1591
   51MOL   C33119431   3.813   5.285   3.554 -0.2326 -0.3196  0.0145
   51MOL   H33219432   3.942   5.411   2.959  1.9812 -3.0500 -0.3578
   51MOL   H33319433   3.904   5.235   2.938 -1.2065 -0.9559  1.4830
   51MOL   H33419434   3.670   5.297   2.955 -1.4216  1.0425 -1.8756
   51MOL   H33519435   3.715   5.157   3.122 -0.8090  0.0304 -0.2590
   51MOL   H33619436   3.586   5.261   3.195  0.7132  4.0334  1.8294
   51MOL   H33719437   3.719   5.108   3.347  1.2696 -0.2103 -0.0767
   51MOL   H33819438   3.856   5.194   3.306 -0.1001  1.5782  0.9664
   51MOL   H33919439   3.621   5.324   3.458 -1.2578  0.1638 -2.2551
   51MOL   H34019440   3.754   5.416   3.394 -2.3287  1.1768  2.2282
   51MOL   H34119441   3.813   5.368   3.625 -2.3135  0.6753 -1.0979
   51MOL   H34219442   3.917   5.274   3.524 -1.0075 -0.8832 -2.5333
   51MOL   H34319443   3.776   5.190   3.593  1.0752 -1.3545 -1.2292
   51MOL   C34419444   3.682   5.511   2.973  0.8618 -0.0011 -0.4081
   51MOL   C34519445   3.547   5.533   3.043  0.1410  0.1701  0.4139
   51MOL   O34619446   3.446   5.487   2.947  0.0410  0.0037  0.1685
   51MOL   C34719447   3.374   5.367   2.981  0.5409 -0.0133  0.4418
   51MOL   C34819448   3.300   5.322   2.848  0.8065 -0.6624  0.0942
   51MOL   C34919449   3.397   5.289   2.735  0.3657 -0.4569  0.2452
   51MOL   C35019450   3.319   5.207   2.631  0.3813  0.2551 -0.5199
   51MOL   H35119451   3.759   5.576   3.014  1.4771 -0.4035 -0.9285
   51MOL   H35219452   3.675   5.541   2.869  2.7228 -1.1674 -0.8974
   51MOL   H35319453   3.563   5.488   3.141  0.0951  0.9993  0.8035
   51MOL   H35419454   3.298   5.404   3.049 -1.8457  2.6803 -3.4544
   51MOL   H35519455   3.431   5.288   3.029  1.5946 -1.0849 -2.4275
   51MOL   H35619456   3.234   5.401   2.812  0.2545 -1.9372 -1.7834
   51MOL   H35719457   3.233   5.241   2.875  1.0612 -0.6207  0.8547
   51MOL   H35819458   3.441   5.377   2.688  0.1166 -0.1847  0.5181
   51MOL   H35919459   3.483   5.234   2.772  1.0592  0.6138  0.2316
   51MOL   H36019460   3.284   5.111   2.668 -1.9063  1.3181  0.2153
   51MOL   H36119461   3.393   5.178   2.556  2.4386 -0.5781  1.7863
   51MOL   H36219462   3.229   5.253   2.590 -0.5453 -1.4391 -0.4304
   51MOL   C36319463   3.501   5.675   3.077 -0.5477 -0.1309 -0.5593
   51MOL   C36419464   3.396   5.690   3.188  0.2470  0.3229  0.2883
   51MOL   O36519465   3.356   5.828   3.206 -0.3324  0.5305  0.3974
   51MOL   C36619466   3.257   5.834   3.306  0.0462 -0.2530  0.1945
   51MOL   C36719467   3.199   5.977   3.295 -0.2074 -0.5240 -0.7894
   51MOL   C36819468   3.111   5.989   3.172  0.1579 -0.1632  0.4341
   51MOL   C36919469   3.087   6.129   3.130  0.6288 -0.2330 -0.3201
   51MOL   H37019470   3.468   5.718   2.982  1.2256  1.3077 -0.5524
   51MOL   H37119471   3.589   5.728   3.113 -1.3124  0.1767  0.8755
   51MOL   H37219472   3.436   5.650   3.281  1.2881  1.0377  0.1507
   51MOL   H37319473   3.292   5.805   3.404 -0.3338 -0.6799  0.2067
   51MOL   H37419474   3.186   5.755   3.282 -0.6392 -0.3790  2.5461
   51MOL   H37519475   3.275   6.054   3.298 -1.1534  0.4916 -2.3084
   51MOL   H37619476   3.136   5.992   3.383  1.9012  0.5884  0.5854
   51MOL   H37719477   3.015   5.940   3.187  0.5282 -1.2087 -0.6069
   51MOL   H37819478   3.157   5.928   3.095 -1.0445  1.2103 -1.4196
   51MOL   H37919479   3.040   6.190   3.208  1.2840 -0.5045  0.2916
   51MOL   H38019480   3.181   6.174   3.098  0.2597  1.1874  0.5514
   51MOL   H38119481   3.027   6.130   3.039 -0.4510  0.0167  0.3732
   51MOL   H38219482   3.311   5.628   3.157  0.2070  0.7918 -0.5523
   52MOL     C119483   2.284   3.077   5.382 -0.2511  0.0414 -0.0791
   52MOL     C219484   2.150   3.103   5.310  0.5996 -0.2883 -0.6910
   52MOL     O319485   2.132   3.245   5.314 -0.1367  0.2293 -0.1529
   52MOL     C419486   2.035   3.270   5.403 -0.1941 -0.1219  0.4267
   52MOL     C519487   1.998   3.411   5.396 -0.6344 -0.0828 -0.2328
   52MOL     C619488   1.904   3.440   5.281  0.7914  0.1283  0.4560
   52MOL     C719489   1.872   3.590   5.265 -0.4330 -0.0179 -0.2315
   52MOL     H819490   2.304   2.972   5.403  0.4361 -0.3415 -2.4054
   52MOL     H919491   2.372   3.110   5.327  1.6907 -1.3865  2.0705
   52MOL    H1019492   2.074   3.049   5.367 -0.9564  0.8529 -1.6235
   52MOL    H1119493   1.946   3.208   5.393  0.8049 -1.5343  0.0936
   52MOL    H1219494   2.073   3.247   5.503 -0.2229  0.5797  0.6009
   52MOL    H1319495   2.090   3.470   5.396  0.9064 -2.3605  1.9399
   52MOL    H1419496   1.961   3.427   5.497 -2.1728 -1.9286 -0.4633
   52MOL    H1519497   1.805   3.397   5.300  1.2216 -0.6644  0.9278
   52MOL    H1619498   1.931   3.399   5.184 -1.2458 -2.9380  1.1312
   52MOL    H1719499   1.846   3.641   5.358  1.2854  1.1797 -0.3785
   52MOL    H1819500   1.789   3.614   5.198  0.3822  1.8231 -0.6106
   52MOL    H1919501   1.947   3.660   5.230  1.3629 -0.8005  1.9658
   52MOL    H2019502   2.284   3.139   5.471 -2.4110  0.2329 -0.2054
   52MOL    C2119503   2.150   3.044   5.172 -0.0129  0.4097  0.2458
   52MOL    C2219504   2.019   3.050   5.084  0.4228  0.2869  0.3779
   52MOL    O2319505   2.040   2.994   4.956 -0.1729  1.2062  0.2381
   52MOL    C2419506   2.047   3.085   4.859 -0.2333  1.1108  0.4170
   52MOL    C2519507   2.082   2.997   4.739  0.4894 -0.3253 -0.6652
   52MOL    C2619508   2.085   3.084   4.607 -0.5340 -0.0347 -0.5825
   52MOL    C2719509   2.197   3.190   4.592  0.4997  0.4823  0.1486
   52MOL    H2819510   2.173   2.938   5.175 -0.2660  0.3832  1.9605
   52MOL    H2919511   2.235   3.084   5.116  1.7903 -2.4422  0.8354
   52MOL    H3019512   1.989   3.155   5.078  1.2176  0.4935  0.0408
   52MOL    H3119513   2.123   3.161   4.880  1.1220 -0.0284 -0.3220
   52MOL    H3219514   1.949   3.130   4.844 -1.6521 -1.5542  1.4120
   52MOL    H3319515   2.180   2.950   4.734 -0.4056 -2.1764 -1.1486
   52MOL    H3419516   2.009   2.920   4.713 -1.0480  0.5898  0.7731
   52MOL    H3519517   2.096   3.017   4.521  1.4380  0.0507 -0.4142
   52MOL    H3619518   1.989   3.132   4.587 -0.6095 -0.1490 -0.4915
   52MOL    H3719519   2.195   3.262   4.673  0.3971 -1.2746  1.7266
   52MOL    H3819520   2.292   3.137   4.601 -0.3997 -0.8474  2.3133
   52MOL    H3919521   2.200   3.239   4.494  1.0186  1.7955  0.8141
   52MOL    C4019522   1.904   2.958   5.141 -1.1747  0.9075  0.1521
   52MOL    C4119523   1.768   2.958   5.064 -0.8139 -0.5495 -0.3109
   52MOL    O4219524   1.735   3.101   5.065 -0.2052 -0.3753 -0.2224
   52MOL    C4319525   1.644   3.146   4.964  0.6317  0.0098  0.1506
   52MOL    C4419526   1.640   3.298   4.956 -0.7497  0.4157  0.1033
   52MOL    C4519527   1.518   3.355   5.036 -0.2053  0.1623 -0.0425
   52MOL    C4619528   1.483   3.499   5.007 -0.3390  0.1390 -0.4208
   52MOL    H4719529   1.885   2.983   5.245 -0.0824  2.7361 -0.0708
   52MOL    H4819530   1.933   2.853   5.134  1.6709  1.5893  0.9633
   52MOL    H4919531   1.784   2.925   4.961 -2.3117  1.4428 -1.2090
   52MOL    H5019532   1.542   3.109   4.973  1.0264 -1.4228 -1.0028
   52MOL    H5119533   1.684   3.109   4.869  0.7210  0.8505 -0.1431
   52MOL    H5219534   1.628   3.318   4.850  0.3252  0.4286 -0.0187
   52MOL    H5319535   1.738   3.338   4.982 -0.6556  0.5528 -0.4502
   52MOL    H5419536   1.538   3.350   5.143  0.7103  0.8577 -0.1761
   52MOL    H5519537   1.432   3.297   5.001  1.4675 -1.2829 -1.9051
   52MOL    H5619538   1.388   3.530   5.051 -1.3365 -1.8723 -1.1294
   52MOL    H5719539   1.551   3.561   5.065  0.7379 -0.7472 -0.7063
   52MOL    H5819540   1.484   3.529   4.902  1.6162 -0.2477 -0.5421
   52MOL    C5919541   1.662   2.875   5.149 -0.3415  0.8608  0.4644
   52MOL    C6019542   1.655   2.730   5.118  0.3941  0.4455  0.0920
   52MOL    O6119543   1.728   2.663   5.219  0.5640  0.3268  0.1563
   52MOL    C6219544   1.836   2.586   5.178  0.0785  0.4244  0.3768
   52MOL    C6319545   1.914   2.556   5.314  0.0217 -0.7818 -0.0552
   52MOL    C6419546   1.954   2.678   5.399 -0.1724  0.8984  0.2441
   52MOL    C6519547   2.044   2.650   5.514 -0.6369  0.6855  0.3177
   52MOL    H6619548   1.661   2.897   5.256  2.6849 -2.7434  1.3480
   52MOL    H6719549   1.574   2.926   5.111  2.5110  3.7437 -2.5538
   52MOL    H6819550   1.687   2.717   5.015  0.2002  2.0735 -0.1827
   52MOL    H6919551   1.907   2.628   5.107  0.8340  0.6839  1.2772
   52MOL    H7019552   1.801   2.501   5.120  3.6338  0.2686 -1.6975
   52MOL    H7119553   1.862   2.489   5.382 -1.0429 -0.3037 -0.3790
   52MOL    H7219554   2.006   2.503   5.291 -0.2652 -2.2973  2.1947
   52MOL    H7319555   2.003   2.746   5.329 -0.2510  2.0181  1.2669
   52MOL    H7419556   1.864   2.734   5.423 -1.9395 -1.1815 -1.3219
   52MOL    H7519557   2.085   2.740   5.558 -0.5695  1.2474 -0.8843
   52MOL    H7619558   1.983   2.611   5.595 -1.4376  0.4546 -0.3816
   52MOL    H7719559   2.131   2.593   5.481 -0.6227  1.5390 -1.1577
   52MOL    C7819560   1.509   2.682   5.104  0.4095 -0.5992  0.1191
   52MOL    C7919561   1.496   2.550   5.025 -0.9159 -0.2179  0.2372
   52MOL    O8019562   1.509   2.605   4.889 -0.2272 -0.2990  0.3993
   52MOL    C8119563   1.604   2.552   4.804  0.7226  0.0861  0.1237
   52MOL    C8219564   1.608   2.649   4.684  0.5186  0.4837  0.1050
   52MOL    C8319565   1.689   2.773   4.708  0.3813 -0.5679  0.2531
   52MOL    C8419566   1.710   2.850   4.570 -0.5294  0.2573  0.2189
   52MOL    H8519567   1.443   2.756   5.057  0.1333 -0.5369  0.6028
   52MOL    H8619568   1.464   2.664   5.202  1.0260 -0.5511  0.4113
   52MOL    H8719569   1.582   2.492   5.059 -1.1614  0.2255  1.6070
   52MOL    H8819570   1.578   2.455   4.761 -1.3385  0.8394 -0.3697
   52MOL    H8919571   1.706   2.540   4.842  0.6241 -0.3691  0.2431
   52MOL    H9019572   1.676   2.603   4.612  2.1324  1.1554  1.1664
   52MOL    H9119573   1.510   2.655   4.636  1.5764  2.0482 -1.9156
   52MOL    H9219574   1.785   2.756   4.758  1.3492  0.1213 -1.3462
   52MOL    H9319575   1.634   2.833   4.781 -0.1066 -0.9633  0.2073
   52MOL    H9419576   1.736   2.953   4.593 -2.3891  0.6440  0.6647
   52MOL    H9519577   1.786   2.807   4.505  0.2123  1.1790  0.4760
   52MOL    H9619578   1.621   2.850   4.506  0.4372  1.2122 -1.1391
   52MOL    C9719579   1.363   2.472   5.053 -0.2215 -0.2941 -0.0479
   52MOL    C9819580   1.356   2.335   4.990  0.0939  0.7633 -1.2527
   52MOL    O9919581   1.367   2.343   4.842  1.0325  0.5544  0.0260
   52MOL   C10019582   1.271   2.414   4.764 -0.9948  0.2948  0.7706
   52MOL   C10119583   1.315   2.388   4.622 -0.0093 -0.0174 -0.1935
   52MOL   C10219584   1.230   2.449   4.507  0.0929 -0.6314 -0.4658
   52MOL   C10319585   1.263   2.600   4.487 -0.3538  0.5008  0.4104
   52MOL   H10419586   1.282   2.539   5.025 -0.0910  0.1716  0.6729
   52MOL   H10519587   1.346   2.462   5.160  2.3000 -2.0980  0.2349
   52MOL   H10619588   1.266   2.277   5.011  1.3638 -0.6162  0.5630
   52MOL   H10719589   1.271   2.520   4.792 -1.8980  0.4107  0.3429
   52MOL   H10819590   1.170   2.376   4.781 -0.9228 -0.5505 -0.6459
   52MOL   H10919591   1.291   2.282   4.621 -2.1309  0.4442 -0.2745
   52MOL   H11019592   1.421   2.402   4.599  0.2996 -1.3627  0.3504
   52MOL   H11119593   1.127   2.444   4.544  0.0155  3.0026 -0.0728
   52MOL   H11219594   1.246   2.392   4.415  1.9697  0.3047 -0.7416
   52MOL   H11319595   1.201   2.661   4.422  0.2340  0.7046  0.0294
   52MOL   H11419596   1.232   2.645   4.581  0.0847 -0.5566  1.0772
   52MOL   H11519597   1.367   2.626   4.467 -1.1160  2.9005 -0.6668
   52MOL   C11619598   1.462   2.234   5.029  0.1909  0.1289  0.1246
   52MOL   C11719599   1.449   2.083   4.996  0.9611  0.3539 -0.3121
   52MOL   O11819600   1.587   2.028   4.984  0.6778  0.1426  0.0482
   52MOL   C11919601   1.653   2.051   4.859 -0.1236  0.3026  0.4989
   52MOL   C12019602   1.756   1.936   4.851  0.7263  0.0800  0.2579
   52MOL   C12119603   1.817   1.929   4.714  0.3548  0.2242 -0.0019
   52MOL   C12219604   1.956   1.871   4.719  0.6863 -0.2300  0.1288
   52MOL   H12319605   1.555   2.278   4.993  0.2566 -1.1075 -1.2532
   52MOL   H12419606   1.454   2.234   5.137 -3.3879  0.1600 -0.0767
   52MOL   H12519607   1.395   2.074   4.902 -0.1018 -1.9059  0.4841
   52MOL   H12619608   1.700   2.148   4.847 -0.3151  0.0666 -2.5889
   52MOL   H12719609   1.577   2.041   4.781  0.3236 -0.5291  0.1709
   52MOL   H12819610   1.727   1.837   4.886  2.7089 -1.6829 -2.9006
   52MOL   H12919611   1.833   1.970   4.921  2.0291  0.1286 -1.1669
   52MOL   H13019612   1.751   1.886   4.638 -0.8400  2.6840 -0.4015
   52MOL   H13119613   1.818   2.024   4.662  0.1290 -0.6927 -1.7365
   52MOL   H13219614   2.024   1.938   4.772  2.4681 -1.3110 -0.7075
   52MOL   H13319615   1.987   1.844   4.618  0.1349  1.3448 -0.4702
   52MOL   H13419616   1.959   1.772   4.766  0.5145  0.3811  1.4393
   52MOL   C13519617   1.373   2.009   5.103  0.3208  0.7128 -0.4274
   52MOL   C13619618   1.314   1.871   5.054 -0.1936  0.0909 -0.0952
   52MOL   O13719619   1.210   1.898   4.955 -0.0896  0.3594 -0.4068
   52MOL   C13819620   1.090   1.966   4.996  0.5194  0.5223  0.3610
   52MOL   C13919621   1.005   1.943   4.878 -0.3003 -1.0825  0.8279
   52MOL   C14019622   0.867   2.010   4.884 -0.1693  0.8335  0.1250
   52MOL   C14119623   0.811   2.054   4.757 -0.4060  0.0129 -0.1938
   52MOL   H14219624   1.295   2.065   5.156  1.8712  2.7488 -0.2411
   52MOL   H14319625   1.446   1.995   5.183 -3.3344  1.7768  3.2895
   52MOL   H14419626   1.263   1.813   5.131 -4.4287  0.4908 -2.4511
   52MOL   H14519627   1.094   2.074   5.014 -0.2501  0.2699  2.0449
   52MOL   H14619628   1.040   1.924   5.082  1.3182 -0.7092  0.2407
   52MOL   H14719629   1.000   1.834   4.867 -1.7321 -0.9834  0.4660
   52MOL   H14819630   1.061   1.981   4.793  0.9578  0.3334  2.2638
   52MOL   H14919631   0.798   1.941   4.933 -0.9054  0.0360 -2.0119
   52MOL   H15019632   0.886   2.097   4.947 -2.0345  1.4086 -0.0845
   52MOL   H15119633   0.895   2.081   4.693  1.3409  3.0794  3.1723
   52MOL   H15219634   0.784   1.961   4.707 -0.9283 -0.6493  1.2619
   52MOL   H15319635   0.722   2.117   4.759 -0.7817 -0.5221  1.8349
   52MOL   C15419636   1.416   1.786   4.991  0.0648  0.3331 -0.1219
   52MOL   C15519637   1.358   1.652   4.958  0.0416 -0.1353  0.5116
   52MOL   O15619638   1.339   1.573   5.072  1.0153  0.0414 -0.1415
   52MOL   C15719639   1.208   1.511   5.086 -0.5978 -0.9667  0.5236
   52MOL   C15819640   1.222   1.412   5.201 -0.7607 -0.1466  0.0205
   52MOL   C15919641   1.289   1.280   5.165  0.0838  0.3986 -0.0879
   52MOL   C16019642   1.311   1.207   5.292  0.4898  0.0948  0.2363
   52MOL   H16119643   1.504   1.769   5.053  0.5168 -0.6677 -1.0364
   52MOL   H16219644   1.452   1.837   4.901 -0.7962 -0.1652 -0.7498
   52MOL   H16319645   1.271   1.658   4.893 -0.1344 -0.0513  0.7517
   52MOL   H16419646   1.128   1.583   5.095  1.0832  0.9758  0.2114
   52MOL   H16519647   1.182   1.450   4.999  1.3480 -1.1880  0.0726
   52MOL   H16619648   1.130   1.400   5.258 -0.5200  2.1547  0.9609
   52MOL   H16719649   1.284   1.465   5.275 -2.6935  0.6478  1.1133
   52MOL   H16819650   1.226   1.222   5.098  0.9060  1.5179 -1.8487
   52MOL   H16919651   1.383   1.295   5.113  0.0076  0.3034 -0.2509
   52MOL   H17019652   1.386   1.253   5.357  0.4234  0.1072  0.3035
   52MOL   H17119653   1.221   1.178   5.345 -0.2432  1.4023 -0.2670
   52MOL   H17219654   1.373   1.121   5.267  3.1640  2.0637 -0.3096
   52MOL   C17319655   1.445   1.564   4.876 -0.1190  0.2315  0.5745
   52MOL   C17419656   1.470   1.616   4.729 -0.0026  0.4789  0.0138
   52MOL   O17519657   1.575   1.544   4.668 -0.8791  0.5153 -0.6002
   52MOL   C17619658   1.708   1.571   4.719  0.1018 -0.4703 -0.3258
   52MOL   C17719659   1.797   1.481   4.640 -0.1828  0.0665  0.0155
   52MOL   C17819660   1.784   1.334   4.683 -0.5971  0.1750 -0.6600
   52MOL   C17919661   1.874   1.231   4.604  0.3207 -0.3451 -0.5072
   52MOL   H18019662   1.394   1.467   4.875  0.1193  0.1088 -0.0707
   52MOL   H18119663   1.540   1.542   4.925 -0.0298  0.6590  0.5963
   52MOL   H18219664   1.509   1.717   4.718  1.3298 -0.2888 -2.7951
   52MOL   H18319665   1.717   1.551   4.825  1.9181 -0.1028 -0.4021
   52MOL   H18419666   1.736   1.675   4.703 -1.3341  0.1338  0.9622
   52MOL   H18519667   1.898   1.520   4.645  0.2253 -0.6032 -2.3421
   52MOL   H18619668   1.769   1.489   4.535 -0.3477 -1.7398 -0.0916
   52MOL   H18719669   1.816   1.326   4.787 -0.9091  0.7438 -0.5187
   52MOL   H18819670   1.678   1.310   4.686 -0.4491 -0.6431 -1.5740
   52MOL   H18919671   1.861   1.125   4.627  1.6188 -0.5216 -0.5783
   52MOL   H19019672   1.845   1.233   4.499 -1.7891  0.5349  0.0605
   52MOL   H19119673   1.980   1.257   4.608 -0.4236  3.2086 -1.9945
   52MOL   C19219674   1.348   1.587   4.628 -0.3194 -0.0229 -0.2929
   52MOL   C19319675   1.310   1.433   4.608  0.3901  0.3381 -0.8428
   52MOL   O19419676   1.205   1.415   4.708 -0.3181  0.2723  0.1230
   52MOL   C19519677   1.200   1.289   4.770  0.6778  0.6359  0.4495
   52MOL   C19619678   1.174   1.165   4.687  0.0437 -0.4126  0.3955
   52MOL   C19719679   1.167   1.036   4.769  0.3174 -0.4448  0.6169
   52MOL   C19819680   1.290   0.980   4.832  0.0978 -0.7326  0.2985
   52MOL   H19919681   1.378   1.627   4.531  0.6605  3.0774  1.2103
   52MOL   H20019682   1.263   1.646   4.663 -0.6958  0.0166 -1.2644
   52MOL   H20119683   1.395   1.367   4.625 -0.4246 -0.4676  0.1686
   52MOL   H20219684   1.130   1.291   4.854 -2.1142  1.9345 -1.8357
   52MOL   H20319685   1.296   1.272   4.818  0.8475  1.0626  0.2627
   52MOL   H20419686   1.080   1.185   4.636 -0.6899 -3.0431  0.6308
   52MOL   H20519687   1.253   1.158   4.613 -1.0730 -0.0748 -0.8323
   52MOL   H20619688   1.134   0.952   4.708 -0.3769 -1.5509  2.5006
   52MOL   H20719689   1.096   1.049   4.850  1.4039 -0.9670  1.6589
   52MOL   H20819690   1.284   0.883   4.881 -1.2540 -0.0633  1.5046
   52MOL   H20919691   1.364   0.960   4.754  1.0244  0.8949  0.7341
   52MOL   H21019692   1.335   1.049   4.904 -1.4297 -0.7365  1.2692
   52MOL   C21119693   1.259   1.409   4.468 -0.1883  0.5803 -0.1785
   52MOL   C21219694   1.384   1.374   4.383  0.3844 -0.4409 -0.4928
   52MOL   O21319695   1.420   1.237   4.402  0.6367 -0.4324 -0.1780
   52MOL   C21419696   1.555   1.209   4.417 -0.0715  0.5261 -0.0962
   52MOL   C21519697   1.577   1.060   4.418 -0.3028 -0.1481 -0.5109
   52MOL   C21619698   1.571   0.986   4.280 -0.7992  0.3786  0.1320
   52MOL   C21719699   1.620   0.845   4.289 -1.3865  0.4161  0.3591
   52MOL   H21819700   1.204   1.498   4.437 -2.2452 -0.2517  0.9653
   52MOL   H21919701   1.187   1.327   4.471 -0.7505  1.0979  1.0162
   52MOL   H22019702   1.476   1.419   4.420  0.4946  0.3410 -1.7098
   52MOL   H22119703   1.615   1.238   4.331 -1.5991 -0.4223 -1.5110
   52MOL   H22219704   1.594   1.255   4.507 -0.2025  0.4640 -0.0068
   52MOL   H22319705   1.676   1.046   4.460 -0.5715  1.2218  0.6006
   52MOL   H22419706   1.509   1.016   4.491 -0.9215  1.5043 -0.0769
   52MOL   H22519707   1.642   1.033   4.213 -1.3767  1.7583  0.4637
   52MOL   H22619708   1.473   1.004   4.235  0.4462  1.7324 -2.0996
   52MOL   H22719709   1.607   0.792   4.195 -1.5043 -0.0484  0.6365
   52MOL   H22819710   1.558   0.785   4.356  0.0231 -3.3946 -1.6020
   52MOL   H22919711   1.723   0.855   4.324 -1.6462 -0.3374  1.3671
   52MOL   C23019712   1.363   1.399   4.228 -0.3838  0.3058 -0.2329
   52MOL   C23119713   1.307   1.545   4.187 -0.0436 -0.1452 -0.5933
   52MOL   O23219714   1.384   1.654   4.243  0.2072  0.2414  0.6378
   52MOL   C23319715   1.530   1.646   4.234  0.8239  0.3951  0.5669
   52MOL   C23419716   1.588   1.766   4.305  0.3698  0.1260 -0.2247
   52MOL   C23519717   1.731   1.791   4.266  0.2816  0.3622  0.5070
   52MOL   C23619718   1.778   1.924   4.324  0.3268 -0.0851  0.4238
   52MOL   H23719719   1.304   1.322   4.179  0.5805 -0.4594 -0.2174
   52MOL   H23819720   1.464   1.380   4.191  1.4539  0.5645  4.2745
   52MOL   H23919721   1.204   1.558   4.220  0.6813  0.3272  1.5398
   52MOL   H24019722   1.576   1.555   4.274 -0.3507 -0.2827  0.4091
   52MOL   H24119723   1.552   1.642   4.127  0.2768 -1.4716  0.4953
   52MOL   H24219724   1.525   1.851   4.277  1.0901  0.3569 -1.1977
   52MOL   H24319725   1.574   1.751   4.411 -2.1408  0.2265 -0.5104
   52MOL   H24419726   1.753   1.776   4.160  1.4313  0.1339  0.7681
   52MOL   H24519727   1.787   1.717   4.323 -2.0002  0.5087  3.0821
   52MOL   H24619728   1.887   1.929   4.335  0.2851  0.5893  0.5793
   52MOL   H24719729   1.738   1.952   4.422  1.7759  0.3217  0.9188
   52MOL   H24819730   1.752   2.008   4.259  2.4231  0.6754  0.5102
   52MOL   C24919731   1.320   1.566   4.039 -0.3209  0.1548 -0.7591
   52MOL   C25019732   1.269   1.696   3.986 -0.2054  0.0393  0.2532
   52MOL   O25119733   1.131   1.701   3.992  0.7453 -0.3925 -0.0555
   52MOL   C25219734   1.081   1.757   4.111  0.2257 -0.3360 -0.3106
   52MOL   C25319735   1.039   1.902   4.092 -0.1336 -0.0037  0.4936
   52MOL   C25419736   1.003   1.951   4.232 -0.1666  0.4849 -0.1053
   52MOL   C25519737   0.952   2.096   4.235 -0.5634  0.2573 -0.0660
   52MOL   H25619738   1.263   1.491   3.983  0.3941 -0.8336 -0.1629
   52MOL   H25719739   1.417   1.548   3.993  0.3431 -2.2612  1.4312
   52MOL   H25819740   1.314   1.779   4.040 -2.4264  0.0365  2.2041
   52MOL   H25919741   1.148   1.748   4.196 -1.1948  0.0568  0.8624
   52MOL   H26019742   0.998   1.700   4.151 -0.2120 -0.1856 -0.9977
   52MOL   H26119743   1.122   1.964   4.058  1.6548 -2.5156  0.2095
   52MOL   H26219744   0.958   1.910   4.020  1.3991  0.6622 -1.1758
   52MOL   H26319745   0.922   1.887   4.266  0.9858  0.6868  3.1726
   52MOL   H26419746   1.080   1.947   4.310 -0.7356 -0.6086  0.4095
   52MOL   H26519747   0.931   2.124   4.338 -0.2621  1.7301 -0.3981
   52MOL   H26619748   0.867   2.100   4.166 -0.1024 -1.0293 -0.7288
   52MOL   H26719749   1.023   2.163   4.186  0.6496 -1.6081 -0.9008
   52MOL   C26819750   1.301   1.713   3.837 -0.5249  0.1364  0.6784
   52MOL   C26919751   1.447   1.736   3.793  0.3526  0.9806 -0.0762
   52MOL   O27019752   1.468   1.747   3.649 -0.0497 -0.4562  0.2842
   52MOL   C27119753   1.454   1.621   3.575 -0.4384 -0.0410 -0.0007
   52MOL   C27219754   1.440   1.639   3.427 -0.2428  0.6932  0.2238
   52MOL   C27319755   1.335   1.748   3.389 -0.4967 -0.1301  0.3942
   52MOL   C27419756   1.289   1.738   3.246  0.1394 -0.2972 -0.5671
   52MOL   H27519757   1.274   1.616   3.794  1.5328 -0.7155  1.2636
   52MOL   H27619758   1.253   1.789   3.777  2.2580  2.3335  1.1495
   52MOL   H27719759   1.513   1.656   3.825  0.3339  1.0968  0.2504
   52MOL   H27819760   1.516   1.539   3.610 -0.7311 -0.5204 -0.6014
   52MOL   H27919761   1.353   1.591   3.605 -0.2764  0.4217  1.0545
   52MOL   H28019762   1.541   1.654   3.390 -0.2330 -0.2575 -0.1328
   52MOL   H28119763   1.419   1.541   3.384 -0.2888 -1.2315  4.3950
   52MOL   H28219764   1.376   1.848   3.406 -0.5914  0.1384 -0.8849
   52MOL   H28319765   1.242   1.746   3.446 -0.0177 -0.3055  1.1695
   52MOL   H28419766   1.371   1.787   3.195  1.3332 -1.3920  0.2579
   52MOL   H28519767   1.189   1.779   3.229 -0.3972 -2.4840 -3.0153
   52MOL   H28619768   1.282   1.633   3.218 -0.3293 -0.5408  0.4366
   52MOL   C28719769   1.502   1.862   3.863 -0.0757 -0.5566  0.4297
   52MOL   C28819770   1.656   1.886   3.833 -0.5832 -0.0748  0.3243
   52MOL   O28919771   1.728   1.811   3.930 -0.2218 -0.5865  0.1986
   52MOL   C29019772   1.784   1.683   3.888  0.1941  0.0557 -0.2859
   52MOL   C29119773   1.923   1.709   3.833  0.3051  0.0763 -0.4839
   52MOL   C29219774   1.972   1.575   3.772 -0.1825  0.3419  0.3685
   52MOL   C29319775   1.889   1.525   3.649  0.2777  0.3211  0.5473
   52MOL   H29419776   1.481   1.876   3.969  0.0512  1.6077  0.1778
   52MOL   H29519777   1.447   1.949   3.827 -3.8234 -3.2792 -0.7236
   52MOL   H29619778   1.681   1.861   3.730 -1.5088 -1.7621  0.4838
   52MOL   H29719779   1.795   1.618   3.975 -1.4313 -0.6021 -0.5553
   52MOL   H29819780   1.724   1.626   3.818 -0.5709 -0.6556  0.9352
   52MOL   H29919781   1.994   1.738   3.911 -1.0271 -1.9519  1.5744
   52MOL   H30019782   1.910   1.787   3.758  0.2560  1.9449  1.4180
   52MOL   H30119783   2.000   1.506   3.851  0.0465 -0.8582 -0.7443
   52MOL   H30219784   2.067   1.595   3.724 -1.1555  2.4307 -0.7748
   52MOL   H30319785   1.942   1.439   3.608 -0.9213 -0.5971  0.8946
   52MOL   H30419786   1.792   1.488   3.683 -0.7062  3.9910  1.9616
   52MOL   H30519787   1.890   1.590   3.562 -0.9329  0.2690  0.4917
   52MOL   C30619788   1.700   2.035   3.856 -0.2150 -0.3171 -0.2460
   52MOL   C30719789   1.836   2.083   3.799  0.4492  0.0920 -0.4695
   52MOL   O30819790   1.857   2.225   3.823  0.1850 -0.9553  0.2448
   52MOL   C30919791   1.886   2.258   3.959 -0.0762  0.0050 -0.8972
   52MOL   C31019792   1.957   2.393   3.971 -0.0534 -0.3131  0.5184
   52MOL   C31119793   1.856   2.505   3.998 -0.1900  0.7527 -0.1708
   52MOL   C31219794   1.919   2.644   4.010  0.1303 -0.3603 -0.3349
   52MOL   H31319795   1.627   2.108   3.822  0.1693  0.3815  0.4001
   52MOL   H31419796   1.698   2.042   3.965  0.1631  1.7146 -0.3482
   52MOL   H31519797   1.920   2.020   3.826 -1.4096 -3.1898 -2.1357
   52MOL   H31619798   1.949   2.177   3.997 -2.4402 -1.0127  0.9847
   52MOL   H31719799   1.798   2.258   4.024  0.9207 -1.4435  0.5132
   52MOL   H31819800   2.025   2.397   3.886  0.1341  1.1717  0.7287
   52MOL   H31919801   2.012   2.398   4.066 -0.4487  1.5064  0.6563
   52MOL   H32019802   1.780   2.508   3.920 -0.6410 -0.4166  0.2197
   52MOL   H32119803   1.795   2.487   4.086 -0.5392 -0.5377 -0.6557
   52MOL   H32219804   1.998   2.673   3.941  0.8965 -0.1734  0.6036
   52MOL   H32319805   1.971   2.643   4.106  0.5320  1.2254 -0.5274
   52MOL   H32419806   1.836   2.715   4.009  0.9856  0.6507 -0.5268
   52MOL   C32519807   1.848   2.077   3.641 -0.5383  0.4236  0.3803
   52MOL   C32619808   1.985   2.107   3.579 -0.2332 -0.1458  0.5266
   52MOL   O32719809   2.073   2.004   3.621  0.1407 -0.5475 -0.2882
   52MOL   C32819810   2.198   2.055   3.662 -0.0621  0.4038  0.4626
   52MOL   C32919811   2.285   1.930   3.703 -0.1990  0.5557  0.1871
   52MOL   C33019812   2.248   1.895   3.848 -1.0943 -0.3613 -0.4145
   52MOL   C33119813   2.330   1.771   3.905  0.3302 -0.4377 -0.2563
   52MOL   H33219814   1.778   2.151   3.603 -1.0018 -0.5917 -0.7821
   52MOL   H33319815   1.817   1.980   3.602 -0.2067  0.5984 -0.3483
   52MOL   H33419816   2.012   2.207   3.614  2.2969 -0.2598 -0.9729
   52MOL   H33519817   2.180   2.126   3.742 -1.0963 -1.5953  2.0694
   52MOL   H33619818   2.234   2.104   3.572 -2.5248 -0.7266 -1.1878
   52MOL   H33719819   2.267   1.842   3.641  3.1290 -0.1701  0.1934
   52MOL   H33819820   2.391   1.945   3.684 -0.3908  2.0673  0.2426
   52MOL   H33919821   2.141   1.879   3.861 -0.8094 -2.7672 -0.6949
   52MOL   H34019822   2.272   1.985   3.906 -0.5665 -0.5566 -0.3215
   52MOL   H34119823   2.314   1.697   3.826 -1.3712  1.3175 -1.6073
   52MOL   H34219824   2.290   1.728   3.996 -0.8391 -1.0901 -1.0639
   52MOL   H34319825   2.435   1.799   3.917  0.0976  0.3875 -0.1026
   52MOL   C34419826   1.984   2.112   3.432 -0.2180 -0.2554 -0.0723
   52MOL   C34519827   2.075   2.215   3.361  0.2831  0.2394 -0.5488
   52MOL   O34619828   2.008   2.344   3.372 -0.3328 -0.5025 -0.4569
   52MOL   C34719829   2.088   2.439   3.453 -0.1840 -0.2483  0.4973
   52MOL   C34819830   2.000   2.562   3.495 -0.4268 -0.3855 -0.0971
   52MOL   C34919831   1.870   2.519   3.569  0.2315 -0.1007 -0.6512
   52MOL   C35019832   1.805   2.635   3.634  0.3795 -0.0060 -0.4327
   52MOL   H35119833   2.011   2.013   3.396  1.8845 -1.3725  4.2324
   52MOL   H35219834   1.882   2.136   3.402  0.3188 -0.2434 -1.9525
   52MOL   H35319835   2.173   2.214   3.409 -0.0070 -0.9952  0.0432
   52MOL   H35419836   2.174   2.464   3.390 -0.6835  0.6168  0.1623
   52MOL   H35519837   2.118   2.384   3.542 -0.8643 -1.5598 -0.0669
   52MOL   H35619838   1.964   2.627   3.415 -1.9015 -0.8537  0.1642
   52MOL   H35719839   2.052   2.625   3.567  0.6311 -1.4290  0.0666
   52MOL   H35819840   1.803   2.475   3.495  0.1186  0.0586 -0.6430
   52MOL   H35919841   1.884   2.433   3.634 -0.0015  0.9182  0.7517
   52MOL   H36019842   1.788   2.702   3.550 -0.1536  1.3283  0.7256
   52MOL   H36119843   1.870   2.690   3.703 -0.9235  2.6314 -1.2342
   52MOL   H36219844   1.716   2.607   3.690  1.9179 -3.7343  0.3021
   52MOL   C36319845   2.088   2.178   3.207  0.4636 -0.2559  0.0396
   52MOL   C36419846   2.186   2.067   3.186  0.0485  0.0183 -0.2406
   52MOL   O36519847   2.312   2.100   3.230  0.4538 -0.2392 -0.1742
   52MOL   C36619848   2.411   1.995   3.229  0.4628 -0.1353  0.5109
   52MOL   C36719849   2.546   2.039   3.286  0.1158  0.2186  0.2446
   52MOL   C36819850   2.630   2.126   3.195 -1.2329 -0.3062  0.6521
   52MOL   C36919851   2.773   2.151   3.245  0.7046 -0.2001 -0.2824
   52MOL   H37019852   2.129   2.266   3.156 -0.9019  0.1035 -0.4663
   52MOL   H37119853   1.990   2.159   3.162 -0.2792 -0.9468  1.9212
   52MOL   H37219854   2.197   2.046   3.080 -0.0810  3.2187 -0.9394
   52MOL   H37319855   2.428   1.960   3.128 -1.3810 -0.1659  0.1792
   52MOL   H37419856   2.368   1.914   3.289  0.7270 -0.4010  0.3363
   52MOL   H37519857   2.598   1.945   3.302 -0.1620  0.2171  1.1267
   52MOL   H37619858   2.543   2.080   3.387 -0.9225  0.8428 -0.0233
   52MOL   H37719859   2.566   2.208   3.162 -1.5918 -0.8766 -0.0997
   52MOL   H37819860   2.643   2.071   3.101 -0.0989  0.5965  0.2807
   52MOL   H37919861   2.828   2.058   3.258 -2.5758 -1.7868  3.3247
   52MOL   H38019862   2.830   2.219   3.183 -0.6543  2.6030  1.4501
   52MOL   H38119863   2.777   2.204   3.340 -2.6703  0.1226 -0.2594
   52MOL   H38219864   2.142   1.980   3.235 -1.0545  0.6636 -0.0689
   53MOL     C119865   1.067   2.135   6.883 -0.2830 -0.2460 -0.2253
   53MOL     C219866   1.053   2.159   7.034 -0.2078 -0.1649 -0.7010
   53MOL     O319867   0.990   2.051   7.103 -0.4680  0.2155  0.1198
   53MOL     C419868   0.858   2.014   7.052  0.3705 -0.7598  0.1745
   53MOL     C519869   0.763   2.133   7.045 -0.0782  1.2712  0.6722
   53MOL     C619870   0.736   2.195   7.181 -0.0375 -0.1084 -0.0833
   53MOL     C719871   0.612   2.281   7.195 -0.2653 -0.2648 -0.1553
   53MOL     H819872   1.125   2.218   6.841  0.8353 -0.5827  0.6131
   53MOL     H919873   1.111   2.036   6.866 -0.1129 -0.2116  0.0200
   53MOL    H1019874   1.001   2.253   7.054  1.0246  0.2189  0.7555
   53MOL    H1119875   0.871   1.966   6.956 -0.8386 -1.1296  0.1805
   53MOL    H1219876   0.825   1.932   7.116 -1.0497 -0.1662  0.2399
   53MOL    H1319877   0.665   2.104   7.007 -0.0393  2.9909 -0.8375
   53MOL    H1419878   0.794   2.217   6.982 -2.8569  0.5824 -1.7449
   53MOL    H1519879   0.825   2.249   7.212 -2.1449  2.8871  0.9314
   53MOL    H1619880   0.727   2.113   7.252  0.5099 -0.0549  0.0526
   53MOL    H1719881   0.588   2.311   7.297  1.5112 -1.0120  0.4932
   53MOL    H1819882   0.522   2.232   7.158 -1.2493  0.1786  1.5911
   53MOL    H1919883   0.630   2.365   7.129 -0.1179  1.6328  2.2331
   53MOL    H2019884   0.974   2.144   6.828  0.1608 -1.3148 -1.1771
   53MOL    C2119885   1.187   2.173   7.105  0.7981  0.4040 -0.0297
   53MOL    C2219886   1.183   2.233   7.249 -0.1118  0.5068  0.2773
   53MOL    O2319887   1.289   2.173   7.330 -0.0045 -0.2415  0.5274
   53MOL    C2419888   1.250   2.125   7.456 -0.2881 -0.5407  0.1609
   53MOL    C2519889   1.370   2.086   7.539 -0.1038 -1.2160 -0.7543
   53MOL    C2619890   1.438   2.209   7.610  0.8087 -0.1009  0.1141
   53MOL    C2719891   1.558   2.179   7.690  0.3937  0.0055  0.0300
   53MOL    H2819892   1.253   2.238   7.047  1.4642  1.1069  1.4701
   53MOL    H2919893   1.229   2.073   7.110 -0.1768  0.0130  0.3867
   53MOL    H3019894   1.093   2.199   7.300  0.6456 -1.2884  0.4665
   53MOL    H3119895   1.194   2.033   7.439 -2.5522  1.0394 -1.2299
   53MOL    H3219896   1.186   2.188   7.518 -0.6350  0.4886 -1.2360
   53MOL    H3319897   1.344   2.015   7.617  2.6100  0.0159  1.3752
   53MOL    H3419898   1.449   2.041   7.479  1.7443  0.1816  0.5683
   53MOL    H3519899   1.471   2.280   7.534 -1.6087  1.6147  0.6047
   53MOL    H3619900   1.366   2.271   7.663 -0.1331 -2.4742  1.7115
   53MOL    H3719901   1.643   2.153   7.626  0.4278 -1.4884  0.6610
   53MOL    H3819902   1.582   2.264   7.755 -2.0098  0.7724 -0.0599
   53MOL    H3919903   1.542   2.094   7.755 -1.4724 -2.1444 -3.1426
   53MOL    C4019904   1.219   2.387   7.255  0.4639  0.3633  0.3971
   53MOL    C4119905   1.174   2.460   7.381 -0.1959  0.1700 -0.3411
   53MOL    O4219906   1.031   2.445   7.388  0.0023 -0.3255  0.0762
   53MOL    C4319907   0.978   2.423   7.519 -0.0528 -0.2644  0.4874
   53MOL    C4419908   0.832   2.461   7.497 -0.8280 -0.1405  0.8166
   53MOL    C4519909   0.803   2.610   7.479 -0.0774 -0.3265  0.6242
   53MOL    C4619910   0.666   2.633   7.427  0.4216 -0.4622  0.2873
   53MOL    H4719911   1.184   2.442   7.167 -0.8855 -0.0010  0.6848
   53MOL    H4819912   1.327   2.386   7.264  0.2675 -0.7803  3.4737
   53MOL    H4919913   1.233   2.419   7.463 -0.5170 -0.1098 -0.2488
   53MOL    H5019914   1.021   2.480   7.602  0.5163  0.3530 -0.2199
   53MOL    H5119915   1.010   2.321   7.541  0.7910 -0.7834 -2.8968
   53MOL    H5219916   0.778   2.426   7.585  0.3852 -1.6190  0.9902
   53MOL    H5319917   0.812   2.402   7.407  2.4650 -0.8159  0.4550
   53MOL    H5419918   0.871   2.649   7.404 -0.3970  1.5517  1.2774
   53MOL    H5519919   0.818   2.663   7.573 -0.0353 -1.6919  1.4003
   53MOL    H5619920   0.598   2.588   7.499 -1.1737  2.2910  0.5808
   53MOL    H5719921   0.638   2.739   7.426  0.1388 -0.5320  0.5610
   53MOL    H5819922   0.642   2.588   7.331  0.1076 -2.1825  1.1554
   53MOL    C5919923   1.202   2.607   7.383  0.2220 -0.4246  0.3855
   53MOL    C6019924   1.349   2.656   7.375  0.2522 -0.5111  0.2747
   53MOL    O6119925   1.379   2.675   7.236 -0.1558  0.5248  0.2545
   53MOL    C6219926   1.510   2.633   7.181 -0.0087  0.0196  0.9598
   53MOL    C6319927   1.508   2.655   7.028 -0.3270 -0.5347 -0.0717
   53MOL    C6419928   1.648   2.636   6.974  0.0249  0.0023  0.0071
   53MOL    C6519929   1.661   2.716   6.848  0.1120  0.0558  0.0087
   53MOL    H6619930   1.142   2.656   7.306 -0.4335 -1.6447  0.0958
   53MOL    H6719931   1.158   2.640   7.477 -0.0900 -0.1257  0.1352
   53MOL    H6819932   1.421   2.587   7.419  2.9924  0.8365 -1.9142
   53MOL    H6919933   1.529   2.526   7.197  1.4565  0.2292  0.6508
   53MOL    H7019934   1.592   2.693   7.219  0.6868  0.3205 -0.9739
   53MOL    H7119935   1.433   2.587   6.988 -0.5234  0.5398 -1.5599
   53MOL    H7219936   1.476   2.756   7.003  0.0038 -0.6320 -0.9041
   53MOL    H7319937   1.718   2.686   7.041 -0.5406  1.0939 -0.2060
   53MOL    H7419938   1.658   2.529   6.952 -0.1789 -0.3145  1.3890
   53MOL    H7519939   1.588   2.682   6.775  3.6009  0.3684 -3.7799
   53MOL    H7619940   1.655   2.825   6.852 -4.3815 -0.0639 -0.4235
   53MOL    H7719941   1.756   2.699   6.797 -0.5032 -0.0312 -1.1134
   53MOL    C7819942   1.351   2.792   7.441 -0.5813  0.5094  0.4827
   53MOL    C7919943   1.488   2.873   7.440  0.2129 -0.2039 -0.4888
   53MOL    O8019944   1.586   2.805   7.512 -0.9185 -0.5206 -0.2868
   53MOL    C8119945   1.723   2.831   7.475 -0.5675 -0.0033  0.1002
   53MOL    C8219946   1.789   2.914   7.579 -0.7293  0.1191  0.1860
   53MOL    C8319947   1.940   2.920   7.560 -0.0501 -0.6619 -0.2517
   53MOL    C8419948   2.008   2.973   7.687  0.0080 -0.6021 -0.6275
   53MOL    H8519949   1.312   2.787   7.542 -1.9706  1.5203  0.0093
   53MOL    H8619950   1.275   2.852   7.391 -0.5309  0.2238  0.0567
   53MOL    H8719951   1.525   2.871   7.337  0.0834  0.1989 -0.5453
   53MOL    H8819952   1.734   2.846   7.368  0.0586 -0.1070  0.1544
   53MOL    H8919953   1.771   2.736   7.497 -0.3098  0.1405  0.1526
   53MOL    H9019954   1.757   3.018   7.580  2.0522  1.0214 -0.6508
   53MOL    H9119955   1.775   2.874   7.679  3.6468 -1.1691  0.3948
   53MOL    H9219956   1.966   2.973   7.468 -1.6004  0.0678 -0.2961
   53MOL    H9319957   1.967   2.815   7.569 -1.3209 -0.9234  0.7026
   53MOL    H9419958   1.989   2.915   7.777 -1.2378  1.3937  0.4120
   53MOL    H9519959   2.116   2.976   7.677  0.5892 -0.6417  4.4538
   53MOL    H9619960   1.972   3.074   7.702  0.0581 -0.4295 -1.6131
   53MOL    C9719961   1.474   3.025   7.480  0.2211  0.4638  0.3953
   53MOL    C9819962   1.527   3.113   7.356  0.4455 -0.9374 -0.0947
   53MOL    O9919963   1.423   3.110   7.263 -0.2508 -0.6778 -0.2873
   53MOL   C10019964   1.451   3.102   7.120  0.2700 -0.0695 -0.3670
   53MOL   C10119965   1.320   3.118   7.045  0.5698 -0.0962 -0.3416
   53MOL   C10219966   1.220   3.002   7.070  0.1232  0.8036 -0.2621
   53MOL   C10319967   1.079   3.031   7.014 -0.0323  0.3275 -0.6577
   53MOL   H10419968   1.543   3.043   7.562  1.3015  0.5141 -0.5214
   53MOL   H10519969   1.373   3.052   7.511 -0.4988 -0.7187 -0.8658
   53MOL   H10619970   1.618   3.069   7.316  0.4963  0.5112 -1.6485
   53MOL   H10719971   1.496   3.003   7.111  1.1823  0.3059  0.0166
   53MOL   H10819972   1.525   3.178   7.091 -1.1805  0.6300 -2.3732
   53MOL   H10919973   1.349   3.109   6.940  0.2225  0.5472 -0.4908
   53MOL   H11019974   1.269   3.210   7.074  0.0780 -0.3640 -0.3522
   53MOL   H11119975   1.207   2.993   7.178  2.9712  0.5173  0.0983
   53MOL   H11219976   1.261   2.908   7.034  1.5782  1.4215 -0.2649
   53MOL   H11319977   1.068   3.034   6.905  1.8189 -0.1042 -0.8765
   53MOL   H11419978   1.014   2.953   7.053  0.6717 -0.6499 -1.4101
   53MOL   H11519979   1.038   3.120   7.061  1.0150 -0.1274  1.1469
   53MOL   C11619980   1.549   3.265   7.391 -0.2849 -1.2584  0.2528
   53MOL   C11719981   1.417   3.348   7.419  0.3547  0.1945 -0.0179
   53MOL   O11819982   1.436   3.436   7.530  0.0614  0.2649 -0.5621
   53MOL   C11919983   1.441   3.387   7.668 -0.3896  0.1009  0.4197
   53MOL   C12019984   1.480   3.496   7.766  0.6628  0.8387 -0.4108
   53MOL   C12119985   1.462   3.442   0.107 -0.3919  0.2449  0.2441
   53MOL   C12219986   1.529   3.527   0.214  0.2346 -0.6762 -0.5582
   53MOL   H12319987   1.605   3.267   7.485 -0.6177 -1.7145  0.4616
   53MOL   H12419988   1.607   3.319   7.315 -0.6692 -0.3879  0.5720
   53MOL   H12519989   1.326   3.289   7.435  1.5121 -1.8396 -0.7395
   53MOL   H12619990   1.510   3.305   7.688  0.1647  0.0043 -1.7131
   53MOL   H12719991   1.339   3.356   7.687 -0.7810  1.3693  0.4712
   53MOL   H12819992   1.403   3.574   7.762 -0.7727 -0.3889  2.3612
   53MOL   H12919993   1.582   3.532   7.749  0.6577  1.9245  1.7181
   53MOL   H13019994   1.354   3.426   0.116  0.0845 -4.2011 -0.7783
   53MOL   H13119995   1.508   3.343   0.106 -1.9218 -0.4845  0.2987
   53MOL   H13219996   1.504   3.485   0.311 -1.6320  2.4504  0.3755
   53MOL   H13319997   1.483   3.625   0.207 -1.5856 -1.3284  1.7501
   53MOL   H13419998   1.634   3.548   0.195  0.5961 -0.1220  1.8702
   53MOL   C13519999   1.380   3.448   7.306 -0.2924  0.0750  0.4903
   53MOL   C13620000   1.245   3.517   7.316  1.0095 -0.4875  0.4400
   53MOL   O13720001   1.219   3.616   7.210 -0.3268  0.0278 -0.5734
   53MOL   C13820002   1.290   3.739   7.231  0.3560  1.2012  0.2979
   53MOL   C13920003   1.271   3.828   7.106 -1.7349 -0.1006  0.1935
   53MOL   C14020004   1.127   3.882   7.104  0.6687  0.2860 -0.1313
   53MOL   C14120005   1.123   4.001   7.010 -0.2768  0.0342 -0.2493
   53MOL   H14220006   1.401   3.405   7.208 -0.4595  0.0805  0.4523
   53MOL   H14320007   1.461   3.520   7.313 -0.6193  0.2852  2.5520
   53MOL   H14420008   1.246   3.569   7.411 -2.5463 -0.7227  0.6754
   53MOL   H14520009   1.397   3.729   7.249  0.8743  0.9727 -2.7607
   53MOL   H14620010   1.258   3.787   7.323 -0.2594  1.7816 -0.2219
   53MOL   H14720011   1.287   3.767   7.017 -1.3200  0.2867  0.0016
   53MOL   H14820012   1.338   3.913   7.096  1.2625 -2.1998  1.4397
   53MOL   H14920013   1.058   3.801   7.082 -1.0164  1.4439  0.8081
   53MOL   H15020014   1.094   3.918   7.202 -1.7034  1.7785 -1.4304
   53MOL   H15120015   1.022   4.043   7.007 -0.2945  0.0713  0.8910
   53MOL   H15220016   1.208   4.068   7.023  0.8173 -1.5736  1.0552
   53MOL   H15320017   1.121   3.964   6.907 -0.9153 -0.5649 -0.0247
   53MOL   C15420018   1.113   3.438   7.310  0.6015 -0.5200  0.1820
   53MOL   C15520019   0.984   3.511   7.357  0.6131  0.3862  0.2936
   53MOL   O15620020   1.003   3.542   7.490 -0.2515  0.1216  0.3911
   53MOL   C15720021   0.923   3.641   7.541 -0.9288  0.5696  0.8234
   53MOL   C15820022   0.926   3.650   7.688 -0.8009 -0.4845  0.0252
   53MOL   C15920023   1.065   3.693   7.741  0.2527 -0.7346  0.9990
   53MOL   C16020024   1.091   3.681   0.094 -0.6912 -0.3061 -0.1429
   53MOL   H16120025   1.127   3.339   7.355 -1.2154 -0.6061  0.5610
   53MOL   H16220026   1.111   3.411   7.204  0.4539 -1.9315  0.5346
   53MOL   H16320027   0.968   3.601   7.297  0.0842 -0.0006 -0.1560
   53MOL   H16420028   0.945   3.737   7.494 -2.1703 -0.1240 -1.2489
   53MOL   H16520029   0.823   3.611   7.511 -0.7817  0.6661  0.2309
   53MOL   H16620030   0.886   3.557   7.728  0.0421 -1.7491 -1.9879
   53MOL   H16720031   0.854   3.726   7.719 -0.8289 -0.3769 -0.3010
   53MOL   H16820032   1.139   3.633   7.688 -1.9732 -1.3346 -1.5845
   53MOL   H16920033   1.094   3.795   7.715 -1.8242 -0.3009  0.2744
   53MOL   H17020034   1.094   3.577   0.126  2.0485  0.6141  2.9866
   53MOL   H17120035   1.183   3.722   0.136  0.8341 -4.0892  0.3857
   53MOL   H17220036   1.009   3.713   0.159  0.9143  0.5428  1.5213
   53MOL   C17320037   0.856   3.421   7.329  0.6598  0.4493  0.1035
   53MOL   C17420038   0.785   3.437   7.194  0.4571 -0.2344  0.3781
   53MOL   O17520039   0.870   3.415   7.082 -0.6846  0.1893  0.6970
   53MOL   C17620040   0.847   3.509   6.978 -0.4663 -0.1569  0.7322
   53MOL   C17720041   0.939   3.467   6.857 -0.2787  0.3714  0.0707
   53MOL   C17820042   1.082   3.505   6.881 -0.0931 -0.7449  0.2420
   53MOL   C17920043   1.184   3.430   6.797 -0.7053  0.0341 -0.1168
   53MOL   H18020044   0.792   3.435   7.416 -0.5657 -0.6918 -0.6065
   53MOL   H18120045   0.892   3.318   7.335  0.7868  0.4433 -0.7385
   53MOL   H18220046   0.770   3.545   7.202  1.2203 -0.1473  0.6861
   53MOL   H18320047   0.861   3.610   7.018 -2.6963  0.3307  0.3234
   53MOL   H18420048   0.739   3.504   6.961 -0.2146  1.8744 -1.8693
   53MOL   H18520049   0.913   3.506   6.759  0.4354  1.2322  0.2222
   53MOL   H18620050   0.927   3.361   6.835  0.4791  0.1459  0.7118
   53MOL   H18720051   1.096   3.610   6.854 -2.0917 -0.2541  1.0345
   53MOL   H18820052   1.100   3.502   6.988  2.5155  2.1088 -0.0489
   53MOL   H18920053   1.170   3.422   6.690 -0.6757  0.5697 -0.1620
   53MOL   H19020054   1.290   3.455   6.808  0.0154 -2.3057 -1.3754
   53MOL   H19120055   1.189   3.327   6.833 -1.4234 -0.1277 -0.4758
   53MOL   C19220056   0.658   3.363   7.175 -0.0585  0.1206 -0.6766
   53MOL   C19320057   0.542   3.396   7.276  0.3509  0.7159 -0.1686
   53MOL   O19420058   0.522   3.538   7.272 -0.5856 -0.1821  0.4041
   53MOL   C19520059   0.450   3.581   7.389  0.0743 -0.2840 -0.7921
   53MOL   C19620060   0.469   3.732   7.399 -0.1728  0.4568  0.1074
   53MOL   C19720061   0.384   3.778   7.520  0.4308  0.3052  0.1917
   53MOL   C19820062   0.378   3.932   7.513 -0.2485  0.0607  0.1692
   53MOL   H19920063   0.679   3.257   7.178 -2.1270 -0.3011 -0.2738
   53MOL   H20020064   0.614   3.386   7.077 -1.0064 -0.0553 -0.2956
   53MOL   H20120065   0.574   3.368   7.376 -0.1177  0.8100  0.0095
   53MOL   H20220066   0.488   3.536   7.480 -0.2766 -2.0397 -1.5000
   53MOL   H20320067   0.344   3.556   7.382 -0.1125 -0.1535  1.3012
   53MOL   H20420068   0.572   3.761   7.417  0.7250 -2.3610 -0.3231
   53MOL   H20520069   0.449   3.776   7.302  0.1563  1.9459  0.6982
   53MOL   H20620070   0.422   3.747   7.617  0.0322  1.5362  0.7504
   53MOL   H20720071   0.281   3.743   7.513  0.2753  0.4036  1.9208
   53MOL   H20820072   0.321   3.976   7.431  1.1215 -1.6414 -1.7209
   53MOL   H20920073   0.330   3.981   7.598  0.5522 -0.8408  1.1550
   53MOL   H21020074   0.474   3.983   7.521 -0.7064  0.6826  2.0714
   53MOL   C21120075   0.417   3.310   7.249  1.0989  0.4217  0.5774
   53MOL   C21220076   0.428   3.172   7.313 -0.1639  0.8034 -0.1479
   53MOL   O21320077   0.403   3.183   7.449 -0.1790 -0.0065 -0.0415
   53MOL   C21420078   0.470   3.095   7.530  0.6214  0.5732 -0.2494
   53MOL   C21520079   0.390   3.101   7.662  0.5053  0.2811 -0.1141
   53MOL   C21620080   0.396   3.231   7.732  0.1582 -0.1129  0.6738
   53MOL   C21720081   0.316   3.234   0.055  0.6414  0.6112  0.4040
   53MOL   H21820082   0.406   3.307   7.141  1.4711  0.2171  0.5425
   53MOL   H21920083   0.320   3.340   7.288 -0.5850 -2.7468 -0.9600
   53MOL   H22020084   0.531   3.138   7.303 -0.2302 -0.4251  2.8136
   53MOL   H22120085   0.471   2.992   7.496  0.9524  0.3768  0.3471
   53MOL   H22220086   0.570   3.135   7.546  0.7363  0.2191 -0.0932
   53MOL   H22320087   0.286   3.081   7.635  0.4941 -0.9768  0.8189
   53MOL   H22420088   0.421   3.018   7.724  1.3873  0.7873  0.1290
   53MOL   H22520089   0.366   3.311   7.664 -1.1863 -0.9480  0.2699
   53MOL   H22620090   0.499   3.262   7.753 -0.2386  2.0256 -0.3609
   53MOL   H22720091   0.326   3.319   0.123 -1.5390 -0.0406  1.5740
   53MOL   H22820092   0.312   3.145   0.118 -0.1641 -0.2777 -0.8906
   53MOL   H22920093   0.209   3.239   0.034  0.6896  3.4146  0.6269
   53MOL   C23020094   0.333   3.060   7.256 -0.0380 -0.3835  0.0784
   53MOL   C23120095   0.375   3.004   7.113  0.1113  0.5297 -0.0425
   53MOL   O23220096   0.484   2.918   7.141 -0.0555 -0.2919  1.1172
   53MOL   C23320097   0.586   2.944   7.054  0.0916  0.8438  0.7595
   53MOL   C23420098   0.717   2.872   7.079 -0.1279 -0.5143 -0.0046
   53MOL   C23520099   0.690   2.723   7.065 -0.8967  0.4218  0.6175
   53MOL   C23620100   0.812   2.632   7.074  0.5577  0.6748  0.8658
   53MOL   H23720101   0.232   3.099   7.260 -0.3386 -1.1643  0.2273
   53MOL   H23820102   0.340   2.975   7.325 -0.1383 -0.3374  0.1449
   53MOL   H23920103   0.392   3.084   7.041 -0.8783  1.0817  0.3346
   53MOL   H24020104   0.562   2.921   6.951  0.8063 -1.4242  1.0712
   53MOL   H24120105   0.612   3.050   7.055 -1.3854  1.2396 -0.8281
   53MOL   H24220106   0.792   2.905   7.008  1.0531  0.7098  1.7530
   53MOL   H24320107   0.755   2.895   7.179 -0.7945  1.1935 -0.1161
   53MOL   H24420108   0.643   2.700   6.969 -0.9148 -0.6012  0.8721
   53MOL   H24520109   0.613   2.697   7.137 -0.3135 -0.3694  0.9656
   53MOL   H24620110   0.898   2.685   7.031  0.3151  0.3530 -0.0303
   53MOL   H24720111   0.799   2.532   7.032  2.6153 -0.4381  2.7434
   53MOL   H24820112   0.832   2.605   7.178 -0.7999  1.7336  1.4078
   53MOL   C24920113   0.252   2.934   7.056 -0.2648  0.4232  1.3016
   53MOL   C25020114   0.267   2.878   6.917 -0.8625 -0.0987  0.1111
   53MOL   O25120115   0.253   2.982   6.823 -0.4086  0.3038  0.1004
   53MOL   C25220116   0.371   3.020   6.754 -0.3703 -0.4246  0.4375
   53MOL   C25320117   0.331   3.117   6.642  1.4809  0.0781  0.0224
   53MOL   C25420118   0.374   3.078   6.497 -0.0247  0.9072  0.2721
   53MOL   C25520119   0.317   3.174   6.390 -0.0676 -0.1007 -0.0293
   53MOL   H25620120   0.169   3.005   7.050  1.5156  2.4406 -0.8839
   53MOL   H25720121   0.232   2.850   7.121  0.8606 -0.3408  0.6904
   53MOL   H25820122   0.369   2.842   6.908 -1.2644 -1.1849 -0.1681
   53MOL   H25920123   0.415   2.934   6.704 -2.0195 -1.0261 -0.0191
   53MOL   H26020124   0.438   3.075   6.820  0.6423  1.7782 -2.3290
   53MOL   H26120125   0.222   3.125   6.643  1.6268  2.4923 -0.2453
   53MOL   H26220126   0.371   3.217   6.658  0.9249  0.3061  0.0238
   53MOL   H26320127   0.483   3.071   6.492 -0.0957 -1.3432  1.4964
   53MOL   H26420128   0.338   2.977   6.478 -1.8678  1.5926  0.0186
   53MOL   H26520129   0.266   3.112   6.317  0.2144 -0.3177 -0.0432
   53MOL   H26620130   0.394   3.234   6.340  2.1065 -2.6226  0.1932
   53MOL   H26720131   0.241   3.237   6.436  1.6836 -1.1180  4.4707
   53MOL   C26820132   0.171   2.756   6.875 -0.6551 -0.6461  0.6503
   53MOL   C26920133   0.214   2.615   6.902 -0.9121 -0.4900  0.3863
   53MOL   O27020134   0.198   2.591   7.041 -0.4375 -0.6501 -0.0178
   53MOL   C27120135   0.303   2.542   7.116  0.0102  0.5049  0.1018
   53MOL   C27220136   0.258   2.499   7.256  0.2649 -0.0336 -0.0442
   53MOL   C27320137   0.206   2.603   7.347  0.2107 -0.3761 -0.8275
   53MOL   C27420138   0.308   2.695   7.404 -0.0837  0.4503 -0.4997
   53MOL   H27520139   0.076   2.776   6.924 -0.7376  2.8464 -0.7996
   53MOL   H27620140   0.150   2.769   6.769 -0.7689 -0.2739  0.7173
   53MOL   H27720141   0.317   2.597   6.872 -0.3887  1.4733  0.9187
   53MOL   H27820142   0.353   2.453   7.078  2.0198  0.8617  1.7922
   53MOL   H27920143   0.379   2.620   7.125 -2.1232  2.5810  0.6845
   53MOL   H28020144   0.188   2.415   7.248 -2.9895  2.7515 -2.1067
   53MOL   H28120145   0.339   2.444   7.303 -0.8731 -0.2787  1.6761
   53MOL   H28220146   0.142   2.561   7.425  1.1919 -2.3810 -1.0693
   53MOL   H28320147   0.138   2.663   7.286 -0.3227  0.6154  0.7338
   53MOL   H28420148   0.392   2.640   7.446 -2.1240 -0.8484  2.0400
   53MOL   H28520149   0.269   2.757   7.485 -2.0110 -0.0361 -1.0302
   53MOL   H28620150   0.345   2.753   7.319 -2.0976  1.7203 -0.5490
   53MOL   C28720151   0.124   2.514   6.830  0.0434 -0.0318  0.0150
   53MOL   C28820152   0.169   2.373   6.845 -0.4907 -0.3016 -0.0961
   53MOL   O28920153   0.298   2.360   6.789 -0.6667  0.3353  0.0761
   53MOL   C29020154   0.382   2.250   6.826 -0.9034 -0.2742 -0.1274
   53MOL   C29120155   0.517   2.243   6.755  0.1443 -0.0804  0.5012
   53MOL   C29220156   0.617   2.362   6.783 -0.1229 -0.2449  0.3336
   53MOL   C29320157   0.752   2.351   6.714 -0.4897 -0.3803 -0.8589
   53MOL   H29420158   0.115   2.524   6.722  0.3364 -1.1191 -0.1169
   53MOL   H29520159   0.024   2.535   6.868  0.2243  2.3900 -0.7674
   53MOL   H29620160   0.175   2.341   6.949 -2.8130  2.3085  0.9042
   53MOL   H29720161   0.410   2.238   6.931 -0.9002  2.1629  0.1790
   53MOL   H29820162   0.336   2.153   6.807  0.1857 -0.5314 -1.5142
   53MOL   H29920163   0.496   2.240   6.648 -0.3545  1.6449  0.5406
   53MOL   H30020164   0.569   2.153   6.788 -1.4624 -0.7739  1.1791
   53MOL   H30120165   0.639   2.370   6.890 -1.2211 -1.1235  0.6286
   53MOL   H30220166   0.561   2.453   6.760 -0.4961 -0.9889 -1.8052
   53MOL   H30320167   0.816   2.405   6.785 -3.1305  0.9239  0.6010
   53MOL   H30420168   0.789   2.249   6.705  2.6939  0.4673  1.6392
   53MOL   H30520169   0.766   2.409   6.624  1.9447  2.0320  0.9758
   53MOL   C30620170   0.082   2.275   6.769 -0.2523 -0.7049  0.1045
   53MOL   C30720171   7.735   2.301   6.773  0.5284  0.3412 -0.1740
   53MOL   O30820172   7.676   2.308   6.906  0.9079 -0.0639  0.2762
   53MOL   C30920173   7.671   2.194   6.991  0.5620  0.1772 -0.3504
   53MOL   C31020174   7.617   2.233   7.131 -0.0988 -1.2568 -0.1125
   53MOL   C31120175   7.704   2.340   7.189 -0.7432 -0.3562 -0.6625
   53MOL   C31220176   7.670   2.392   7.326 -0.5191 -0.1816  0.5467
   53MOL   H31320177   0.116   2.269   6.666 -2.0905  1.2424 -0.6552
   53MOL   H31420178   0.102   2.174   6.806 -1.4666  0.9921  5.9070
   53MOL   H31520179   7.719   2.399   6.728 -0.2227  1.2096  1.9003
   53MOL   H31620180   7.772   2.156   7.007 -0.6317 -3.4485 -0.9908
   53MOL   H31720181   7.620   2.104   6.956 -0.3157  0.6115 -0.2108
   53MOL   H31820182   7.609   2.142   7.189  0.8273  0.9181  3.6146
   53MOL   H31920183   7.518   2.273   7.107 -0.8072 -3.1410 -0.4155
   53MOL   H32020184   0.005   2.305   7.204 -0.4051  0.7389 -0.4085
   53MOL   H32120185   7.709   2.426   7.122  0.5734  0.1003  0.0181
   53MOL   H32220186   7.669   2.310   7.398  1.7443  0.6389  1.5763
   53MOL   H32320187   7.572   2.438   7.316 -0.4673 -0.3891 -0.9821
   53MOL   H32420188   7.734   2.474   7.360  0.8169 -0.6396 -0.8333
   53MOL   C32520189   7.667   2.196   6.684 -0.8570  0.2939 -0.1089
   53MOL   C32620190   7.514   2.208   6.658  0.4702 -0.2871  0.2330
   53MOL   O32720191   7.473   2.261   6.530  0.4053  0.4005  0.5769
   53MOL   C32820192   7.456   2.407   6.525 -0.0703 -0.5825 -0.5966
   53MOL   C32920193   7.428   2.450   6.374 -0.0367  0.2037  0.0583
   53MOL   C33020194   7.383   2.594   6.367 -0.5356 -0.6816  0.7081
   53MOL   C33120195   7.389   2.649   6.225 -0.1454  0.4851 -0.0327
   53MOL   H33220196   7.697   2.101   6.728 -0.0732  1.9036  2.9625
   53MOL   H33320197   7.725   2.199   6.591 -0.1755 -0.4361  0.2837
   53MOL   H33420198   7.472   2.272   6.736 -0.9058 -2.1004  1.0318
   53MOL   H33520199   7.547   2.452   6.566 -1.0910  1.7550 -0.7865
   53MOL   H33620200   7.368   2.444   6.579  0.1748 -0.9448  0.0531
   53MOL   H33720201   7.523   2.436   6.322  1.5210  2.3879  2.2247
   53MOL   H33820202   7.351   2.390   6.325 -0.4563  2.3225 -1.9478
   53MOL   H33920203   7.458   2.655   6.417  0.0063 -0.5209 -0.2824
   53MOL   H34020204   7.294   2.623   6.423 -1.6753  0.3138 -1.5231
   53MOL   H34120205   7.385   2.758   6.215  0.8200  0.5774  0.4842
   53MOL   H34220206   7.315   2.597   6.165  2.1708 -1.2111 -1.4995
   53MOL   H34320207   7.492   2.639   6.192 -0.0760 -3.2364  1.1272
   53MOL   C34420208   7.429   2.080   6.674 -0.5235 -0.0873  0.5860
   53MOL   C34520209   7.437   1.983   6.550 -0.1262  0.2433  0.5735
   53MOL   O34620210   7.383   1.856   6.590  0.3020  0.5015 -0.5013
   53MOL   C34720211   7.242   1.851   6.588  0.3164  0.0760  0.1373
   53MOL   C34820212   7.183   1.714   6.625 -0.0374 -0.0935 -0.5221
   53MOL   C34920213   7.217   1.613   6.509 -0.1123 -0.4240 -0.0731
   53MOL   C35020214   7.169   1.482   6.548 -0.3924 -0.9652  0.6554
   53MOL   H35120215   7.455   2.033   6.768  1.2818 -1.6574 -0.6751
   53MOL   H35220216   7.328   2.120   6.680 -1.4647 -2.1201 -1.0788
   53MOL   H35320217   7.365   2.017   6.474 -0.7324 -2.6389 -0.2069
   53MOL   H35420218   7.198   1.886   6.495 -2.6103  2.1363  2.2191
   53MOL   H35520219   7.207   1.920   6.664  0.4771 -0.1084  0.3771
   53MOL   H35620220   7.075   1.715   6.639 -0.0988 -0.3297 -0.9772
   53MOL   H35720221   7.225   1.696   6.724 -0.3897  0.5992 -0.2403
   53MOL   H35820222   7.180   1.646   6.412 -0.2728  0.2586  0.2171
   53MOL   H35920223   7.325   1.617   6.490  0.2737 -1.5910  1.7666
   53MOL   H36020224   7.185   1.459   6.653 -0.4839 -0.5032  0.7686
   53MOL   H36120225   7.216   1.402   6.490  0.8155 -0.4858  0.9550
   53MOL   H36220226   7.060   1.485   6.539 -0.3683 -1.7392 -0.0381
   53MOL   C36320227   7.584   1.950   6.498 -0.3400  0.5107  0.3788
   53MOL   C36420228   7.586   1.877   6.362  0.3826 -0.2762 -0.0274
   53MOL   O36520229   7.721   1.857   6.313 -0.3917 -0.1772 -0.7095
   53MOL   C36620230   7.717   1.793   6.183  0.2417 -0.1116 -0.0203
   53MOL   C36720231   0.063   1.775   6.142  0.1577  0.2166  0.3037
   53MOL   C36820232   0.142   1.904   6.119 -0.3765 -0.3920  0.7063
   53MOL   C36920233   0.289   1.874   6.088  0.2841 -0.2542 -0.4644
   53MOL   H37020234   7.630   1.889   6.575 -0.3769  0.5689  0.4481
   53MOL   H37120235   7.642   2.042   6.488 -1.5877  1.2964  0.2575
   53MOL   H37220236   7.525   1.938   6.296 -2.3279 -0.4394  2.2000
   53MOL   H37320237   7.667   1.855   6.108 -2.1361 -1.5924  0.2919
   53MOL   H37420238   7.660   1.701   6.195  0.6254 -0.4042 -0.4412
   53MOL   H37520239   0.059   1.728   6.044  1.5670  1.8718 -0.5739
   53MOL   H37620240   0.114   1.707   6.210 -2.4343  0.1826  2.3164
   53MOL   H37720241   0.146   1.970   6.206  2.4049  1.4238 -0.7462
   53MOL   H37820242   0.103   1.956   6.032 -0.8886 -2.0306 -0.0659
   53MOL   H37920243   0.321   1.798   6.159 -0.0934 -1.0102 -1.0959
   53MOL   H38020244   0.304   1.834   5.988  4.3553 -1.7182  0.6369
   53MOL   H38120245   0.352   1.962   6.097  0.1374 -0.3845  2.3687
   53MOL   H38220246   7.538   1.779   6.374  1.3437 -0.6359  1.0431
   54MOL     C120247   0.740   3.916   5.351  0.2706  0.6218 -0.3043
   54MOL     C220248   0.889   3.878   5.354 -0.6773  0.1495  0.6564
   54MOL     O320249   0.949   3.942   5.235  0.5675  0.4632  0.2611
   54MOL     C420250   0.918   3.890   5.105  0.1593 -0.4466  0.1178
   54MOL     C520251   1.028   3.815   5.031  0.3045  0.0298 -0.2658
   54MOL     C620252   1.147   3.897   4.993 -0.7407 -0.4032 -1.0094
   54MOL     C720253   1.244   3.840   4.892  0.0161 -0.4428 -0.1347
   54MOL     H820254   0.683   3.835   5.396  0.6840  0.3164 -0.3264
   54MOL     H920255   0.736   4.011   5.406  0.5724 -0.1612  1.1081
   54MOL    H1020256   0.903   3.773   5.327  1.6210  0.9034 -1.2596
   54MOL    H1120257   0.840   3.817   5.125 -0.9976  0.2694 -1.6378
   54MOL    H1220258   0.882   3.972   5.044 -0.6708 -0.4513  0.5951
   54MOL    H1320259   0.988   3.761   4.945 -1.5181  0.9185 -0.0038
   54MOL    H1420260   1.068   3.738   5.098 -0.0246  0.7666  0.7910
   54MOL    H1520261   1.207   3.913   5.083  0.9274  0.1326 -2.1924
   54MOL    H1620262   1.124   3.998   4.958  0.1849  0.0284 -0.3877
   54MOL    H1720263   1.183   3.819   4.804 -1.6415 -0.6496  1.0370
   54MOL    H1820264   1.300   3.747   4.906 -0.0952 -0.5957 -0.6861
   54MOL    H1920265   1.311   3.920   4.861  0.3598  0.0928  1.9181
   54MOL    H2020266   0.709   3.950   5.253  0.0994  1.4408  0.0274
   54MOL    C2120267   0.950   3.906   5.485  0.1081 -0.2881 -0.9124
   54MOL    C2220268   0.905   3.826   5.608 -0.8897  0.2925 -0.7020
   54MOL    O2320269   0.933   3.693   5.593 -0.4107 -0.0107 -0.4882
   54MOL    C2420270   1.065   3.652   5.633 -0.1783 -0.3378 -0.1884
   54MOL    C2520271   1.094   3.500   5.614 -0.0807  0.6126 -0.2931
   54MOL    C2620272   1.095   3.460   5.464  0.2816  0.5012  0.2153
   54MOL    C2720273   1.136   3.312   5.440 -0.1024  0.4187  0.2802
   54MOL    H2820274   0.931   4.011   5.510  2.8723  0.3832 -1.5006
   54MOL    H2920275   1.058   3.900   5.475  0.1400 -0.9717 -0.2167
   54MOL    H3020276   0.797   3.830   5.609 -0.8792  0.5953 -0.7843
   54MOL    H3120277   1.084   3.667   5.739  0.6179 -0.0336 -0.3744
   54MOL    H3220278   1.138   3.715   5.583 -2.1763  0.7593 -1.8187
   54MOL    H3320279   1.191   3.481   5.660 -0.1529 -0.2600 -0.4900
   54MOL    H3420280   1.016   3.443   5.665 -1.2235  1.3876 -1.1501
   54MOL    H3520281   0.993   3.481   5.432  0.1765 -2.0172 -1.2006
   54MOL    H3620282   1.162   3.528   5.411  2.7045 -2.2529 -0.3469
   54MOL    H3720283   1.132   3.280   5.335 -2.6945 -0.6988  0.6708
   54MOL    H3820284   1.233   3.289   5.483 -0.5587 -3.0202 -0.3498
   54MOL    H3920285   1.070   3.247   5.497 -0.8187 -0.5828 -1.6199
   54MOL    C4020286   0.936   3.888   5.744 -0.0062  0.9566  0.6167
   54MOL    C4120287   0.860   4.018   5.781  0.2736 -0.8892 -0.5786
   54MOL    O4220288   0.936   4.126   5.732 -0.4855  0.1756  0.4992
   54MOL    C4320289   0.864   4.248   5.692 -0.2989  0.3681  0.1477
   54MOL    C4420290   0.961   4.358   5.662 -0.0145 -0.6384  0.3481
   54MOL    C4520291   1.034   4.408   5.785 -0.0373  0.5862 -1.4907
   54MOL    C4620292   1.113   4.537   5.753 -0.9834 -0.3907  0.5556
   54MOL    H4720293   1.041   3.898   5.771 -0.2062  1.0616  1.3621
   54MOL    H4820294   0.900   3.817   5.818  0.9001  0.8738  0.9867
   54MOL    H4920295   0.761   4.015   5.734 -0.0886  1.6313 -0.0485
   54MOL    H5020296   0.788   4.282   5.762  0.6740  2.5522  0.1974
   54MOL    H5120297   0.809   4.223   5.602 -0.1964  3.5071 -0.8273
   54MOL    H5220298   0.914   4.441   5.610  0.5114  0.5136  1.6731
   54MOL    H5320299   1.033   4.320   5.590  1.0664 -0.5133  1.3440
   54MOL    H5420300   1.095   4.329   5.828  1.2077  0.7864 -2.8411
   54MOL    H5520301   0.963   4.441   5.861  1.1485 -0.5528  0.1182
   54MOL    H5620302   1.192   4.505   5.685 -1.4538  0.2338 -0.2940
   54MOL    H5720303   1.054   4.609   5.697 -0.8441 -0.8812 -0.2337
   54MOL    H5820304   1.150   4.593   5.839 -1.8310  0.3287  0.4685
   54MOL    C5920305   0.852   4.042   5.933  0.0269  0.3664  0.4042
   54MOL    C6020306   0.756   3.960   6.014 -0.5688  0.7372 -0.2545
   54MOL    O6120307   0.791   3.987   6.149  0.2056  0.4567  0.3016
   54MOL    C6220308   0.707   3.927   6.253 -0.0084 -0.2272 -0.2508
   54MOL    C6320309   0.770   3.954   6.384  0.3518  0.1830 -0.1922
   54MOL    C6420310   0.680   3.912   6.498  0.7958 -0.4802  0.2542
   54MOL    C6520311   0.754   3.937   6.633  0.0924  0.2391  0.1836
   54MOL    H6620312   0.955   4.040   5.968 -0.1453  2.1518  1.0564
   54MOL    H6720313   0.830   4.148   5.942  0.3246  0.4396  0.2922
   54MOL    H6820314   0.770   3.856   5.985 -1.4301  1.6355 -4.1272
   54MOL    H6920315   0.694   3.821   6.234  1.3437 -0.1329 -1.8334
   54MOL    H7020316   0.604   3.963   6.246  0.4578  0.5525 -4.5481
   54MOL    H7120317   0.861   3.895   6.393  0.6118  0.6928  0.5681
   54MOL    H7220318   0.799   4.058   6.402  1.0387  0.2979 -1.8971
   54MOL    H7320319   0.606   3.993   6.505 -0.4249 -1.2611 -2.6817
   54MOL    H7420320   0.634   3.816   6.477 -3.4296  1.4124  0.1812
   54MOL    H7520321   0.690   3.896   6.711 -0.4186 -0.1995 -0.4703
   54MOL    H7620322   0.848   3.882   6.628  0.7078  1.1916  0.8662
   54MOL    H7720323   0.772   4.042   6.655 -0.6883  0.2378  0.8479
   54MOL    C7820324   0.613   4.006   5.990  0.0113  0.3065 -0.1412
   54MOL    C7920325   0.506   3.900   5.996 -0.1210 -0.2100 -0.6689
   54MOL    O8020326   0.515   3.830   5.875  0.2979  0.3003 -0.0152
   54MOL    C8120327   0.558   3.695   5.886  0.3246 -0.2772 -0.3970
   54MOL    C8220328   0.569   3.644   5.740 -0.0231  0.3210  0.6214
   54MOL    C8320329   0.435   3.633   5.665 -0.5866  0.9507  0.0931
   54MOL    C8420330   0.360   3.506   5.709 -0.5612 -0.5798 -0.3500
   54MOL    H8520331   0.600   4.061   5.897 -0.4063  1.3312  0.5058
   54MOL    H8620332   0.599   4.086   6.063 -1.0105  0.3995 -0.4358
   54MOL    H8720333   0.519   3.834   6.081  0.5694  0.9323  0.1369
   54MOL    H8820334   0.484   3.630   5.934 -0.7735 -0.9046 -2.8506
   54MOL    H8920335   0.657   3.684   5.929  0.4810  0.3368 -0.6016
   54MOL    H9020336   0.632   3.713   5.684  0.7005 -0.4643  0.4548
   54MOL    H9120337   0.623   3.550   5.744 -1.1021 -0.2370  3.2471
   54MOL    H9220338   0.457   3.645   5.559  0.0893  0.5046  0.1715
   54MOL    H9320339   0.377   3.724   5.682  1.2538  2.2565 -0.4375
   54MOL    H9420340   0.430   3.426   5.684  1.3452  1.1544 -0.7303
   54MOL    H9520341   0.338   3.500   5.815  1.0492 -1.0439 -0.0288
   54MOL    H9620342   0.261   3.501   5.663 -1.3783 -0.6888  1.3818
   54MOL    C9720343   0.365   3.963   5.999  0.2854 -0.4792  0.9173
   54MOL    C9820344   0.257   3.860   6.031  0.0301 -0.0724  0.2633
   54MOL    O9920345   0.277   3.788   6.158  0.0040  0.7318 -0.7551
   54MOL   C10020346   0.287   3.863   6.271  0.2602 -0.1368 -0.7735
   54MOL   C10120347   0.299   3.772   6.396 -0.0495  0.3584 -0.2243
   54MOL   C10220348   0.298   3.853   6.527 -0.1913 -0.1602  0.2132
   54MOL   C10320349   0.242   3.773   6.655  0.1074 -0.5397  0.2235
   54MOL   H10420350   0.349   4.017   5.905  3.3627 -0.2441  0.4705
   54MOL   H10520351   0.358   4.033   6.081 -1.0552  2.1170 -1.3356
   54MOL   H10620352   0.270   3.783   5.955 -0.0918  0.3158 -0.1535
   54MOL   H10720353   0.195   3.920   6.287 -0.8390 -1.4245 -2.3088
   54MOL   H10820354   0.361   3.942   6.279  0.7199 -0.7916  1.8356
   54MOL   H10920355   0.391   3.715   6.384 -0.2104  0.1944 -0.7345
   54MOL   H11020356   0.214   3.703   6.399 -0.9506  1.4551 -0.0407
   54MOL   H11120357   0.237   3.941   6.512  2.3032  1.2259 -2.4316
   54MOL   H11220358   0.403   3.879   6.538  0.0075 -0.7472 -0.2552
   54MOL   H11320359   0.133   3.780   6.660  0.2473  0.6219  1.9715
   54MOL   H11420360   0.267   3.668   6.667  0.8129 -0.2826  1.0465
   54MOL   H11520361   0.283   3.835   6.734 -0.7508  0.0917  0.1905
   54MOL   C11620362   0.111   3.919   6.018 -0.4354 -0.2042 -0.6952
   54MOL   C11720363   0.066   3.994   5.889 -0.2678  0.2791 -0.6454
   54MOL   O11820364   0.129   4.121   5.877 -0.1389 -0.3061 -0.3383
   54MOL   C11920365   0.048   4.233   5.881 -0.0457  0.1871  0.2685
   54MOL   C12020366   0.134   4.361   5.870 -0.5987 -0.3779 -0.8450
   54MOL   C12120367   0.063   4.485   5.920 -0.6532 -0.3569 -0.2430
   54MOL   C12220368   0.139   4.615   5.907 -0.0531 -0.1562  0.7092
   54MOL   H12320369   0.034   3.842   6.025 -0.4966 -0.0861  0.0120
   54MOL   H12420370   0.093   3.986   6.103  2.4140  1.6010 -1.4470
   54MOL   H12520371   7.759   4.004   5.897  0.0377  2.5179  1.3021
   54MOL   H12620372   7.790   4.231   5.972 -2.7176  0.7420 -1.3943
   54MOL   H12720373   7.769   4.226   5.808  1.9247 -2.7587 -1.7345
   54MOL   H12820374   0.169   4.376   5.768 -0.6301 -1.0269 -0.9531
   54MOL   H12920375   0.229   4.351   5.923 -0.2373 -1.9520 -1.7783
   54MOL   H13020376   7.769   4.489   5.867 -0.7376 -1.3614 -0.1895
   54MOL   H13120377   0.022   4.467   6.020 -0.5822 -0.9282 -0.3128
   54MOL   H13220378   0.117   4.695   5.979  1.7619  0.6315  0.4095
   54MOL   H13320379   0.126   4.662   5.810  2.5043  1.4556  1.1091
   54MOL   H13420380   0.246   4.596   5.904  0.0368  0.4675  0.0046
   54MOL   C13520381   0.111   3.910   5.765 -0.3776  0.5288  0.5308
   54MOL   C13620382   0.066   3.952   5.631  0.0416  0.4792 -0.3124
   54MOL   O13720383   0.123   3.859   5.538 -0.7522  0.1589 -0.5016
   54MOL   C13820384   0.256   3.879   5.494 -0.3987 -0.9625  0.5188
   54MOL   C13920385   0.256   3.957   5.358  0.7299 -0.1779 -0.6842
   54MOL   C14020386   0.398   3.965   5.291  0.1557  0.4402 -0.0954
   54MOL   C14120387   0.417   4.086   5.199 -0.2879  0.6313 -0.7281
   54MOL   H14220388   0.077   3.807   5.774 -0.2019  0.5758  1.8300
   54MOL   H14320389   0.219   3.902   5.769 -0.2668  1.1984 -0.9842
   54MOL   H14420390   0.108   4.051   5.612  2.9626 -0.3012  1.5871
   54MOL   H14520391   0.311   3.785   5.494  1.7985  0.2596 -0.4598
   54MOL   H14620392   0.319   3.934   5.565  1.2913  0.2821 -1.8490
   54MOL   H14720393   0.229   4.061   5.377 -0.2914 -0.2664 -1.5817
   54MOL   H14820394   0.175   3.923   5.293 -1.0722 -1.1754  2.0217
   54MOL   H14920395   0.476   3.971   5.367  0.8783  1.5038 -0.8999
   54MOL   H15020396   0.418   3.876   5.231  0.5589  0.3284  0.2030
   54MOL   H15120397   0.402   4.180   5.251 -0.4288  0.2846 -0.1419
   54MOL   H15220398   0.513   4.087   5.148 -1.2339 -1.0043 -2.6176
   54MOL   H15320399   0.344   4.061   5.122 -1.3278  1.3705  0.0135
   54MOL   C15420400   7.716   3.925   5.614 -0.1009 -0.3980 -0.1120
   54MOL   C15520401   7.661   3.970   5.473  0.1706 -0.1538  0.2489
   54MOL   O15620402   7.659   4.110   5.472 -0.3766 -0.5854  0.8535
   54MOL   C15720403   7.684   4.171   5.345  1.1159  0.0595 -0.2569
   54MOL   C15820404   7.696   4.316   5.372 -0.2469  0.5472 -0.6440
   54MOL   C15920405   0.010   4.353   5.472  0.8048  0.0489 -0.4655
   54MOL   C16020406   0.000   4.494   5.521  0.1092 -0.1642  0.0493
   54MOL   H16120407   7.658   3.981   5.687 -0.6564 -0.0570 -0.7993
   54MOL   H16220408   7.713   3.818   5.635  0.0393 -0.5065 -0.6365
   54MOL   H16320409   7.734   3.938   5.399  1.6979  0.9724  1.2574
   54MOL   H16420410   7.775   4.136   5.297  0.4719 -1.9473 -0.0535
   54MOL   H16520411   7.605   4.166   5.270  0.5796 -1.0595  0.3744
   54MOL   H16620412   7.605   4.354   5.419 -0.8757 -1.0073 -0.5877
   54MOL   H16720413   7.717   4.368   5.278 -1.3638  0.4106 -0.9730
   54MOL   H16820414   0.015   4.295   5.564  2.0611  1.3280  0.3090
   54MOL   H16920415   0.108   4.335   5.427  1.3664  1.7829  0.0201
   54MOL   H17020416   0.028   4.554   5.435 -0.0754  1.2911  0.9875
   54MOL   H17120417   7.698   4.518   5.542  0.7011  1.5503  1.1000
   54MOL   H17220418   0.058   4.502   5.613  1.8447 -1.5225 -0.8939
   54MOL   C17320419   7.529   3.902   5.443  0.5869 -0.0724 -0.1658
   54MOL   C17420420   7.500   3.877   5.287 -0.0786 -0.5215  0.7079
   54MOL   O17520421   7.596   3.782   5.250  0.1530  0.1604  0.2435
   54MOL   C17620422   7.670   3.824   5.136  0.4546 -0.7813 -0.2194
   54MOL   C17720423   7.785   3.718   5.107  0.2938  0.6993 -0.0538
   54MOL   C17820424   0.076   3.760   4.999 -0.1108 -0.5236 -0.3387
   54MOL   C17920425   0.162   3.647   4.953 -0.3760  0.2561 -0.1635
   54MOL   H18020426   7.444   3.953   5.489  1.8470 -1.1144  3.4661
   54MOL   H18120427   7.526   3.807   5.497 -1.5620 -0.1996 -0.4565
   54MOL   H18220428   7.508   3.975   5.240 -1.8462  0.4602  2.3334
   54MOL   H18320429   7.720   3.919   5.153 -1.8932  0.4696 -0.0690
   54MOL   H18420430   7.614   3.844   5.045  0.0741 -1.0494 -0.0499
   54MOL   H18520431   7.736   3.629   5.067  0.1838  1.9438 -2.8391
   54MOL   H18620432   0.048   3.704   5.194 -0.9879 -2.2968  0.4865
   54MOL   H18720433   0.014   3.805   4.921 -0.3588  2.4763  1.5015
   54MOL   H18820434   0.146   3.840   5.025  0.9413 -1.0165 -1.6090
   54MOL   H18920435   0.246   3.647   5.022 -0.5411  0.2735  0.0374
   54MOL   H19020436   0.107   3.553   4.952  0.3595 -0.1691 -1.1507
   54MOL   H19120437   0.209   3.667   4.856  0.1841 -0.6749 -0.0916
   54MOL   C19220438   7.361   3.831   5.256  0.2215  0.7119  0.6564
   54MOL   C19320439   7.303   3.691   5.304 -0.0396  0.0964  0.9882
   54MOL   O19420440   7.261   3.704   5.432  0.7217  0.1172 -0.0189
   54MOL   C19520441   7.307   3.624   5.530  0.2894  0.5229  0.2516
   54MOL   C19620442   7.297   3.712   5.659  0.2152 -0.0484  0.8904
   54MOL   C19720443   7.289   3.635   5.793  0.4402 -0.1613 -0.3384
   54MOL   C19820444   7.215   3.719   5.899 -0.5292  1.5363  0.4214
   54MOL   H19920445   7.372   3.815   5.148  0.4552 -0.5297  0.8565
   54MOL   H20020446   7.291   3.911   5.282 -0.1498  0.2519  1.0821
   54MOL   H20120447   7.385   3.619   5.300  0.7634  1.0826 -1.9422
   54MOL   H20220448   7.407   3.589   5.505  0.5542  2.2695 -1.1372
   54MOL   H20320449   7.246   3.533   5.537  0.3292  0.5671  1.1881
   54MOL   H20420450   7.384   3.777   5.669 -0.2191  0.4368  1.5659
   54MOL   H20520451   7.204   3.767   5.653  0.6522  0.6611  0.5861
   54MOL   H20620452   7.386   3.594   5.820 -1.3511 -3.6269  1.0993
   54MOL   H20720453   7.238   3.540   5.774  1.8788 -0.6277 -2.0078
   54MOL   H20820454   7.283   3.800   5.924  2.6187 -1.2311  1.1738
   54MOL   H20920455   7.120   3.745   5.851 -1.7948 -2.5597  0.5487
   54MOL   H21020456   7.188   3.657   5.984 -1.0674  1.7721  0.4247
   54MOL   C21120457   7.173   3.644   5.234  0.1725 -0.3438 -0.2499
   54MOL   C21220458   7.203   3.593   5.090  0.6529  0.4721 -0.3432
   54MOL   O21320459   7.296   3.489   5.100 -0.0974 -0.1386  0.0696
   54MOL   C21420460   7.422   3.519   5.042 -0.6420 -0.1490 -0.0561
   54MOL   C21520461   7.521   3.394   5.048  0.5216  0.4306  0.0863
   54MOL   C21620462   7.560   3.349   5.197  0.0719  0.0368 -0.3413
   54MOL   C21720463   7.638   3.219   5.209  0.2529 -0.2224 -0.3510
   54MOL   H21820464   7.106   3.729   5.223  0.0972 -0.3934 -0.1709
   54MOL   H21920465   7.132   3.571   5.304  0.1759  0.1382  0.2667
   54MOL   H22020466   7.240   3.675   5.029  1.3992  0.8824  0.6384
   54MOL   H22120467   7.397   3.548   4.940 -1.6254  0.2286  0.2772
   54MOL   H22220468   7.457   3.615   5.080  1.9111 -1.3868  0.8055
   54MOL   H22320469   7.468   3.313   4.998  0.3311 -0.7221  2.1091
   54MOL   H22420470   7.605   3.413   4.981 -0.0920  1.4673 -0.4035
   54MOL   H22520471   7.468   3.349   5.255  0.7078 -1.2226  0.6917
   54MOL   H22620472   7.622   3.430   5.236 -2.5680  2.0157 -0.1119
   54MOL   H22720473   7.587   3.133   5.165  0.4775 -0.2583 -0.5433
   54MOL   H22820474   7.652   3.192   5.313 -1.1760 -1.9856 -0.5926
   54MOL   H22920475   7.728   3.239   5.151 -0.6370  0.3588 -1.5831
   54MOL   C23020476   7.076   3.532   5.029 -0.2849  0.4980  0.6813
   54MOL   C23120477   7.086   3.497   4.878 -0.4510  0.5394 -0.0282
   54MOL   O23220478   7.006   3.388   4.855 -0.4196 -0.2696 -0.1197
   54MOL   C23320479   7.068   3.263   4.863 -0.0615  0.7433 -0.4116
   54MOL   C23420480   6.970   3.167   4.791 -0.3847 -0.5961 -0.0983
   54MOL   C23520481   6.949   3.215   4.652 -0.0875 -0.0041 -0.1550
   54MOL   C23620482   6.865   3.117   4.577 -0.5980  0.0249  0.1922
   54MOL   H23720483   6.987   3.593   5.042  0.5630  1.7813  0.5977
   54MOL   H23820484   7.045   3.439   5.077 -0.5999 -0.4645 -1.3507
   54MOL   H23920485   7.192   3.478   4.860 -0.2852 -0.2740  1.6782
   54MOL   H24020486   7.168   3.254   4.821  0.0628 -1.2446  0.2037
   54MOL   H24120487   7.074   3.244   4.971  2.4941 -0.1305 -0.6531
   54MOL   H24220488   7.003   3.063   4.792  0.5445 -0.3060  2.0651
   54MOL   H24320489   6.878   3.175   4.850 -0.7692  0.7268 -0.8485
   54MOL   H24420490   7.050   3.230   4.615 -0.4834 -0.8539 -1.6247
   54MOL   H24520491   6.897   3.311   4.656  1.8021  1.0650 -0.6538
   54MOL   H24620492   6.856   3.144   4.472 -1.1856 -0.9346 -0.0080
   54MOL   H24720493   6.762   3.118   4.611 -0.6393  0.9396  0.0694
   54MOL   H24820494   6.916   3.021   4.587  0.2897  0.3686 -0.8829
   54MOL   C24920495   7.055   3.616   4.789  0.0854 -0.1951  0.4652
   54MOL   C25020496   7.064   3.591   4.636  0.6416  0.6351  0.0192
   54MOL   O25120497   7.201   3.612   4.603  0.6678  0.0128  0.4410
   54MOL   C25220498   7.262   3.490   4.573  0.0305 -0.1873  0.0366
   54MOL   C25320499   7.406   3.521   4.536  0.3146  0.1186  0.0667
   54MOL   C25420500   7.483   3.584   4.656 -0.2518 -0.3965  0.4124
   54MOL   C25520501   7.605   3.669   4.626  0.2102  0.0644 -0.0090
   54MOL   H25620502   7.112   3.705   4.817 -0.3121  1.0559 -2.5361
   54MOL   H25720503   6.956   3.655   4.813 -0.2268 -0.7722  0.1181
   54MOL   H25820504   7.011   3.500   4.606 -0.4808  0.3981  2.5996
   54MOL   H25920505   7.212   3.449   4.485 -0.3198  1.4153 -0.5328
   54MOL   H26020506   7.258   3.424   4.660  1.0959  2.9240  2.5325
   54MOL   H26120507   7.459   3.429   4.512  1.8163  0.6527  1.2269
   54MOL   H26220508   7.424   3.587   4.451 -0.3855  1.1741  0.7196
   54MOL   H26320509   7.427   3.659   4.711  0.5321  0.8561 -0.4732
   54MOL   H26420510   7.510   3.507   4.728  1.1255 -0.7367 -0.4437
   54MOL   H26520511   7.639   3.709   4.722 -2.2796 -0.4570  1.1280
   54MOL   H26620512   7.578   3.756   4.567 -0.8992 -0.3046 -0.0437
   54MOL   H26720513   7.686   3.620   4.572  0.2869  0.9469 -0.7195
   54MOL   C26820514   6.991   3.708   4.574  0.5761 -0.1562 -0.3969
   54MOL   C26920515   7.000   3.708   4.418  0.0989  0.2615  0.0383
   54MOL   O27020516   6.934   3.598   4.358  0.3465 -0.2108  0.5346
   54MOL   C27120517   7.023   3.527   4.270  0.6117 -0.0184  0.4717
   54MOL   C27220518   6.956   3.397   4.226 -0.8768 -0.5950 -0.2232
   54MOL   C27320519   7.056   3.310   4.141  0.6924  0.4009 -0.0437
   54MOL   C27420520   7.166   3.235   4.216 -0.0236  0.1367 -0.0171
   54MOL   H27520521   6.882   3.704   4.583  0.5392  0.6578 -0.5141
   54MOL   H27620522   7.019   3.802   4.622  1.9955 -1.6032  1.7273
   54MOL   H27720523   7.107   3.704   4.399  0.0125 -1.3447 -0.2029
   54MOL   H27820524   7.045   3.581   4.178 -0.5730  1.5117  1.0557
   54MOL   H27920525   7.123   3.507   4.309  0.3093 -0.3035  1.1089
   54MOL   H28020526   6.938   3.339   4.317 -1.0474 -0.0413  0.0990
   54MOL   H28120527   6.862   3.424   4.179  0.4683  2.5897 -1.2103
   54MOL   H28220528   7.095   3.371   4.060  2.0116  2.1292  1.8533
   54MOL   H28320529   6.992   3.243   4.084  0.7908  0.8262 -0.6606
   54MOL   H28420530   7.129   3.192   4.308 -2.1167 -2.0306 -1.8081
   54MOL   H28520531   7.248   3.297   4.251 -1.0160  1.0830  0.6601
   54MOL   H28620532   7.216   3.160   4.155 -0.2822 -0.8717  1.0038
   54MOL   C28720533   6.936   3.841   4.366 -0.2218  0.0857  0.1006
   54MOL   C28820534   6.960   3.865   4.218  0.4640 -0.2228 -0.3165
   54MOL   O28920535   7.102   3.874   4.195 -0.1055  0.2321 -0.3104
   54MOL   C29020536   7.176   3.975   4.260 -0.0702  0.2936  0.0185
   54MOL   C29120537   7.318   3.957   4.212 -0.0129  0.3292  0.1001
   54MOL   C29220538   7.384   3.830   4.256 -0.2737 -0.1405  0.4787
   54MOL   C29320539   7.537   3.823   4.213 -0.4836  0.2905 -1.0542
   54MOL   H29420540   6.953   3.926   4.431 -1.5427  0.4243  0.0167
   54MOL   H29520541   6.829   3.819   4.372 -0.6987  1.2390 -3.1034
   54MOL   H29620542   6.916   3.786   4.157 -1.2793  1.1367 -0.8430
   54MOL   H29720543   7.137   4.074   4.238 -0.1723  0.2983  0.2159
   54MOL   H29820544   7.173   3.962   4.369  0.8369  0.4170  0.0680
   54MOL   H29920545   7.380   4.046   4.226 -1.2337  1.6665 -2.5871
   54MOL   H30020546   7.319   3.958   4.103  0.9625 -0.1740  0.0969
   54MOL   H30120547   7.326   3.746   4.217 -0.8617  0.1363  0.7596
   54MOL   H30220548   7.384   3.823   4.365 -1.6694 -0.4144  0.4758
   54MOL   H30320549   7.554   3.788   4.111 -0.8636 -0.8889 -0.7196
   54MOL   H30420550   7.588   3.919   4.226 -1.2520  0.4656  0.8453
   54MOL   H30520551   7.591   3.747   4.269 -0.5618 -0.3338 -1.8310
   54MOL   C30620552   6.879   3.990   4.179  0.0883  0.5749  0.3169
   54MOL   C30720553   6.895   4.047   4.035  0.3423 -0.5329 -0.0271
   54MOL   O30820554   6.860   4.184   4.043 -0.5047  0.2927  0.1572
   54MOL   C30920555   6.944   4.259   3.954 -0.1420  0.6638  0.2500
   54MOL   C31020556   6.889   4.403   3.948  0.1659 -0.0767 -0.0419
   54MOL   C31120557   6.743   4.398   3.899  0.5073  0.0513  0.3836
   54MOL   C31220558   6.688   4.528   3.842 -0.0214 -0.0817  0.8391
   54MOL   H31320559   6.772   3.975   4.187 -0.1357  1.1480 -1.4655
   54MOL   H31420560   6.900   4.074   4.246  1.6116  1.2032 -0.9209
   54MOL   H31520561   7.000   4.035   4.008  0.0500 -1.4082 -0.8006
   54MOL   H31620562   6.950   4.223   3.852  1.8549  0.2363  0.5062
   54MOL   H31720563   7.045   4.255   3.994  0.3600 -0.6640 -1.1606
   54MOL   H31820564   6.950   4.457   3.876  1.0811  0.0393  0.8137
   54MOL   H31920565   6.900   4.470   4.034  0.4761 -0.1941  0.0090
   54MOL   H32020566   6.721   4.317   3.829 -0.1177 -0.4437  1.1388
   54MOL   H32120567   6.679   4.370   3.983 -1.0681 -1.8782 -1.4178
   54MOL   H32220568   6.765   4.561   3.772  0.1063 -2.7681 -0.3683
   54MOL   H32320569   6.668   4.593   3.926  3.3306  1.9400  0.1414
   54MOL   H32420570   6.594   4.508   3.790  1.5900 -0.8809 -1.8700
   54MOL   C32520571   6.798   3.977   3.930 -0.7822  0.5161 -0.5142
   54MOL   C32620572   6.873   3.856   3.857  0.0185 -0.4560 -0.0858
   54MOL   O32720573   6.781   3.750   3.836  0.4931  0.6558 -0.3332
   54MOL   C32820574   6.744   3.671   3.947  0.2413  0.3376 -0.2426
   54MOL   C32920575   6.738   3.525   3.897  0.4443 -0.7522  0.2411
   54MOL   C33020576   6.872   3.466   3.863 -0.4238  0.2972  0.5393
   54MOL   C33120577   6.870   3.348   3.763 -0.2387  0.0429 -0.3943
   54MOL   H33220578   6.770   4.050   3.854 -2.5275  1.3743  0.9120
   54MOL   H33320579   6.701   3.947   3.970 -1.0690  0.8822 -0.9229
   54MOL   H33420580   6.957   3.824   3.920  0.1599 -0.6134 -0.3541
   54MOL   H33520581   6.657   3.711   3.998  0.7829  0.6035  0.4922
   54MOL   H33620582   6.813   3.687   4.031  0.1700 -1.4914  0.1845
   54MOL   H33720583   6.697   3.456   3.970  1.5367 -0.2403  1.3700
   54MOL   H33820584   6.675   3.522   3.808  1.4570 -3.2202 -0.4279
   54MOL   H33920585   6.902   3.433   3.962 -3.4325 -1.4665  0.9259
   54MOL   H34020586   6.948   3.536   3.830 -0.7566 -0.3762 -1.7436
   54MOL   H34120587   6.965   3.296   3.776  0.3651  1.0777 -0.7002
   54MOL   H34220588   6.859   3.376   3.658  1.4213  2.4299  0.0459
   54MOL   H34320589   6.796   3.272   3.790 -1.3867  0.8427 -1.2503
   54MOL   C34420590   6.943   3.899   3.725  0.3901  0.0402 -0.2294
   54MOL   C34520591   7.042   3.789   3.668  0.1022 -0.9539 -0.0425
   54MOL   O34620592   7.173   3.790   3.715  0.1719 -0.4722 -0.1487
   54MOL   C34720593   7.197   3.734   3.846 -0.1873 -0.1706 -0.9855
   54MOL   C34820594   7.351   3.704   3.871 -0.5107  0.5130 -0.0448
   54MOL   C34920595   7.402   3.572   3.809  0.1297  0.8450 -0.2705
   54MOL   C35020596   7.553   3.541   3.814 -0.1225  0.1912 -0.6746
   54MOL   H35120597   6.874   3.927   3.645  1.0691  0.6865 -0.5913
   54MOL   H35220598   6.986   3.995   3.752  0.2210  0.1886 -0.4808
   54MOL   H35320599   6.995   3.691   3.675  0.9141 -1.3110  0.4295
   54MOL   H35420600   7.135   3.648   3.869  1.4965 -1.1561  0.0326
   54MOL   H35520601   7.166   3.811   3.917 -0.5222 -1.1789 -0.0300
   54MOL   H35620602   7.376   3.688   3.976 -1.2143  0.2731  0.0939
   54MOL   H35720603   7.411   3.792   3.848  0.2830 -0.2246 -0.8341
   54MOL   H35820604   7.347   3.493   3.860  0.5955  0.1284 -0.8664
   54MOL   H35920605   7.359   3.566   3.708  0.0102  2.4589 -0.3314
   54MOL   H36020606   7.609   3.633   3.795 -0.0644  0.3395  0.1666
   54MOL   H36120607   7.580   3.468   3.738 -2.9344  1.8084 -3.2981
   54MOL   H36220608   7.592   3.507   3.910  1.1238 -0.1780 -1.3059
   54MOL   C36320609   7.049   3.806   3.512  0.1590  0.9317 -0.1140
   54MOL   C36420610   7.140   3.699   3.436 -0.1386  0.2254 -0.3381
   54MOL   O36520611   7.133   3.683   3.292 -0.2374  0.2630  0.2959
   54MOL   C36620612   7.214   3.579   3.251 -0.7619  0.0991  0.2006
   54MOL   C36720613   7.214   3.563   3.101  0.4540  0.1898 -0.9306
   54MOL   C36820614   7.076   3.532   3.042 -0.2336 -0.0903  0.1172
   54MOL   C36920615   7.078   3.526   2.889  0.2433 -0.2418  0.3064
   54MOL   H37020616   7.094   3.903   3.491 -0.5250  0.8463 -2.0475
   54MOL   H37120617   6.948   3.802   3.471  0.5675  1.6777 -1.2096
   54MOL   H37220618   7.119   3.601   3.480  1.7390 -0.0419  0.0016
   54MOL   H37320619   7.188   3.481   3.290 -2.1856  0.3779 -0.0319
   54MOL   H37420620   7.320   3.601   3.268 -0.5557 -1.0058  0.3397
   54MOL   H37520621   7.298   3.510   3.055  0.1004 -0.7989 -0.4466
   54MOL   H37620622   7.234   3.663   3.061 -0.6830  0.7594 -0.0840
   54MOL   H37720623   6.997   3.601   3.073  1.3453  1.6866  0.2250
   54MOL   H37820624   7.043   3.435   3.082  0.4202 -0.3060  0.1425
   54MOL   H37920625   7.085   3.627   2.849  0.9859 -0.1643  0.6121
   54MOL   H38020626   7.168   3.473   2.858 -0.4836 -1.0109 -0.5050
   54MOL   H38120627   6.995   3.480   2.836  0.5161 -0.9075  0.4490
   54MOL   H38220628   7.245   3.712   3.462 -0.3889 -3.9973  3.6040
   55MOL     C120629   0.768   4.373   4.765  0.0931 -0.8198  0.4080
   55MOL     C220630   0.622   4.369   4.804  0.8373  0.4151 -0.1213
   55MOL     O320631   0.591   4.237   4.846 -0.6908  0.5555 -0.1697
   55MOL     C420632   0.539   4.144   4.742  0.3564  0.0110 -0.2097
   55MOL     C520633   0.498   4.011   4.801 -0.2721  0.3567 -0.9635
   55MOL     C620634   0.605   3.931   4.884  0.5100  0.0204 -0.0363
   55MOL     C720635   0.711   3.865   4.802  0.6297 -0.3398  0.6621
   55MOL     H820636   0.812   4.470   4.738  1.0732 -1.9588 -2.2929
   55MOL     H920637   0.820   4.352   4.858 -0.3142  1.0062  1.0686
   55MOL    H1020638   0.564   4.379   4.712 -0.5843  2.3483  0.9469
   55MOL    H1120639   0.459   4.195   4.688 -0.0591  0.4061  0.7732
   55MOL    H1220640   0.610   4.136   4.659 -1.7065  0.7141 -2.0891
   55MOL    H1320641   0.477   3.943   4.719 -1.4463 -2.0439  1.2638
   55MOL    H1420642   0.407   4.026   4.859  0.9018 -1.3870  1.3768
   55MOL    H1520643   0.553   3.848   4.931 -2.0700  1.4303 -0.2979
   55MOL    H1620644   0.649   3.999   4.957  1.0591 -0.5506  0.1635
   55MOL    H1720645   0.783   3.941   4.771 -0.5349 -0.3337 -2.1600
   55MOL    H1820646   0.670   3.805   4.721  0.9490  1.9463 -1.2537
   55MOL    H1920647   0.776   3.786   4.839  3.0886  1.4822  0.3298
   55MOL    H2020648   0.801   4.292   4.700  1.9923  0.6627 -0.5303
   55MOL    C2120649   0.570   4.475   4.893  0.8292 -0.6903  0.0168
   55MOL    C2220650   0.544   4.613   4.820  0.2969  0.4842  0.5627
   55MOL    O2320651   0.430   4.587   4.733 -0.1685  0.0540  0.2351
   55MOL    C2420652   0.434   4.656   4.601 -0.5677  0.1412  0.0565
   55MOL    C2520653   0.328   4.608   4.509  0.0721 -0.2795  0.1607
   55MOL    C2620654   0.336   4.458   4.487  0.9853 -0.1936 -0.8068
   55MOL    C2720655   0.207   4.404   4.426  0.5452 -0.9517 -0.2609
   55MOL    H2820656   0.646   4.484   4.972  0.0969  1.4841  0.5114
   55MOL    H2920657   0.472   4.457   4.938  0.1006 -0.0326 -1.2761
   55MOL    H3020658   0.641   4.633   4.773  0.7590 -0.7587  0.9758
   55MOL    H3120659   0.538   4.643   4.572 -0.0494  0.0913  1.8932
   55MOL    H3220660   0.421   4.763   4.617 -1.8114 -0.1396  1.0255
   55MOL    H3320661   0.230   4.639   4.548  0.0676 -1.5137  1.1603
   55MOL    H3420662   0.349   4.661   4.416  0.1774  1.9560  1.4287
   55MOL    H3520663   0.425   4.440   4.426  1.0786 -0.5171 -0.5736
   55MOL    H3620664   0.362   4.408   4.580  0.6926  0.0324 -0.6039
   55MOL    H3720665   0.120   4.451   4.472  0.0288 -1.5155 -0.6636
   55MOL    H3820666   0.192   4.423   4.320 -0.3159 -0.4281 -0.0506
   55MOL    H3920667   0.188   4.297   4.438 -3.0243 -0.6750 -2.4839
   55MOL    C4020668   0.496   4.724   4.919 -0.4234 -0.3929 -0.2629
   55MOL    C4120669   0.586   4.750   5.044 -0.1805  0.2500 -0.1773
   55MOL    O4220670   0.534   4.818   5.151 -0.0295  0.6673 -0.2053
   55MOL    C4320671   0.409   4.767   5.205  0.1468 -0.3335  0.3585
   55MOL    C4420672   0.396   4.799   5.357 -0.0212 -0.8003 -0.2569
   55MOL    C4520673   0.259   4.762   5.421 -0.7172  0.2691  0.0727
   55MOL    C4620674   0.250   4.799   5.566 -0.8461 -0.4194  0.4056
   55MOL    H4720675   0.391   4.706   4.942 -1.2487  1.5464 -2.3189
   55MOL    H4820676   0.478   4.810   4.855 -0.0358  0.3236  0.5692
   55MOL    H4920677   0.615   4.653   5.085 -1.4275  0.2438  0.7282
   55MOL    H5020678   0.406   4.660   5.186  0.2869 -0.5260  1.3655
   55MOL    H5120679   0.331   4.827   5.158  0.7351  0.7025  0.6706
   55MOL    H5220680   0.399   4.908   5.355  1.0436 -0.7799  1.9408
   55MOL    H5320681   0.479   4.759   5.413  1.3495  2.0082 -0.2002
   55MOL    H5420682   0.250   4.654   5.410 -3.9123  0.4910  0.2361
   55MOL    H5520683   0.179   4.803   5.360 -1.9534 -1.0433  0.8097
   55MOL    H5620684   0.149   4.777   5.602 -0.4643 -1.5148  0.8129
   55MOL    H5720685   0.314   4.756   5.643  1.1744  1.7694  0.0286
   55MOL    H5820686   0.269   4.905   5.584  1.9012 -0.3969 -2.2952
   55MOL    C5920687   0.720   4.822   5.014  0.3050  0.5722  0.0985
   55MOL    C6020688   0.807   4.839   5.137 -0.4903 -0.3676  0.7165
   55MOL    O6120689   0.868   4.711   5.175 -0.5077 -0.3618 -0.5011
   55MOL    C6220690   0.804   4.654   5.287 -0.1424  0.0548 -0.6283
   55MOL    C6320691   0.851   4.508   5.301  0.2376  0.1185 -0.0248
   55MOL    C6420692   0.785   4.400   5.216 -0.3304  0.2204 -0.6173
   55MOL    C6520693   0.803   4.257   5.282  0.1444  0.1620  0.2424
   55MOL    H6620694   0.774   4.768   4.936 -2.3804  0.2857 -1.6302
   55MOL    H6720695   0.688   4.910   4.959 -1.9286  0.9384  1.8989
   55MOL    H6820696   0.749   4.884   5.217 -1.1028  1.9828 -0.9958
   55MOL    H6920697   0.696   4.651   5.279 -0.1164 -1.2379 -0.5876
   55MOL    H7020698   0.824   4.710   5.379  1.1536 -0.2154 -0.7282
   55MOL    H7120699   0.960   4.503   5.302  0.1559 -1.7817  2.3179
   55MOL    H7220700   0.833   4.478   5.404  1.2893  1.8656  0.7026
   55MOL    H7320701   0.677   4.410   5.211 -0.5287 -0.7496  1.2184
   55MOL    H7420702   0.826   4.412   5.115 -2.5137  0.4135 -1.5021
   55MOL    H7520703   0.906   4.231   5.259  0.1191  2.1358 -2.2501
   55MOL    H7620704   0.790   4.243   5.390  1.6501  1.8423  0.6602
   55MOL    H7720705   0.739   4.181   5.236 -1.1281  1.9724 -1.0453
   55MOL    C7820706   0.920   4.936   5.093 -0.1326  0.1528  0.6706
   55MOL    C7920707   1.009   4.986   5.215 -0.5907  0.9005 -0.4197
   55MOL    O8020708   1.065   5.106   5.166 -0.6184  0.4210 -0.5032
   55MOL    C8120709   0.988   5.220   5.198 -0.1894  0.1679 -0.4679
   55MOL    C8220710   1.042   5.275   5.333 -0.9343 -0.0675  0.3265
   55MOL    C8320711   1.183   5.344   5.321 -0.4609  0.1117 -0.1434
   55MOL    C8420712   1.171   5.483   5.263  0.7472 -0.0658 -0.5130
   55MOL    H8520713   0.887   5.017   5.028 -1.0424 -2.3653 -2.1117
   55MOL    H8620714   0.977   4.876   5.021 -2.2006 -2.0952  0.8306
   55MOL    H8720715   0.943   4.991   5.302 -0.7186  2.1959 -0.5690
   55MOL    H8820716   0.881   5.199   5.201 -0.6231  2.3816 -0.0327
   55MOL    H8920717   1.020   5.278   5.112 -1.4623 -1.5118 -2.1269
   55MOL    H9020718   0.970   5.344   5.377 -1.4725 -0.4776  0.0898
   55MOL    H9120719   1.043   5.196   5.408  0.5291 -1.1656 -0.8312
   55MOL    H9220720   1.257   5.283   5.269  0.6870  2.9704 -2.0124
   55MOL    H9320721   1.222   5.352   5.422  2.7244 -1.1994 -1.2060
   55MOL    H9420722   1.258   5.546   5.280  1.1230 -0.4718 -0.9019
   55MOL    H9520723   1.168   5.475   5.154  0.0211 -1.5136 -0.4097
   55MOL    H9620724   1.086   5.544   5.294  0.2301 -0.3668 -1.3278
   55MOL    C9720725   1.119   4.885   5.246 -0.4724 -0.6934 -0.0868
   55MOL    C9820726   1.181   4.920   5.386  0.3304  0.0552 -0.5316
   55MOL    O9920727   1.073   4.890   5.467  0.0023 -0.3895 -0.0273
   55MOL   C10020728   1.081   4.949   5.597 -0.7788  0.4307  0.0116
   55MOL   C10120729   0.939   4.950   5.660  0.4153 -0.5132  0.3966
   55MOL   C10220730   0.830   5.019   5.573  0.0376 -0.3627  0.4432
   55MOL   C10320731   0.696   5.002   5.648  0.4310  0.6089  0.2044
   55MOL   H10420732   1.181   4.885   5.157 -1.7103 -0.9701 -0.9573
   55MOL   H10520733   1.076   4.785   5.244 -2.4440  0.1494 -2.3736
   55MOL   H10620734   1.207   5.025   5.397  0.0195  0.0562  0.2734
   55MOL   H10720735   1.115   5.052   5.597 -1.8154  0.7820  0.2085
   55MOL   H10820736   1.147   4.891   5.662  0.7243  2.2161  0.1148
   55MOL   H10920737   0.930   4.999   5.757 -1.8987  1.6846 -0.8859
   55MOL   H11020738   0.902   4.848   5.676 -0.5117 -0.3107 -0.4022
   55MOL   H11120739   0.816   4.972   5.476  0.2442  1.7264 -0.6026
   55MOL   H11220740   0.864   5.119   5.550  0.7398 -0.7875 -0.3782
   55MOL   H11320741   0.659   4.901   5.668 -0.1148  0.9739  1.0806
   55MOL   H11420742   0.695   5.054   5.744  0.5898  0.0693  0.5016
   55MOL   H11520743   0.616   5.060   5.602 -0.3960 -1.2247 -0.7450
   55MOL   C11620744   1.301   4.828   5.427 -0.5826  0.0469 -0.1894
   55MOL   C11720745   1.440   4.879   5.371  0.3415  0.0339 -0.0268
   55MOL   O11820746   1.505   4.966   5.455 -0.5458 -0.2163  0.2515
   55MOL   C11920747   1.438   5.085   5.484  1.1601  0.8020 -0.0938
   55MOL   C12020748   1.522   5.173   5.575 -0.4106 -0.6769 -0.0643
   55MOL   C12120749   1.471   5.315   5.593  0.8223 -1.2418 -0.3911
   55MOL   C12220750   1.507   5.413   5.481 -0.0636 -0.0771  0.0516
   55MOL   H12320751   1.311   4.808   5.534  1.6700 -0.3216 -0.4429
   55MOL   H12420752   1.294   4.725   5.392 -0.9926 -0.8270  2.3713
   55MOL   H12520753   1.432   4.926   5.274  1.1392 -0.7600 -0.4920
   55MOL   H12620754   1.350   5.066   5.545  0.1891 -0.3652 -1.8157
   55MOL   H12720755   1.403   5.129   5.391  0.1057 -1.1240 -0.6332
   55MOL   H12820756   1.620   5.189   5.530 -1.1129 -2.7083 -2.4204
   55MOL   H12920757   1.531   5.128   5.674  0.5193 -0.2283  0.0575
   55MOL   H13020758   1.363   5.313   5.609  0.6301 -0.8508 -1.6011
   55MOL   H13120759   1.523   5.361   5.678  1.0746  2.3753 -2.4041
   55MOL   H13220760   1.492   5.515   5.517  0.4549 -0.2342  0.7420
   55MOL   H13320761   1.446   5.393   5.394  0.2879 -2.7394  0.3872
   55MOL   H13420762   1.609   5.408   5.443  0.2267  0.0443  0.7938
   55MOL   C13520763   1.538   4.763   5.360  0.8882 -0.1633 -0.3643
   55MOL   C13620764   1.668   4.789   5.274 -0.0572  0.3715 -0.3923
   55MOL   O13720765   1.773   4.862   5.329 -0.3044 -0.1963  0.7057
   55MOL   C13820766   1.808   4.821   5.457  0.0542 -0.0447  0.4499
   55MOL   C13920767   1.920   4.923   5.496 -0.1478  0.0358  1.1732
   55MOL   C14020768   1.867   5.064   5.533 -0.5417 -0.3909  0.7814
   55MOL   C14120769   1.986   5.162   5.556  0.2384 -0.0894  0.1574
   55MOL   H14220770   1.486   4.679   5.314 -0.6746  0.9834 -0.7273
   55MOL   H14320771   1.571   4.711   5.449  0.0110 -1.3174 -0.7003
   55MOL   H14420772   1.652   4.861   5.193 -1.3100 -0.4844 -0.9001
   55MOL   H14520773   1.837   4.717   5.442  0.0492  0.0292 -0.0645
   55MOL   H14620774   1.727   4.827   5.530 -1.2859 -0.4239 -0.9693
   55MOL   H14720775   1.994   4.925   5.416 -2.1618 -1.2537 -0.7846
   55MOL   H14820776   1.970   4.892   5.588 -0.5428 -0.3173  1.2708
   55MOL   H14920777   1.810   5.096   5.446  2.4749  1.0960 -0.7388
   55MOL   H15020778   1.800   5.058   5.618  1.0188 -2.4313  1.9072
   55MOL   H15120779   2.065   5.117   5.617  1.8106  0.1744 -1.6645
   55MOL   H15220780   2.042   5.196   5.469  0.6619  0.3119  0.5827
   55MOL   H15320781   1.954   5.257   5.598  0.5742 -0.1331  0.5177
   55MOL   C15420782   1.726   4.658   5.216  0.0167 -0.1041 -0.9379
   55MOL   C15520783   1.675   4.638   5.070  0.2941 -0.2898  0.1535
   55MOL   O15620784   1.534   4.621   5.083 -0.5268 -0.0033 -0.6443
   55MOL   C15720785   1.461   4.674   4.975  1.3054  0.4464  0.0924
   55MOL   C15820786   1.312   4.659   5.007  0.4289  0.3597 -0.8352
   55MOL   C15920787   1.273   4.512   5.002 -0.0296 -0.6868 -0.3640
   55MOL   C16020788   1.128   4.491   4.949 -0.8279 -0.5800 -0.6216
   55MOL   H16120789   1.723   4.562   5.267 -1.6467  1.2544  1.6331
   55MOL   H16220790   1.829   4.683   5.188 -0.7752  1.7582 -2.3518
   55MOL   H16320791   1.691   4.727   5.009 -0.4508 -0.8599 -0.8955
   55MOL   H16420792   1.474   4.778   4.946  0.5803  1.2635  2.5758
   55MOL   H16520793   1.476   4.620   4.881 -1.4322 -1.7139  0.8202
   55MOL   H16620794   1.245   4.716   4.942  0.5622  0.3334 -0.9961
   55MOL   H16720795   1.294   4.717   5.098 -0.9132  1.6111 -1.8672
   55MOL   H16820796   1.343   4.470   4.930 -0.2853  0.0136 -1.0259
   55MOL   H16920797   1.289   4.467   5.100  1.3902 -0.5718 -0.5379
   55MOL   H17020798   1.114   4.386   4.923  1.1693 -0.5944 -1.6993
   55MOL   H17120799   1.059   4.523   5.027  0.4667 -1.8111  1.0635
   55MOL   H17220800   1.104   4.549   4.860 -1.0057  1.0887  0.4936
   55MOL   C17320801   1.723   4.513   4.997  0.4404 -0.4700  0.0895
   55MOL   C17420802   1.876   4.516   4.961  0.1156  0.7693 -0.2016
   55MOL   O17520803   1.915   4.380   4.928 -0.0872  0.0330  0.5698
   55MOL   C17620804   2.048   4.345   4.960  0.5122  0.0447  0.4258
   55MOL   C17720805   2.072   4.206   4.893  0.1628  0.5676  0.3059
   55MOL   C17820806   2.222   4.157   4.911 -0.0274  0.5299  0.0256
   55MOL   C17920807   2.243   4.025   4.829 -0.0725  0.0137  0.2092
   55MOL   H18020808   1.683   4.491   4.898  0.8141 -0.7729  0.0071
   55MOL   H18120809   1.693   4.421   5.048 -1.2372  0.0538  0.0641
   55MOL   H18220810   1.926   4.550   5.052 -1.6336  1.2424  0.5946
   55MOL   H18320811   2.059   4.333   5.068 -1.2572  0.0164  0.6233
   55MOL   H18420812   2.118   4.415   4.914  0.6710 -0.4470 -0.0901
   55MOL   H18520813   2.050   4.219   4.786 -0.1809  2.6410  0.6082
   55MOL   H18620814   2.002   4.127   4.921 -0.0109  1.1816  1.6563
   55MOL   H18720815   2.295   4.223   4.866  0.8474 -1.4829 -1.5872
   55MOL   H18820816   2.247   4.142   5.016 -0.9405 -0.5404  0.1047
   55MOL   H18920817   2.330   3.961   4.840  1.0042  1.6657  1.5458
   55MOL   H19020818   2.164   3.953   4.850  1.6631 -1.8889  0.3069
   55MOL   H19120819   2.235   4.037   4.720  0.7312 -0.0556  0.1437
   55MOL   C19220820   1.909   4.615   4.834  0.5945  0.1173 -1.0406
   55MOL   C19320821   1.959   4.758   4.875  0.2015 -0.0292 -0.6257
   55MOL   O19420822   2.078   4.740   4.946  0.5940 -0.1273 -0.1937
   55MOL   C19520823   2.085   4.825   5.063  0.3064  0.2672  0.3851
   55MOL   C19620824   2.218   4.807   5.139 -0.4318  0.0457 -0.3289
   55MOL   C19720825   2.236   4.873   5.281  0.4868 -0.4730  0.5282
   55MOL   C19820826   2.386   4.875   5.318  0.6701  0.4585  0.5688
   55MOL   H19920827   1.824   4.627   4.767 -0.8425 -1.4058  0.4511
   55MOL   H20020828   1.983   4.558   4.778  0.4052  0.0483 -1.2197
   55MOL   H20120829   1.883   4.803   4.938  0.7257  0.3097 -0.2339
   55MOL   H20220830   1.995   4.799   5.119  0.5884 -0.5565  0.4557
   55MOL   H20320831   2.062   4.924   5.025  2.0107  0.0783 -1.2535
   55MOL   H20420832   2.244   4.701   5.144  2.7461  0.7277 -1.1662
   55MOL   H20520833   2.298   4.850   5.079  0.2613  1.7148  1.7545
   55MOL   H20620834   2.162   4.832   5.350 -0.0241  0.3406  0.4754
   55MOL   H20720835   2.201   4.976   5.273  0.7937 -0.4700 -1.0457
   55MOL   H20820836   2.439   4.780   5.313  0.3745  0.4372 -4.5803
   55MOL   H20920837   2.444   4.943   5.256  2.6054  0.3302  2.1909
   55MOL   H21020838   2.404   4.920   5.416  1.4529  0.6292  0.3499
   55MOL   C21120839   1.989   4.857   4.756  0.5155 -0.6681 -0.3713
   55MOL   C21220840   1.857   4.917   4.701 -0.4418 -0.3096 -0.2969
   55MOL   O21320841   1.768   4.982   4.791 -0.0660 -0.0910 -0.4479
   55MOL   C21420842   1.813   5.087   4.875 -0.8570  0.5746 -0.8684
   55MOL   C21520843   1.690   5.110   4.964  0.4244  0.2304 -0.2482
   55MOL   C21620844   1.724   5.194   5.086 -0.2343 -0.3379  1.1724
   55MOL   C21720845   1.603   5.198   5.178  0.0152 -0.3523 -0.1339
   55MOL   H21820846   2.050   4.813   4.677  0.6004 -2.4035  0.6264
   55MOL   H21920847   2.052   4.935   4.799 -0.3742 -0.6894  0.9917
   55MOL   H22020848   1.801   4.833   4.658 -1.4470  0.9158 -1.4303
   55MOL   H22120849   1.904   5.066   4.932 -1.3365  0.9483  0.0511
   55MOL   H22220850   1.834   5.170   4.808  1.8213 -0.0365 -0.8437
   55MOL   H22320851   1.611   5.142   4.896  0.4109  0.9822  0.1174
   55MOL   H22420852   1.654   5.012   4.994 -0.1396  0.5236  0.0367
   55MOL   H22520853   1.754   5.293   5.055  1.3633 -0.4515  2.2975
   55MOL   H22620854   1.812   5.153   5.136  0.2085 -0.1875  0.5201
   55MOL   H22720855   1.637   5.240   5.273 -0.0813 -2.1355  0.7116
   55MOL   H22820856   1.557   5.100   5.191  0.6650 -0.5153  0.9750
   55MOL   H22920857   1.517   5.256   5.147  0.2762 -0.4171 -0.9960
   55MOL   C23020858   1.878   5.008   4.577 -0.1575  0.3817 -0.6367
   55MOL   C23120859   1.888   4.945   4.437  0.1783  0.1277  0.6883
   55MOL   O23220860   1.766   4.871   4.399  0.7631  0.2051  0.1799
   55MOL   C23320861   1.643   4.923   4.362 -0.4296 -0.9285 -0.2808
   55MOL   C23420862   1.567   4.838   4.262 -0.7174 -0.0253  0.2690
   55MOL   C23520863   1.463   4.740   4.325 -0.2930  0.2452 -0.4437
   55MOL   C23620864   1.417   4.638   4.221 -0.8196 -0.4534  0.1793
   55MOL   H23720865   1.956   5.083   4.588 -0.9082  0.8172  2.2345
   55MOL   H23820866   1.787   5.069   4.577 -0.8061 -0.5706 -0.8739
   55MOL   H23920867   1.955   4.861   4.456  2.1540  1.9490  2.0349
   55MOL   H24020868   1.588   4.941   4.455 -2.4473 -0.2226 -1.5698
   55MOL   H24120869   1.661   5.019   4.314 -0.0904 -0.0921  1.4550
   55MOL   H24220870   1.510   4.903   4.196 -0.1947  0.8311  0.6540
   55MOL   H24320871   1.640   4.787   4.198 -0.4078  1.7104 -0.7815
   55MOL   H24420872   1.380   4.797   4.368  0.3784 -0.2886  1.6355
   55MOL   H24520873   1.527   4.686   4.395  0.0951 -0.6905 -1.5157
   55MOL   H24620874   1.501   4.573   4.196  1.7272  2.6005  0.5076
   55MOL   H24720875   1.399   4.686   4.125 -0.6828  1.2472  0.9931
   55MOL   H24820876   1.326   4.583   4.246 -1.8634  1.4836  0.8063
   55MOL   C24920877   1.946   5.032   4.325  0.8932 -0.2864  0.7157
   55MOL   C25020878   2.087   5.080   4.347  0.4430 -0.2262  1.1144
   55MOL   O25120879   2.084   5.185   4.435  0.8286 -0.4805  0.0035
   55MOL   C25220880   2.196   5.206   4.520  0.1662 -0.3086  0.0556
   55MOL   C25320881   2.170   5.337   4.594  0.2772 -0.0357 -0.3878
   55MOL   C25420882   2.042   5.327   4.679  0.1704 -0.0953 -0.5845
   55MOL   C25520883   2.016   5.441   4.782  0.0171 -0.6442 -0.2622
   55MOL   H25620884   1.882   5.119   4.312  0.9295  0.0384  2.5792
   55MOL   H25720885   1.939   4.979   4.230 -2.9622 -0.5784  1.0824
   55MOL   H25820886   2.152   5.004   4.393  0.1628  0.6585  3.0118
   55MOL   H25920887   2.285   5.216   4.458  0.4841 -0.6438  0.4490
   55MOL   H26020888   2.211   5.116   4.581 -0.6058  0.2642  1.1080
   55MOL   H26120889   2.252   5.365   4.661 -1.1696  1.4610  0.8062
   55MOL   H26220890   2.169   5.416   4.519  0.8132 -2.0675 -2.5806
   55MOL   H26320891   1.954   5.318   4.615  0.3202 -0.5736 -0.7223
   55MOL   H26420892   2.057   5.238   4.740  0.8617  0.8550  0.6392
   55MOL   H26520893   2.090   5.472   4.856 -0.6643 -1.3329  0.7137
   55MOL   H26620894   1.932   5.416   4.847  0.3989 -0.7591  0.1868
   55MOL   H26720895   1.989   5.530   4.724 -0.9450  0.0073  1.1527
   55MOL   C26820896   2.163   5.127   4.222  0.1689  0.0762  0.1436
   55MOL   C26920897   2.210   5.027   4.120 -0.3076 -0.3922  0.4130
   55MOL   O27020898   2.093   4.980   4.057 -0.1286 -0.2287 -0.2791
   55MOL   C27120899   2.099   4.839   4.054 -0.9599 -0.5695 -0.3970
   55MOL   C27220900   1.969   4.800   3.993  0.7831  0.2530 -0.8591
   55MOL   C27320901   1.973   4.648   3.966 -0.0788  0.2062  0.4246
   55MOL   C27420902   1.865   4.588   3.876 -0.4456  0.2778 -0.2384
   55MOL   H27520903   2.115   5.210   4.171 -0.2217  0.9002  1.8163
   55MOL   H27620904   2.246   5.188   4.256  0.0637  0.7082 -0.7306
   55MOL   H27720905   2.271   4.947   4.164 -0.9817 -1.3542 -0.3887
   55MOL   H27820906   2.187   4.801   4.003 -0.2629  0.6988 -0.1502
   55MOL   H27920907   2.088   4.800   4.156 -1.0535  1.9599  0.6003
   55MOL   H28020908   1.886   4.813   4.062  0.9867 -1.8198 -0.1967
   55MOL   H28120909   1.952   4.864   3.906  1.1678 -0.3816 -1.4042
   55MOL   H28220910   1.961   4.598   4.062  0.0816  1.4505  1.1013
   55MOL   H28320911   2.068   4.616   3.923  0.5146  0.7404  1.3058
   55MOL   H28420912   1.895   4.602   3.773  0.7514  2.0621  0.3400
   55MOL   H28520913   1.774   4.647   3.891  0.3024  1.6400 -0.9482
   55MOL   H28620914   1.858   4.481   3.898 -3.5285  0.6143  0.7264
   55MOL   C28720915   2.295   5.093   4.012 -1.2805  0.3313  0.0980
   55MOL   C28820916   2.442   5.098   4.041  0.1850 -0.1854  0.0835
   55MOL   O28920917   2.453   5.166   4.166 -0.8242 -0.1580 -0.2168
   55MOL   C29020918   2.574   5.157   4.243 -0.4142 -0.0792  0.9336
   55MOL   C29120919   2.565   5.078   4.374 -0.7846  0.1950 -0.4257
   55MOL   C29220920   2.694   5.084   4.458 -0.2906  0.3121 -0.4377
   55MOL   C29320921   2.750   4.944   4.497 -0.2283 -0.1944  0.6430
   55MOL   H29420922   2.246   5.185   3.982  1.3340  2.0265  0.8229
   55MOL   H29520923   2.288   5.033   3.921 -0.9024  1.1415 -0.4632
   55MOL   H29620924   2.482   4.997   4.040 -0.9012 -0.6210 -1.2819
   55MOL   H29720925   2.666   5.128   4.192 -0.6419  2.2184 -0.8326
   55MOL   H29820926   2.606   5.256   4.273  1.4650  0.3732 -2.3842
   55MOL   H29920927   2.541   4.974   4.354 -1.2526  0.3040 -0.4246
   55MOL   H30020928   2.482   5.109   4.437 -2.2774 -1.0975 -1.7050
   55MOL   H30120929   2.673   5.130   4.554 -0.2441 -1.8880  0.6735
   55MOL   H30220930   2.768   5.141   4.403  0.0996 -0.1849 -0.4384
   55MOL   H30320931   2.772   4.889   4.406 -0.3739 -0.1886  0.6035
   55MOL   H30420932   2.841   4.956   4.556 -0.0332 -0.0449  0.3102
   55MOL   H30520933   2.679   4.888   4.557  0.3068 -2.6214 -0.9008
   55MOL   C30620934   2.530   5.180   3.948  0.1953  0.5371 -0.0246
   55MOL   C30720935   2.524   5.152   3.790  0.1306  0.2399  0.1669
   55MOL   O30820936   2.584   5.025   3.771  0.3542  0.0492 -0.2530
   55MOL   C30920937   2.500   4.920   3.724 -0.8169  0.1381  0.2055
   55MOL   C31020938   2.582   4.794   3.707  0.1836  0.0257  0.3607
   55MOL   C31120939   2.494   4.667   3.664  0.1202  0.8521 -1.4741
   55MOL   C31220940   2.578   4.546   3.658 -0.0767  0.7560 -0.4276
   55MOL   H31320941   2.509   5.287   3.953  2.2517  0.9084  1.2054
   55MOL   H31420942   2.633   5.173   3.982  0.0810  0.6332  0.3362
   55MOL   H31520943   2.422   5.160   3.750  0.4784  0.6002 -0.6585
   55MOL   H31620944   2.463   4.945   3.625  0.4884 -1.2017 -0.6554
   55MOL   H31720945   2.426   4.906   3.802 -0.3235 -3.2106  0.1366
   55MOL   H31820946   2.627   4.776   3.804  2.4596 -0.8944 -0.8387
   55MOL   H31920947   2.657   4.818   3.632  1.3243 -2.1737  0.7672
   55MOL   H32020948   2.427   4.637   3.745  0.2804  2.2508 -0.8201
   55MOL   H32120949   2.427   4.671   3.578  0.9235  1.4247 -2.0778
   55MOL   H32220950   2.624   4.530   3.756 -1.2251  1.6851  0.2746
   55MOL   H32320951   2.658   4.562   3.586  0.6884  1.8008  0.6479
   55MOL   H32420952   2.520   4.456   3.637 -0.9839  1.2268  0.0132
   55MOL   C32520953   2.622   5.249   3.725  0.1102 -0.5013 -0.4679
   55MOL   C32620954   2.603   5.267   3.574  0.3204 -0.1548 -0.2735
   55MOL   O32720955   2.631   5.406   3.541  0.0044  0.1899  0.0363
   55MOL   C32820956   2.528   5.496   3.585  0.4163  0.2722 -0.0062
   55MOL   C32920957   2.581   5.632   3.541  0.1867  0.3710 -0.5552
   55MOL   C33020958   2.611   5.649   3.392  0.3167 -0.5328  0.2258
   55MOL   C33120959   2.639   5.794   3.365  0.5431  0.2147  0.4587
   55MOL   H33220960   2.716   5.206   3.759  0.0736 -0.7574 -0.6785
   55MOL   H33320961   2.612   5.342   3.780  1.5298  0.2561 -1.4706
   55MOL   H33420962   2.499   5.235   3.564 -0.0455  0.7766  0.3918
   55MOL   H33520963   2.519   5.496   3.694  0.8165 -0.1707  0.0282
   55MOL   H33620964   2.437   5.476   3.530 -0.9794  0.1371  2.3090
   55MOL   H33720965   2.522   5.711   3.586  0.2538  0.4144 -0.5436
   55MOL   H33820966   2.673   5.642   3.599  0.2980 -0.8649 -0.5055
   55MOL   H33920967   2.527   5.617   3.329  0.1144 -0.0757  0.2599
   55MOL   H34020968   2.701   5.595   3.366  0.7852  1.3346 -2.1936
   55MOL   H34120969   2.675   5.807   3.263 -1.3877  0.1251 -0.2639
   55MOL   H34220970   2.709   5.837   3.436 -1.4670  2.7261  1.0145
   55MOL   H34320971   2.548   5.853   3.377 -0.5968 -1.1113 -1.3612
   55MOL   C34420972   2.700   5.190   3.487 -0.3844 -0.0249  0.5289
   55MOL   C34520973   2.647   5.197   3.335  0.7002  0.0014 -0.1551
   55MOL   O34620974   2.515   5.137   3.334  0.0194 -0.3649 -0.3986
   55MOL   C34720975   2.412   5.227   3.299  0.1199 -0.0879  0.0358
   55MOL   C34820976   2.285   5.152   3.328  0.1027  0.4031  0.3190
   55MOL   C34920977   2.266   5.007   3.275  0.1588  0.7050  0.2161
   55MOL   C35020978   2.339   4.888   3.347  0.4277  0.0940  0.0880
   55MOL   H35120979   2.802   5.227   3.498  0.8526 -2.8003 -1.3147
   55MOL   H35220980   2.717   5.089   3.524  1.7668  0.2693  0.3607
   55MOL   H35320981   2.648   5.301   3.304  0.4093 -0.3061 -1.2669
   55MOL   H35420982   2.419   5.249   3.192  0.3689  0.5021  0.1740
   55MOL   H35520983   2.408   5.318   3.359  0.3760 -0.2352  0.2775
   55MOL   H35620984   2.202   5.208   3.284  1.9291  1.4748 -1.8861
   55MOL   H35720985   2.267   5.132   3.434  0.3148 -0.4319  0.2033
   55MOL   H35820986   2.161   4.984   3.291  0.2400  0.7020  0.7304
   55MOL   H35920987   2.275   5.001   3.166  1.6686  0.0145  0.3596
   55MOL   H36020988   2.293   4.793   3.319 -1.4451  0.6454  1.1778
   55MOL   H36120989   2.329   4.897   3.455 -0.2806  1.0351 -0.0493
   55MOL   H36220990   2.443   4.875   3.319  0.5742  0.8810  0.2560
   55MOL   C36320991   2.740   5.114   3.243 -0.4355  0.4615  0.7783
   55MOL   C36420992   2.717   5.141   3.094  0.0048  0.3330 -0.1517
   55MOL   O36520993   2.742   5.277   3.084  0.2865 -0.9007  0.2844
   55MOL   C36620994   2.707   5.345   2.956 -0.4019  0.3495 -0.3361
   55MOL   C36720995   2.766   5.484   2.956  0.2594  0.0817  0.3136
   55MOL   C36820996   2.911   5.473   2.949  0.4362 -0.1340 -0.1940
   55MOL   C36920997   2.986   5.598   2.983 -0.0096 -0.6402 -0.4279
   55MOL   H37020998   2.714   5.009   3.253  1.7756 -0.1691  0.0327
   55MOL   H37120999   2.846   5.125   3.263 -0.0766  0.0862 -0.8332
   55MOL   H37221000   2.620   5.118   3.049 -0.3018 -0.8678  1.0661
   55MOL   H37321001   2.599   5.343   2.948 -0.3390 -0.1361 -1.1311
   55MOL   H37421002   2.753   5.290   2.873 -1.2894  2.9670 -2.6169
   55MOL   H37521003   2.743   5.540   3.047 -0.4763  0.9469 -0.3958
   55MOL   H37621004   2.729   5.540   2.870  0.1789 -2.7797 -1.5792
   55MOL   H37721005   2.950   5.431   2.856 -0.7448  1.1311 -1.2836
   55MOL   H37821006   2.936   5.407   3.031  0.2931  0.0992  0.0364
   55MOL   H37921007   3.090   5.587   2.953 -0.1766 -1.2397 -0.7834
   55MOL   H38021008   2.940   5.690   2.946 -1.9206 -1.0578  0.8103
   55MOL   H38121009   2.984   5.605   3.092 -0.5081 -1.2058 -0.3944
   55MOL   H38221010   2.793   5.081   3.044  1.2768  1.3242  0.5706
   56MOL     C121011   6.428   5.579   6.418  0.0717 -0.1789 -0.0025
   56MOL     C221012   6.510   5.705   6.417  0.0745  0.0023  0.2300
   56MOL     O321013   6.588   5.714   6.538  0.4789 -0.6115  0.4654
   56MOL     C421014   6.535   5.805   6.642 -0.1595 -0.2527  0.5908
   56MOL     C521015   6.575   5.759   6.782 -0.0161 -0.2169 -0.2564
   56MOL     C621016   6.488   5.651   6.833 -0.3893 -0.8115  0.6087
   56MOL     C721017   6.537   5.596   6.969  0.1424 -0.7721  0.3058
   56MOL     H821018   6.346   5.573   6.489 -0.0974 -0.0454 -0.1846
   56MOL     H921019   6.407   5.543   6.317 -0.3849 -1.6778  0.6253
   56MOL    H1021020   6.443   5.790   6.405 -1.1834 -1.2789 -2.1778
   56MOL    H1121021   6.560   5.908   6.618 -5.4328  1.1476  0.5622
   56MOL    H1221022   6.427   5.809   6.637 -0.1735  0.5299  1.3745
   56MOL    H1321023   6.601   5.837   6.854 -0.3872  2.9001 -3.4142
   56MOL    H1421024   6.671   5.709   6.770 -0.6225 -1.1187 -1.4537
   56MOL    H1521025   6.479   5.572   6.759 -1.9262 -0.2808  0.2125
   56MOL    H1621026   6.385   5.682   6.852  0.2612  0.5762  1.9441
   56MOL    H1721027   6.471   5.521   7.014  1.8364 -1.0661  2.4128
   56MOL    H1821028   6.570   5.673   7.039 -0.2243  1.2976 -1.7384
   56MOL    H1921029   6.626   5.535   6.954  0.6835 -0.6791  2.8838
   56MOL    H2021030   6.494   5.497   6.446 -0.9765 -0.7351  0.8576
   56MOL    C2121031   6.606   5.713   6.303 -0.1005 -1.1266  0.1562
   56MOL    C2221032   6.708   5.828   6.310  0.9936  0.3453 -0.2876
   56MOL    O2321033   6.811   5.789   6.221 -0.0239  0.1866 -0.5350
   56MOL    C2421034   6.923   5.720   6.286  0.5908 -0.3116 -0.0799
   56MOL    C2521035   7.011   5.657   6.180 -0.2515 -0.0348  0.0649
   56MOL    C2621036   6.953   5.549   6.092  0.6042  0.1354  0.5157
   56MOL    C2721037   7.056   5.491   6.002 -0.2077 -0.2696  0.0100
   56MOL    H2821038   6.554   5.700   6.209 -0.1338  4.1193 -0.6725
   56MOL    H2921039   6.670   5.625   6.310  2.2773  0.5156 -0.2321
   56MOL    H3021040   6.739   5.854   6.411 -0.9159  0.0293  0.3920
   56MOL    H3121041   6.884   5.641   6.350 -0.2374 -0.7611 -1.1447
   56MOL    H3221042   6.980   5.786   6.352  1.4336 -0.0141 -1.1096
   56MOL    H3321043   7.063   5.726   6.114  1.0638 -1.5845 -0.5780
   56MOL    H3421044   7.092   5.606   6.233  0.7331  1.5326  0.0867
   56MOL    H3521045   6.913   5.479   6.165 -1.4654  0.0604 -0.6609
   56MOL    H3621046   6.864   5.576   6.036  0.5579 -0.9793  0.0353
   56MOL    H3721047   7.147   5.463   6.056  0.1057  2.0906  0.7925
   56MOL    H3821048   7.020   5.403   5.948  1.0263 -0.8483  0.1128
   56MOL    H3921049   7.080   5.571   5.932  2.0700 -1.3070 -0.4307
   56MOL    C4021050   6.648   5.961   6.252  0.2546 -0.3661 -0.4841
   56MOL    C4121051   6.739   6.081   6.233 -0.0198  0.3070  0.1916
   56MOL    O4221052   6.771   6.153   6.347  0.5559 -0.3984  0.4523
   56MOL    C4321053   6.899   6.099   6.405  0.7120  0.1238 -0.3764
   56MOL    C4421054   6.932   6.156   6.545  1.0131 -0.1876 -0.4099
   56MOL    C4521055   6.827   6.130   6.649 -0.8117  0.7413  1.6734
   56MOL    C4621056   6.847   6.000   6.729 -0.0087 -0.0386 -0.0754
   56MOL    H4721057   6.550   5.991   6.289  1.2345  1.0888  0.9953
   56MOL    H4821058   6.614   5.929   6.153 -1.2897 -0.1665 -0.0326
   56MOL    H4921059   6.828   6.046   6.180 -0.5077 -0.0357 -0.4105
   56MOL    H5021060   6.976   6.123   6.332 -0.1422  0.5523 -1.1459
   56MOL    H5121061   6.893   5.992   6.421  2.0546  0.3107  1.5798
   56MOL    H5221062   6.936   6.265   6.535 -0.2320  0.1828  2.5401
   56MOL    H5321063   7.027   6.119   6.583  1.1297  1.5219  1.0491
   56MOL    H5421064   6.735   6.129   6.591  0.9173  0.6384 -1.1387
   56MOL    H5521065   6.825   6.210   6.723 -2.4666  1.2043  1.1281
   56MOL    H5621066   6.783   6.006   6.817  1.1439  1.7616  0.6825
   56MOL    H5721067   6.821   5.909   6.676  0.8058 -0.2643 -0.0998
   56MOL    H5821068   6.949   5.997   6.769 -1.0042  1.2310  2.6967
   56MOL    C5921069   6.681   6.173   6.128 -0.5391 -0.6717  0.1323
   56MOL    C6021070   6.782   6.261   6.057  0.4019  0.0792 -0.1747
   56MOL    O6121071   6.869   6.197   5.970 -0.6270  0.0671 -0.1216
   56MOL    C6221072   7.010   6.188   6.014 -0.3013  0.3650  0.1108
   56MOL    C6321073   7.068   6.063   5.942 -0.5058  0.0794 -0.0823
   56MOL    C6421074   7.051   6.072   5.791  0.3278 -0.0202  0.2958
   56MOL    C6521075   7.132   6.187   5.734 -0.2275 -0.0979  0.6848
   56MOL    H6621076   6.631   6.123   6.045  0.3734  0.4901 -1.1533
   56MOL    H6721077   6.601   6.229   6.177 -0.9158 -1.5858  0.5739
   56MOL    H6821078   6.831   6.312   6.140 -0.3158 -0.5744  0.6470
   56MOL    H6921079   7.013   6.174   6.122 -0.9081  2.6055  0.4592
   56MOL    H7021080   7.069   6.279   6.004  0.1698  0.4948  3.3850
   56MOL    H7121081   7.172   6.043   5.971  0.0514  2.3515 -0.3890
   56MOL    H7221082   7.015   5.975   5.978 -0.0046 -0.6980 -1.2102
   56MOL    H7321083   7.086   5.977   5.750 -2.5356  0.0189 -2.5404
   56MOL    H7421084   6.945   6.082   5.765  0.3747  0.6223  0.3385
   56MOL    H7521085   7.109   6.200   5.628  0.6938 -0.7091  0.4064
   56MOL    H7621086   7.115   6.290   5.767 -0.6505 -0.0818  0.4232
   56MOL    H7721087   7.240   6.173   5.742 -0.0383  0.5424 -0.5638
   56MOL    C7821088   6.699   6.366   5.975  0.1377  0.5007  0.0825
   56MOL    C7921089   6.775   6.502   5.955  0.5554  0.3122 -0.0109
   56MOL    O8021090   6.803   6.562   6.082 -0.2111 -0.4398  0.1861
   56MOL    C8121091   6.686   6.625   6.144 -0.1018  0.2198  0.1223
   56MOL    C8221092   6.706   6.659   6.291 -0.2851  0.4468  0.0734
   56MOL    C8321093   6.738   6.532   6.381 -0.7516 -0.2855 -0.0242
   56MOL    C8421094   6.692   6.545   6.525 -0.1833 -1.0739 -0.1991
   56MOL    H8521095   6.607   6.380   6.031  0.7371  1.8815  0.7503
   56MOL    H8621096   6.671   6.326   5.877  0.5020  0.3717  0.0321
   56MOL    H8721097   6.870   6.473   5.911 -2.0747 -0.9514 -5.2326
   56MOL    H8821098   6.598   6.566   6.119 -0.3130  1.6156 -2.7234
   56MOL    H8921099   6.668   6.719   6.092  0.8772 -0.6759 -1.9166
   56MOL    H9021100   6.776   6.740   6.309 -0.5276  0.2351  1.9843
   56MOL    H9121101   6.611   6.693   6.331 -0.0923 -0.7928  1.6402
   56MOL    H9221102   6.846   6.517   6.378 -0.3783  2.3363 -0.7403
   56MOL    H9321103   6.691   6.439   6.350  0.7564 -0.7794 -0.8400
   56MOL    H9421104   6.715   6.637   6.579 -2.4417 -0.7536  0.2760
   56MOL    H9521105   6.589   6.510   6.528 -0.5870 -0.0228 -1.6144
   56MOL    H9621106   6.732   6.473   6.596  1.1086  0.7052  0.9185
   56MOL    C9721107   6.723   6.604   5.845  0.5048  0.3025  0.1087
   56MOL    C9821108   6.757   6.564   5.700  0.4402 -0.0148 -0.1248
   56MOL    O9921109   6.691   6.662   5.629 -0.8538  0.6622  0.5266
   56MOL   C10021110   6.562   6.623   5.588 -0.4962 -0.4370 -0.1697
   56MOL   C10121111   6.513   6.697   5.467  0.2350  0.4479  0.7137
   56MOL   C10221112   6.360   6.689   5.444 -0.4686  0.2002  0.6484
   56MOL   C10321113   6.314   6.790   5.333 -0.3817 -0.2004  0.4237
   56MOL   H10421114   6.768   6.699   5.874 -0.2787  1.0447 -1.0298
   56MOL   H10521115   6.615   6.609   5.861  0.6940 -0.8332  1.7743
   56MOL   H10621116   6.724   6.460   5.689  1.7754 -0.3766 -0.8470
   56MOL   H10721117   6.493   6.652   5.667  2.5673  2.9784  1.4107
   56MOL   H10821118   6.546   6.515   5.589  0.9179 -0.6547  1.6026
   56MOL   H10921119   6.567   6.662   5.379 -2.8896 -0.7522 -0.8040
   56MOL   H11021120   6.541   6.800   5.489  1.4786  0.2903 -0.1024
   56MOL   H11121121   6.320   6.703   5.545  0.6433 -2.0654  1.4486
   56MOL   H11221122   6.331   6.586   5.419  3.9094 -1.5831  2.4054
   56MOL   H11321123   6.206   6.781   5.336 -0.5480  1.2720 -0.9658
   56MOL   H11421124   6.344   6.894   5.342 -0.3734 -0.2947  1.6669
   56MOL   H11521125   6.340   6.753   5.234 -0.7387  0.8774 -0.0807
   56MOL   C11621126   6.912   6.557   5.666  0.6598 -0.6647  0.4181
   56MOL   C11721127   6.949   6.530   5.516  0.3854 -0.7361 -0.2245
   56MOL   O11821128   7.093   6.550   5.506  0.4776  0.5943  1.1745
   56MOL   C11921129   7.129   6.643   5.401 -0.1828 -0.0069 -0.1252
   56MOL   C12021130   7.279   6.627   5.365  0.0936  0.0215 -0.4198
   56MOL   C12121131   7.308   6.695   5.228 -0.2533  0.6822  0.4460
   56MOL   C12221132   7.453   6.722   5.212  0.1985  0.3105  0.7667
   56MOL   H12321133   6.947   6.653   5.704  2.3543 -0.9278 -0.4515
   56MOL   H12421134   6.960   6.488   5.735 -0.3490 -1.7129  0.0829
   56MOL   H12521135   6.905   6.607   5.452  1.8787 -0.0684 -0.4907
   56MOL   H12621136   7.119   6.745   5.440  3.3366 -0.0092  1.0184
   56MOL   H12721137   7.071   6.631   5.310  0.7966  1.3788 -0.9705
   56MOL   H12821138   7.307   6.524   5.345 -2.8754 -0.7545 -0.8047
   56MOL   H12921139   7.340   6.677   5.440  0.3768  0.8877 -1.2212
   56MOL   H13021140   7.276   6.633   5.144 -1.9148  2.0505  0.0354
   56MOL   H13121141   7.255   6.790   5.223 -1.0290  0.2085 -0.3792
   56MOL   H13221142   7.509   6.633   5.238  1.0972  0.4503 -0.6107
   56MOL   H13321143   7.496   6.804   5.269  0.8233  0.7258 -0.2919
   56MOL   H13421144   7.474   6.749   5.108  0.2273 -2.3882  0.0409
   56MOL   C13521145   6.909   6.392   5.463  0.0622 -0.6437  0.6780
   56MOL   C13621146   6.878   6.387   5.311  0.2465 -0.1290 -0.3533
   56MOL   O13721147   6.883   6.248   5.270 -0.0576  0.3450 -0.0800
   56MOL   C13821148   7.006   6.205   5.223  0.0781  0.2823 -0.0904
   56MOL   C13921149   7.011   6.049   5.234  0.0035 -0.1801 -0.3115
   56MOL   C14021150   7.042   6.006   5.382 -0.1313 -0.2107  0.7829
   56MOL   C14121151   6.915   6.000   5.457 -0.3937 -0.5817  0.3985
   56MOL   H14221152   6.823   6.349   5.515 -1.7350  2.9992  0.8668
   56MOL   H14321153   6.990   6.322   5.485 -2.9096 -4.9536 -1.3037
   56MOL   H14421154   6.951   6.446   5.256  0.6615  0.2977  0.6401
   56MOL   H14521155   7.083   6.245   5.288 -0.9430 -0.1254  1.4094
   56MOL   H14621156   7.026   6.247   5.125  0.2468 -1.0394 -0.6341
   56MOL   H14721157   7.091   6.013   5.169 -1.7031 -1.2222 -1.8391
   56MOL   H14821158   6.919   6.008   5.194  0.4101 -1.2846 -0.1234
   56MOL   H14921159   7.087   5.909   5.402  0.6304 -0.3574 -1.5616
   56MOL   H15021160   7.110   6.080   5.426  0.6485 -0.6797  0.3795
   56MOL   H15121161   6.853   5.915   5.428 -0.8418 -0.3412  0.6408
   56MOL   H15221162   6.939   5.987   5.563  3.0398  0.7238 -0.1422
   56MOL   H15321163   6.858   6.089   5.434 -0.2277  0.1574  2.7508
   56MOL   C15421164   6.741   6.454   5.285  0.4819 -0.9380 -0.1705
   56MOL   C15521165   6.678   6.422   5.146  0.0580 -0.4490 -0.1721
   56MOL   O15621166   6.577   6.523   5.110  1.3061  0.0441 -0.1265
   56MOL   C15721167   6.630   6.639   5.048  0.0191  0.7328  0.7590
   56MOL   C15821168   6.652   6.621   4.896 -0.5991  0.3243 -0.4396
   56MOL   C15921169   6.526   6.595   4.821 -0.0349 -0.4795 -0.5900
   56MOL   C16021170   6.541   6.565   4.675  0.7095  0.7463 -0.3273
   56MOL   H16121171   6.759   6.561   5.295  1.9138 -1.1859 -0.0304
   56MOL   H16221172   6.671   6.433   5.366  2.4618 -0.6068  1.6752
   56MOL   H16321173   6.760   6.421   5.074  0.0166  1.1431 -0.2796
   56MOL   H16421174   6.556   6.719   5.056 -0.6550  0.4550 -2.0334
   56MOL   H16521175   6.722   6.667   5.099  0.5282  0.5096 -0.0417
   56MOL   H16621176   6.732   6.550   4.873  1.4458  1.9251  1.5862
   56MOL   H16721177   6.685   6.716   4.854 -0.3502  1.6802  2.7145
   56MOL   H16821178   6.478   6.507   4.865 -1.7261  0.9274  0.4566
   56MOL   H16921179   6.464   6.684   4.833 -0.5547 -0.5382 -2.7444
   56MOL   H17021180   6.605   6.636   4.622 -0.3265  1.3133 -0.8224
   56MOL   H17121181   6.588   6.468   4.662  2.0951  1.4801 -0.8898
   56MOL   H17221182   6.444   6.556   4.626  0.3532 -0.3679  0.5596
   56MOL   C17321183   6.613   6.280   5.152  0.4082  0.2849 -0.3449
   56MOL   C17421184   6.607   6.204   5.022 -0.7120 -0.1109  0.7891
   56MOL   O17521185   6.734   6.205   4.962  0.4085 -0.1218  0.3268
   56MOL   C17621186   6.734   6.191   4.822  0.3785 -0.1905  0.4182
   56MOL   C17721187   6.880   6.173   4.797  0.4492 -0.4664  0.1316
   56MOL   C17821188   6.948   6.046   4.847  0.3673 -0.5689  0.3865
   56MOL   C17921189   7.096   6.034   4.806 -0.2967 -0.9102 -0.2436
   56MOL   H18021190   6.511   6.294   5.189  0.6184 -0.2732  0.4464
   56MOL   H18121191   6.660   6.215   5.225  0.0774  0.0736 -0.3215
   56MOL   H18221192   6.542   6.253   4.949  0.7800 -1.0608 -1.2154
   56MOL   H18321193   6.713   6.286   4.771 -0.9495 -0.3204  0.7053
   56MOL   H18421194   6.671   6.119   4.771 -0.4652  1.0313 -0.3090
   56MOL   H18521195   6.927   6.260   4.844 -2.4200  0.0603  2.2310
   56MOL   H18621196   6.900   6.194   4.692  2.6624  1.0535  0.8154
   56MOL   H18721197   6.935   6.034   4.955  0.8623 -0.1896  0.4906
   56MOL   H18821198   6.892   5.966   4.799 -1.6776  0.1267  1.5436
   56MOL   H18921199   7.141   6.130   4.779  1.3367 -0.9154  2.2462
   56MOL   H19021200   7.156   5.989   4.885 -0.9510 -1.2431  0.0670
   56MOL   H19121201   7.106   5.969   4.720  2.7703  0.1730 -0.7487
   56MOL   C19221202   6.568   6.060   5.030  0.3769  0.6283  0.0792
   56MOL   C19321203   6.419   6.034   5.041 -0.4565  0.1174  0.2699
   56MOL   O19421204   6.371   6.023   4.906 -0.0716  0.1135  0.3676
   56MOL   C19521205   6.274   6.118   4.883  0.7431 -0.1055  0.5679
   56MOL   C19621206   6.219   6.073   4.744 -0.1416 -0.7658  0.3042
   56MOL   C19721207   6.141   5.942   4.737 -0.2085  0.2260 -0.2498
   56MOL   C19821208   6.080   5.920   4.601  0.2784 -0.3954  0.2569
   56MOL   H19921209   6.614   6.017   5.119 -0.2953  1.6550  0.9272
   56MOL   H20021210   6.596   6.010   4.937 -1.7298 -1.9562  0.7543
   56MOL   H20121211   6.366   6.114   5.093 -0.8096 -0.7422  1.2509
   56MOL   H20221212   6.316   6.218   4.875 -0.6063  0.3140 -2.0422
   56MOL   H20321213   6.189   6.112   4.951 -1.1994 -3.1184 -2.0162
   56MOL   H20421214   6.152   6.152   4.710 -2.6834 -2.3370  1.4582
   56MOL   H20521215   6.303   6.071   4.675  1.1881 -2.4662  1.8976
   56MOL   H20621216   6.065   5.945   4.815  0.2467 -0.0241  0.2069
   56MOL   H20721217   6.209   5.860   4.760 -0.1719  0.7491  1.5744
   56MOL   H20821218   5.996   5.985   4.579  0.1472 -0.0014  1.8486
   56MOL   H20921219   6.149   5.946   4.520 -1.9080  1.3166 -1.1026
   56MOL   H21021220   6.053   5.814   4.594  1.9125 -0.7592 -0.7870
   56MOL   C21121221   6.389   5.894   5.108  0.4294 -0.3334 -0.5913
   56MOL   C21221222   6.232   5.874   5.129  0.0203 -0.6091 -0.2711
   56MOL   O21321223   6.189   5.736   5.127  0.4104 -0.3621  0.6155
   56MOL   C21421224   6.180   5.664   5.005  0.1861  0.6323  0.1566
   56MOL   C21521225   6.045   5.621   4.960 -0.7242  0.0556  0.1141
   56MOL   C21621226   6.037   5.543   4.831 -0.1532 -0.3448  0.0935
   56MOL   C21721227   5.900   5.524   4.775  0.4516  0.0223  0.6347
   56MOL   H21821228   6.441   5.881   5.203 -1.8702  1.5362  0.9670
   56MOL   H21921229   6.427   5.815   5.043 -0.2585 -0.2137 -1.1335
   56MOL   H22021230   6.186   5.926   5.045 -1.3149  1.3689  1.6300
   56MOL   H22121231   6.213   5.724   4.920 -0.5929  1.3587  0.3654
   56MOL   H22221232   6.242   5.578   5.032 -0.8577  0.0270  0.6279
   56MOL   H22321233   5.995   5.561   5.036  0.8279 -3.2833 -1.4248
   56MOL   H22421234   5.994   5.717   4.949 -1.2789 -0.3475 -0.8528
   56MOL   H22521235   6.086   5.446   4.832 -0.4632 -0.5119 -0.4402
   56MOL   H22621236   6.087   5.599   4.752 -1.0271  1.8335  1.0520
   56MOL   H22721237   5.848   5.461   4.847  2.8326 -1.3882  1.1679
   56MOL   H22821238   5.891   5.461   4.686  1.5478 -1.8093  1.7767
   56MOL   H22921239   5.843   5.616   4.764 -1.9291 -1.6227 -1.4208
   56MOL   C23021240   6.177   5.937   5.254 -0.1960 -0.0310 -0.6869
   56MOL   C23121241   6.021   5.936   5.262 -0.0955  0.5888 -0.7570
   56MOL   O23221242   5.969   5.953   5.396  0.0123 -0.3388  0.0360
   56MOL   C23321243   5.942   5.832   5.466  0.0365  0.2241  0.2899
   56MOL   C23421244   5.908   5.856   5.618 -0.0381  0.1381 -0.3979
   56MOL   C23521245   5.774   5.927   5.638 -0.9402 -0.7584 -0.3403
   56MOL   C23621246   5.743   5.976   5.778  0.3700  0.8299 -0.9933
   56MOL   H23721247   6.203   6.040   5.278 -1.4201  0.3096 -0.7919
   56MOL   H23821248   6.218   5.878   5.336 -0.5938  1.3743  0.5491
   56MOL   H23921249   5.996   5.839   5.218  1.8944 -0.8700  1.2639
   56MOL   H24021250   5.863   5.777   5.415  1.0026 -1.2422  0.3206
   56MOL   H24121251   6.029   5.766   5.470  0.6404  0.9511 -0.6231
   56MOL   H24221252   5.900   5.763   5.673 -1.8958 -0.6118 -1.8782
   56MOL   H24321253   5.988   5.909   5.671  0.5697 -0.4817 -0.6946
   56MOL   H24421254   5.695   5.856   5.616 -0.9372 -0.9784  0.3480
   56MOL   H24521255   5.764   6.008   5.567 -1.0557  0.5260  1.1211
   56MOL   H24621256   5.720   5.892   5.843  2.1427 -0.4172 -1.9260
   56MOL   H24721257   5.649   6.030   5.782 -0.2441 -0.2905  0.1581
   56MOL   H24821258   5.816   6.037   5.830 -1.2437  0.3843  1.8824
   56MOL   C24921259   5.952   6.045   5.180 -0.1750  0.3548  0.0717
   56MOL   C25021260   5.794   6.033   5.163 -0.9538 -0.1506 -0.0273
   56MOL   O25121261   5.763   5.934   5.067 -0.9147  0.1188 -0.3271
   56MOL   C25221262   5.720   5.810   5.123 -0.2520  0.0201  0.2897
   56MOL   C25321263   5.674   5.710   5.020  0.1284 -0.0307  0.1798
   56MOL   C25421264   5.546   5.748   4.932 -0.5623 -0.2504 -1.0680
   56MOL   C25521265   5.493   5.641   4.833 -0.1826  0.1595  0.3902
   56MOL   H25621266   6.000   6.031   5.084 -2.7215  0.7225 -1.3016
   56MOL   H25721267   5.985   6.139   5.225  0.9308  0.1534 -0.3130
   56MOL   H25821268   5.757   6.000   5.260 -0.4069 -0.2431  0.1474
   56MOL   H25921269   5.634   5.828   5.188 -0.7450  1.2907 -0.6914
   56MOL   H26021270   5.791   5.763   5.190 -0.8111 -0.8038  0.3176
   56MOL   H26121271   5.751   5.678   4.949  0.3770 -1.2819  0.9929
   56MOL   H26221272   5.643   5.617   5.068 -0.1482  0.1722  0.3935
   56MOL   H26321273   5.470   5.772   5.006  1.8235  1.3394  0.9495
   56MOL   H26421274   5.568   5.840   4.878 -1.4922 -0.3085 -1.5552
   56MOL   H26521275   5.567   5.602   4.763  0.4702  1.0993  0.5370
   56MOL   H26621276   5.409   5.675   4.773 -0.7785  0.1786  1.2239
   56MOL   H26721277   5.464   5.549   4.883 -0.7674 -0.2959 -0.7918
   56MOL   C26821278   5.744   6.173   5.107  0.4480  0.2568 -0.2067
   56MOL   C26921279   5.589   6.172   5.080  0.3017 -0.4159 -0.2524
   56MOL   O27021280   5.526   6.182   5.209  0.4292 -0.2165 -0.5264
   56MOL   C27121281   5.423   6.087   5.225  0.2556 -0.2610 -0.4971
   56MOL   C27221282   5.353   6.131   5.353 -0.1115  0.2565  0.2476
   56MOL   C27321283   5.439   6.110   5.484  0.2598 -0.1611 -0.6991
   56MOL   C27421284   5.390   6.200   5.600 -0.6064  0.3232 -0.4659
   56MOL   H27521285   5.781   6.241   5.184 -0.3758 -1.3051  1.6095
   56MOL   H27621286   5.792   6.194   5.011 -0.8476 -0.0894 -0.9361
   56MOL   H27721287   5.557   6.079   5.034  1.5407 -2.3065  2.5631
   56MOL   H27821288   5.351   6.084   5.144  0.1652 -0.0605 -0.4272
   56MOL   H27921289   5.453   5.984   5.240 -1.4460 -0.4876  1.6237
   56MOL   H28021290   5.336   6.238   5.345  1.7723  0.5489 -0.1868
   56MOL   H28121291   5.259   6.078   5.370  0.4406 -0.9962 -0.4816
   56MOL   H28221292   5.542   6.141   5.464  0.2751  2.0758  2.3886
   56MOL   H28321293   5.458   6.005   5.506  2.0181  0.1412 -0.6950
   56MOL   H28421294   5.440   6.296   5.587 -0.9787  0.5955  0.1044
   56MOL   H28521295   5.414   6.160   5.699 -1.7766 -0.9329 -0.6793
   56MOL   H28621296   5.285   6.227   5.586 -0.8764 -1.2268 -1.6225
   56MOL   C28721297   5.546   6.302   5.009 -0.6458  0.6263  0.3626
   56MOL   C28821298   5.572   6.290   4.856  0.0838  0.0848  0.8388
   56MOL   O28921299   5.571   6.420   4.805 -0.0322 -0.2862  0.2786
   56MOL   C29021300   5.696   6.470   4.761 -0.0780  0.0525  0.1748
   56MOL   C29121301   5.686   6.614   4.708  0.2653  0.5047 -0.2304
   56MOL   C29221302   5.657   6.632   4.555 -0.0583  0.5448  0.4078
   56MOL   C29321303   5.632   6.775   4.506  0.1450 -0.6062 -0.6696
   56MOL   H29421304   5.594   6.383   5.064 -0.5190 -0.9303  2.5862
   56MOL   H29521305   5.438   6.309   5.024 -0.7750  1.4018 -0.8506
   56MOL   H29621306   5.668   6.240   4.846  1.1171  2.7080 -4.0018
   56MOL   H29721307   5.762   6.474   4.847 -0.4027 -0.1221  0.4347
   56MOL   H29821308   5.751   6.417   4.682  0.1512 -0.8921  0.9596
   56MOL   H29921309   5.786   6.657   4.719  0.0893  1.1652 -1.1561
   56MOL   H30021310   5.613   6.677   4.759 -0.8890 -1.8935  1.1736
   56MOL   H30121311   5.567   6.579   4.522  0.5159  0.5327 -1.2053
   56MOL   H30221312   5.737   6.597   4.491  0.1894  0.1928  0.9073
   56MOL   H30321313   5.627   6.772   4.398  1.9711  0.1645 -0.7876
   56MOL   H30421314   5.534   6.814   4.537  1.9789  1.6272  2.7171
   56MOL   H30521315   5.713   6.844   4.529 -0.1561 -0.8485  1.2195
   56MOL   C30621316   5.465   6.199   4.794  0.0619 -0.2088  0.3190
   56MOL   C30721317   5.511   6.159   4.650 -0.5768  0.5630 -0.0402
   56MOL   O30821318   5.402   6.149   4.553  0.3358  0.1752  0.3028
   56MOL   C30921319   5.369   6.266   4.490 -0.0678 -0.1192  0.0775
   56MOL   C31021320   5.223   6.262   4.427 -0.1538  0.9847  0.1497
   56MOL   C31121321   5.207   6.171   4.304 -0.3865  0.1655 -0.0631
   56MOL   C31221322   5.085   6.179   4.221 -0.0299 -0.0760  0.4867
   56MOL   H31321323   5.464   6.101   4.843 -0.5296 -0.5339 -0.3241
   56MOL   H31421324   5.365   6.238   4.812  0.5110  0.9280  0.3666
   56MOL   H31521325   5.578   6.238   4.616  0.4465 -1.1982 -2.2612
   56MOL   H31621326   5.442   6.294   4.414  0.3085  0.4722  0.6545
   56MOL   H31721327   5.359   6.351   4.558 -1.0790 -2.0995  2.5032
   56MOL   H31821328   5.177   6.357   4.402 -2.5419  0.0742  0.9395
   56MOL   H31921329   5.146   6.225   4.494  0.2668  1.0839  0.6939
   56MOL   H32021330   5.302   6.180   4.251  0.9851 -0.9204  2.1128
   56MOL   H32121331   5.216   6.068   4.339  1.3289  0.8250  1.5566
   56MOL   H32221332   4.991   6.162   4.274  0.4064 -0.1440  1.2395
   56MOL   H32321333   5.085   6.106   4.140  2.5080 -0.3449  0.7036
   56MOL   H32421334   5.078   6.274   4.168  1.9714 -0.9190 -1.3216
   56MOL   C32521335   5.590   6.028   4.649  0.1246  0.2708  0.2595
   56MOL   C32621336   5.646   5.989   4.513  0.6530 -0.2655 -0.2795
   56MOL   O32721337   5.749   6.073   4.477 -0.4860 -0.0330  0.1161
   56MOL   C32821338   5.731   6.144   4.353  0.6148 -0.7893 -0.0802
   56MOL   C32921339   5.868   6.184   4.299  0.2859  0.4999 -0.5551
   56MOL   C33021340   5.969   6.257   4.394 -0.1241  0.3075 -0.9966
   56MOL   C33121341   6.085   6.306   4.308  0.1576  0.5662 -0.4226
   56MOL   H33221342   5.520   5.953   4.687 -3.0992  1.5681 -2.8545
   56MOL   H33321343   5.671   6.033   4.722 -0.1287 -1.0952  0.6487
   56MOL   H33421344   5.557   5.993   4.451 -0.5698 -0.2045  1.4320
   56MOL   H33521345   5.665   6.229   4.371  1.3815 -0.2868  0.3740
   56MOL   H33621346   5.690   6.080   4.275  1.7905  0.3278 -1.6513
   56MOL   H33721347   5.917   6.093   4.265 -0.0722 -0.2687  0.9689
   56MOL   H33821348   5.845   6.243   4.210  0.3186 -0.4739 -1.2208
   56MOL   H33921349   6.003   6.199   4.481 -2.2173  2.3964  1.2812
   56MOL   H34021350   5.918   6.342   4.439  1.6904  0.1812  1.4506
   56MOL   H34121351   6.153   6.365   4.370  2.2721 -1.6225 -0.5780
   56MOL   H34221352   6.045   6.379   4.237 -2.2585  0.0488  0.3674
   56MOL   H34321353   6.140   6.230   4.251 -0.5340 -0.5121  0.3412
   56MOL   C34421354   5.713   5.851   4.522 -0.4951 -0.3486 -0.3581
   56MOL   C34521355   5.731   5.768   4.393  0.1033 -0.5781  0.0246
   56MOL   O34621356   5.613   5.749   4.323 -0.2113  0.4449  0.1661
   56MOL   C34721357   5.497   5.691   4.383  0.1191 -0.5322 -0.2485
   56MOL   C34821358   5.387   5.696   4.280  0.0193  0.0650 -0.4822
   56MOL   C34921359   5.395   5.586   4.170  0.3291 -0.1121  0.1855
   56MOL   C35021360   5.289   5.609   4.056  0.9108 -0.0150 -0.2244
   56MOL   H35121361   5.813   5.863   4.563 -0.7974  0.1712  0.2378
   56MOL   H35221362   5.669   5.782   4.594  1.4113  0.6420  1.8285
   56MOL   H35321363   5.786   5.834   4.326 -2.4580  1.4667 -0.1544
   56MOL   H35421364   5.462   5.749   4.468  1.0129  1.2452 -1.0733
   56MOL   H35521365   5.510   5.589   4.422  1.8731  0.0595  0.8148
   56MOL   H35621366   5.385   5.792   4.227 -0.0868 -0.3642 -1.2756
   56MOL   H35721367   5.288   5.698   4.326 -0.2823  4.9564 -1.0736
   56MOL   H35821368   5.493   5.571   4.126  0.4252 -0.3137  0.4715
   56MOL   H35921369   5.372   5.487   4.210 -1.0097 -0.1087 -0.5555
   56MOL   H36021370   5.191   5.630   4.099  1.6116 -0.2165  1.5242
   56MOL   H36121371   5.269   5.525   3.989  1.1655  1.0981 -1.7252
   56MOL   H36221372   5.308   5.695   3.992  1.9873  0.0952  0.2410
   56MOL   C36321373   5.800   5.628   4.413  0.3310  0.6542 -0.0215
   56MOL   C36421374   5.841   5.572   4.278 -0.2679 -0.4017  0.0158
   56MOL   O36521375   5.935   5.468   4.310  0.6482 -0.4725 -0.1093
   56MOL   C36621376   5.981   5.401   4.192  0.7213  0.4350 -0.2408
   56MOL   C36721377   6.059   5.272   4.235 -0.0944 -0.4387 -0.4691
   56MOL   C36821378   6.123   5.197   4.117 -0.0835  0.2184 -0.3495
   56MOL   C36921379   6.252   5.249   4.048 -0.6851  0.2086  0.2391
   56MOL   H37021380   5.738   5.558   4.468  0.1479  0.6038 -0.2896
   56MOL   H37121381   5.891   5.643   4.471  3.5941 -2.1678 -4.0612
   56MOL   H37221382   5.878   5.645   4.206  0.2349 -1.9015 -1.2808
   56MOL   H37321383   6.048   5.470   4.141  2.3754 -2.0805 -1.5732
   56MOL   H37421384   5.908   5.371   4.117 -1.7404  1.8693  1.5183
   56MOL   H37521385   5.986   5.210   4.287 -0.1800 -0.2148 -0.3211
   56MOL   H37621386   6.132   5.302   4.311 -0.4830  1.5792 -0.8740
   56MOL   H37721387   6.054   5.188   4.033  1.1210  1.8172 -1.5277
   56MOL   H37821388   6.152   5.100   4.157 -0.0165  0.5505  0.4364
   56MOL   H37921389   6.340   5.255   4.112 -0.7745  1.0241  0.2961
   56MOL   H38021390   6.274   5.183   3.965  1.5542  0.3099  0.7164
   56MOL   H38121391   6.232   5.349   4.009  1.2333 -0.1183 -1.6708
   56MOL   H38221392   5.759   5.516   4.233  0.8587 -1.4848 -0.7550
   57MOL     C121393   0.839   5.673   1.907 -0.0791 -0.4280 -0.3096
   57MOL     C221394   0.866   5.803   1.819  0.2729  0.1345  0.4746
   57MOL     O321395   0.852   5.770   1.676 -0.4327  0.5683 -0.7432
   57MOL     C421396   0.967   5.693   1.631  0.6562  0.9266 -0.4132
   57MOL     C521397   0.940   5.615   1.499 -0.2970 -0.2047  0.4242
   57MOL     C621398   1.058   5.536   1.451  0.4484  0.2628 -0.5632
   57MOL     C721399   1.046   5.502   1.303  0.0042  0.7553  0.4492
   57MOL     H821400   0.736   5.640   1.919  0.6543 -2.0941  1.5376
   57MOL     H921401   0.886   5.582   1.870  1.0622 -0.3318  0.8629
   57MOL    H1021402   0.963   5.844   1.846  0.9824  0.4960 -2.4623
   57MOL    H1121403   1.056   5.755   1.639  1.4129 -0.5058  3.2860
   57MOL    H1221404   0.988   5.621   1.709 -1.6775 -0.9631 -1.4496
   57MOL    H1321405   0.913   5.699   1.435  0.6364  0.1977  0.5556
   57MOL    H1421406   0.844   5.566   1.512 -0.0112  0.0435  4.2136
   57MOL    H1521407   1.065   5.448   1.516 -1.4209 -1.0370 -2.0400
   57MOL    H1621408   1.152   5.588   1.466  0.7586 -1.0272  2.3546
   57MOL    H1721409   1.135   5.440   1.292  2.9823  4.6019  1.6428
   57MOL    H1821410   1.054   5.580   1.226  2.2891 -0.4773 -0.6334
   57MOL    H1921411   0.954   5.446   1.289  1.1689 -1.1173  0.1097
   57MOL    H2021412   0.895   5.698   1.997  0.2207  1.9257 -1.0951
   57MOL    C2121413   0.765   5.917   1.856 -0.0411  0.8346 -0.0515
   57MOL    C2221414   0.785   6.052   1.792 -0.4774 -0.0804  0.2234
   57MOL    O2321415   0.668   6.130   1.820  0.0191  0.3340 -0.0514
   57MOL    C2421416   0.581   6.156   1.709 -0.3473 -0.2790  0.6330
   57MOL    C2521417   0.451   6.209   1.739  0.3340  0.6740  0.1953
   57MOL    C2621418   0.360   6.141   1.841  0.5673  0.4823  0.0505
   57MOL    C2721419   0.226   6.219   1.865  0.2552 -0.0515 -0.1212
   57MOL    H2821420   0.755   5.926   1.964 -0.7478  0.9748 -0.1258
   57MOL    H2921421   0.665   5.880   1.832  0.1214 -1.0763  1.9934
   57MOL    H3021422   0.800   6.040   1.685 -0.1697 -0.8883  0.3603
   57MOL    H3121423   0.575   6.053   1.675 -0.8160 -0.4347  1.1763
   57MOL    H3221424   0.632   6.222   1.638 -1.3687 -1.0094 -0.7830
   57MOL    H3321425   0.467   6.306   1.787 -0.6921  0.4108  1.0984
   57MOL    H3421426   0.399   6.223   1.644 -1.9071  0.5412  1.3643
   57MOL    H3521427   0.353   6.034   1.824  1.9987  0.1484  1.3564
   57MOL    H3621428   0.419   6.140   1.933 -0.9498 -0.6593  1.0267
   57MOL    H3721429   0.153   6.154   1.914  1.2700  0.9159  2.7336
   57MOL    H3821430   0.250   6.305   1.927 -0.3249 -0.0582  0.1204
   57MOL    H3921431   0.182   6.247   1.769 -1.2023  0.4444  0.6857
   57MOL    C4021432   0.903   6.126   1.855  1.0055  0.3643  0.5136
   57MOL    C4121433   0.959   6.241   1.757 -0.4793  0.9711  0.2005
   57MOL    O4221434   1.024   6.184   1.649  0.3024 -0.2009  1.0640
   57MOL    C4321435   1.019   6.258   1.523  0.1175  0.0450  0.2674
   57MOL    C4421436   1.087   6.155   1.424 -0.8998 -0.0649 -1.0658
   57MOL    C4521437   1.010   6.023   1.410  1.3114  0.3123 -0.2481
   57MOL    C4621438   1.076   5.924   1.308  0.1119 -0.9218 -0.2475
   57MOL    H4721439   0.985   6.056   1.868  0.1506 -1.2478 -2.3053
   57MOL    H4821440   0.874   6.168   1.951  1.0306 -0.3334  0.8278
   57MOL    H4921441   0.870   6.295   1.725 -1.0562  0.3675  0.7530
   57MOL    H5021442   1.089   6.340   1.537 -1.0481  1.2508 -0.7359
   57MOL    H5121443   0.923   6.296   1.488  1.5803  1.6003 -2.1998
   57MOL    H5221444   1.187   6.128   1.457 -1.3828 -1.2686 -0.5101
   57MOL    H5321445   1.096   6.205   1.328  1.1447 -1.0240 -1.3990
   57MOL    H5421446   0.906   6.044   1.386  0.6781  0.1075  2.1345
   57MOL    H5521447   1.006   5.973   1.507  1.6919  0.8011  0.0177
   57MOL    H5621448   1.071   5.953   1.203  0.1198  0.5310  0.1421
   57MOL    H5721449   1.179   5.903   1.335 -0.1944 -0.5832  1.2080
   57MOL    H5821450   1.025   5.828   1.312  0.4262 -1.0985 -0.4538
   57MOL    C5921451   1.065   6.327   1.822  0.8524  0.1187  0.3465
   57MOL    C6021452   0.993   6.444   1.887  0.1987  0.3656  0.1365
   57MOL    O6121453   0.902   6.396   1.990 -0.0813  0.2445  1.1087
   57MOL    C6221454   0.777   6.473   1.986  0.3986 -0.3650 -0.3750
   57MOL    C6321455   0.660   6.414   2.065  0.2703 -0.0516  0.8252
   57MOL    C6421456   0.683   6.402   2.215 -0.4817  0.5731 -0.4314
   57MOL    C6521457   0.659   6.531   2.297  0.8417 -0.5143 -0.1194
   57MOL    H6621458   1.102   6.262   1.901 -2.3661 -0.3928  1.5334
   57MOL    H6721459   1.137   6.365   1.750  0.3142  0.3332 -0.0823
   57MOL    H6821460   0.934   6.494   1.810 -0.7922  1.1425  1.3581
   57MOL    H6921461   0.745   6.499   1.885  0.2041  0.7832 -0.0234
   57MOL    H7021462   0.786   6.572   2.030  0.1282 -1.6157  2.6425
   57MOL    H7121463   0.571   6.468   2.034 -0.0353 -0.9556  0.0975
   57MOL    H7221464   0.646   6.316   2.019  2.6528  0.0803 -0.3209
   57MOL    H7321465   0.615   6.322   2.245  0.7218  0.1376  1.2546
   57MOL    H7421466   0.787   6.371   2.228  0.1480  2.5253 -0.7613
   57MOL    H7521467   0.561   6.576   2.281  0.7122 -0.5335  0.5777
   57MOL    H7621468   0.670   6.518   2.405 -0.2201 -2.0862 -0.1898
   57MOL    H7721469   0.728   6.612   2.273 -0.7285  0.8721 -0.0905
   57MOL    C7821470   1.093   6.544   1.952  0.1014 -0.0736  0.4925
   57MOL    C7921471   1.189   6.483   2.050  0.0700 -0.1568  0.3286
   57MOL    O8021472   1.213   6.578   2.151 -0.3557  0.4801  0.0436
   57MOL    C8121473   1.141   6.558   2.268  0.3062  0.4334 -0.3209
   57MOL    C8221474   1.181   6.642   2.391  0.2165  0.6179 -0.2139
   57MOL    C8321475   1.338   6.626   2.411  0.1064 -0.4116  0.5133
   57MOL    C8421476   1.388   6.684   2.541  0.2333  0.6804  0.5335
   57MOL    H8521477   1.030   6.624   1.990 -0.1481  0.9069 -1.8953
   57MOL    H8621478   1.162   6.584   1.877 -1.0932 -1.2284 -1.2664
   57MOL    H8721479   1.141   6.391   2.082 -0.4124  0.6918  2.1032
   57MOL    H8821480   1.167   6.458   2.302 -0.3316  0.3517 -0.0685
   57MOL    H8921481   1.034   6.538   2.258  0.7410 -0.9356 -2.8220
   57MOL    H9021482   1.153   6.746   2.378 -1.0924  0.2981 -0.0087
   57MOL    H9121483   1.124   6.608   2.478  0.3552 -1.4911 -0.9256
   57MOL    H9221484   1.388   6.661   2.321 -1.3549 -0.0934 -0.1885
   57MOL    H9321485   1.365   6.521   2.404  0.1777 -0.4958  1.8739
   57MOL    H9421486   1.356   6.642   2.636  0.2950  2.5675  1.4138
   57MOL    H9521487   1.497   6.688   2.543  0.2351  0.4948  0.8534
   57MOL    H9621488   1.364   6.790   2.547  2.1557  1.0443  2.4320
   57MOL    C9721489   1.328   6.442   1.998 -0.5992 -0.5392 -0.1123
   57MOL    C9821490   1.391   6.343   2.094  0.5486  0.3800  0.5750
   57MOL    O9921491   1.313   6.223   2.099  0.1273 -0.0758  0.4403
   57MOL   C10021492   1.310   6.144   2.211  0.3496 -0.5518 -0.1026
   57MOL   C10121493   1.188   6.045   2.192  0.3000 -0.4648 -0.9012
   57MOL   C10221494   1.197   5.945   2.077  0.0264  0.2937  0.0260
   57MOL   C10321495   1.122   5.822   2.099  0.2786 -0.2259  0.1654
   57MOL   H10421496   1.387   6.533   1.999 -1.0081 -0.2554 -1.1239
   57MOL   H10521497   1.326   6.400   1.897 -1.9920 -1.5674  0.3203
   57MOL   H10621498   1.401   6.383   2.195  0.8209 -1.2645  1.2154
   57MOL   H10721499   1.304   6.209   2.298  2.6916  0.0612 -0.3628
   57MOL   H10821500   1.399   6.084   2.231  0.6883  0.1033  0.3913
   57MOL   H10921501   1.106   6.112   2.170  0.4841 -0.2415 -0.9127
   57MOL   H11021502   1.163   5.998   2.287 -1.9707 -0.0817 -1.2842
   57MOL   H11121503   1.301   5.921   2.055 -0.4041 -0.1090 -1.6825
   57MOL   H11221504   1.153   5.985   1.985  0.1133  0.2590 -0.0312
   57MOL   H11321505   1.106   5.768   2.005 -2.3311  1.6243 -0.5288
   57MOL   H11421506   1.169   5.757   2.172 -1.2337 -1.0426  0.4356
   57MOL   H11521507   1.019   5.853   2.115  0.3553  1.1050 -1.6245
   57MOL   C11621508   1.526   6.297   2.040 -0.0986 -0.1244  0.1307
   57MOL   C11721509   1.657   6.386   2.076  0.4462  0.2842  0.9450
   57MOL   O11821510   1.676   6.406   2.214  0.1891  0.1346 -0.3053
   57MOL   C11921511   1.713   6.538   2.252  0.2074  0.5535 -0.1660
   57MOL   C12021512   1.724   6.541   2.404  0.2453  0.2118  0.4257
   57MOL   C12121513   1.838   6.458   2.462 -0.7730 -0.4289 -0.1967
   57MOL   C12221514   1.872   6.488   2.608 -0.1795  0.1657  1.0009
   57MOL   H12321515   1.543   6.196   2.077 -2.7836 -0.0653  1.6434
   57MOL   H12421516   1.521   6.283   1.932  1.4075  0.6980 -0.0659
   57MOL   H12521517   1.645   6.486   2.035 -0.6302  0.6580  2.1409
   57MOL   H12621518   1.637   6.612   2.224 -0.5017  1.0215  2.8204
   57MOL   H12721519   1.812   6.565   2.215 -0.3006  0.3939 -1.6808
   57MOL   H12821520   1.630   6.507   2.447 -0.7557  3.2322  0.7468
   57MOL   H12921521   1.730   6.646   2.431 -2.4608  0.3149  0.7900
   57MOL   H13021522   1.838   6.352   2.439 -0.1238 -0.2503 -1.0360
   57MOL   H13121523   1.925   6.489   2.404 -1.0452 -1.2593 -1.0530
   57MOL   H13221524   1.939   6.415   2.655  1.6156  0.3226 -1.2285
   57MOL   H13321525   1.783   6.482   2.670  0.7396  0.2901  2.3631
   57MOL   H13421526   1.915   6.588   2.611 -2.2011  1.0844  0.0374
   57MOL   C13521527   1.789   6.339   2.021  0.0957 -0.7634 -0.4244
   57MOL   C13621528   1.839   6.194   2.035 -0.0444 -1.1975 -0.3209
   57MOL   O13721529   1.945   6.177   1.935  0.3523  0.0112  0.1140
   57MOL   C13821530   1.903   6.148   1.802 -1.0155 -0.1793 -0.0913
   57MOL   C13921531   1.897   5.996   1.780 -0.3871 -0.5787 -0.3255
   57MOL   C14021532   1.785   5.918   1.854 -0.1719 -0.2878 -0.0006
   57MOL   C14121533   1.777   5.771   1.802  0.8522 -0.4218  0.1009
   57MOL   H14221534   1.870   6.406   2.051 -0.3634 -0.9416  1.2695
   57MOL   H14321535   1.785   6.365   1.916 -2.1309  0.2904 -0.1028
   57MOL   H14421536   1.759   6.120   2.029 -1.2834 -0.0336  1.3088
   57MOL   H14521537   1.992   6.190   1.755  1.1615 -0.9350  3.2423
   57MOL   H14621538   1.816   6.206   1.771 -0.1149  0.0110 -2.3746
   57MOL   H14721539   1.991   5.959   1.821  1.0111  1.8458 -1.2751
   57MOL   H14821540   1.897   5.974   1.673 -0.0976 -1.2303 -0.1992
   57MOL   H14921541   1.808   5.907   1.960 -0.7098 -1.6671 -0.0103
   57MOL   H15021542   1.684   5.956   1.839  0.3597  1.3848  0.6071
   57MOL   H15121543   1.688   5.719   1.838  1.1313 -0.4555  0.7436
   57MOL   H15221544   1.766   5.779   1.694  2.4542 -0.3319 -0.0693
   57MOL   H15321545   1.859   5.702   1.818  1.4849  0.5758  1.2021
   57MOL   C15421546   1.928   6.181   2.166 -0.4192  0.9516  0.1589
   57MOL   C15521547   1.931   6.035   2.223  0.0900 -0.0058 -0.4621
   57MOL   O15621548   1.983   6.020   2.354  0.5285 -0.9941  0.0791
   57MOL   C15721549   1.886   6.030   2.455  0.1761  0.7521  0.8647
   57MOL   C15821550   1.943   6.000   2.593 -0.2929 -0.4451 -0.0868
   57MOL   C15921551   2.040   5.875   2.604 -0.4538 -0.0913 -0.0885
   57MOL   C16021552   2.139   5.865   2.725  0.1084 -0.7629  0.5490
   57MOL   H16121553   1.886   6.228   2.255 -1.3110 -1.1133  0.8618
   57MOL   H16221554   2.030   6.220   2.161 -0.2799  0.7009  0.8620
   57MOL   H16321555   1.831   5.993   2.217  1.1509 -2.4516 -1.5839
   57MOL   H16421556   1.843   6.130   2.460 -0.4656  0.6192 -1.6012
   57MOL   H16521557   1.806   5.959   2.436  1.4801 -0.8738  1.3091
   57MOL   H16621558   1.864   5.984   2.666  2.1879 -0.8138  2.6547
   57MOL   H16721559   2.001   6.087   2.623 -1.1361 -0.0558  0.4292
   57MOL   H16821560   1.984   5.782   2.605  0.4827 -0.6570  1.6437
   57MOL   H16921561   2.097   5.865   2.512 -0.0155 -0.6722  0.2489
   57MOL   H17021562   2.084   5.876   2.819 -0.7503 -1.6291  0.1606
   57MOL   H17121563   2.196   5.772   2.718 -0.2432 -0.8188 -2.0598
   57MOL   H17221564   2.210   5.947   2.713  0.5374 -1.3773 -1.2802
   57MOL   C17321565   2.023   5.946   2.144  0.2193 -0.1676  0.7305
   57MOL   C17421566   2.011   5.795   2.174 -0.0790 -0.0435 -0.0834
   57MOL   O17521567   1.875   5.753   2.164  0.3164 -0.2395  0.4775
   57MOL   C17621568   1.825   5.681   2.276  0.0101 -0.1880  0.1506
   57MOL   C17721569   1.680   5.647   2.234 -0.2854  0.0550 -0.3193
   57MOL   C17821570   1.581   5.768   2.244 -0.3104  0.2821  0.4524
   57MOL   C17921571   1.437   5.730   2.269 -0.2804  0.4945 -0.4033
   57MOL   H18021572   2.128   5.978   2.146  0.5115 -0.8193 -1.9237
   57MOL   H18121573   2.004   5.961   2.038  1.6759 -1.6007  0.2340
   57MOL   H18221574   2.045   5.770   2.275 -0.6574  1.2126  0.4309
   57MOL   H18321575   1.835   5.738   2.368  1.3112 -0.1656  0.0034
   57MOL   H18421576   1.881   5.590   2.296  1.3697  0.4989 -0.4716
   57MOL   H18521577   1.655   5.557   2.290 -2.9775  1.7336  1.3385
   57MOL   H18621578   1.668   5.612   2.132  0.1810 -0.1632 -0.2999
   57MOL   H18721579   1.620   5.835   2.320 -0.3930  1.8983 -0.9080
   57MOL   H18821580   1.593   5.825   2.152  2.8902 -2.5839 -1.0514
   57MOL   H18921581   1.399   5.666   2.189 -1.3605 -0.6942  1.0354
   57MOL   H19021582   1.418   5.681   2.364 -1.9067  0.3204 -0.7982
   57MOL   H19121583   1.374   5.819   2.266  0.3309  0.9944  1.1480
   57MOL   C19221584   2.103   5.714   2.085  0.3917 -0.0255  0.1298
   57MOL   C19321585   2.252   5.713   2.114  0.4481 -0.9030  0.5139
   57MOL   O19421586   2.270   5.658   2.241 -0.5682 -0.0935 -0.3509
   57MOL   C19521587   2.374   5.720   2.316  0.0153  0.4897 -0.0859
   57MOL   C19621588   2.410   5.614   2.433  0.0681 -0.0656 -0.1215
   57MOL   C19721589   2.487   5.672   2.551 -1.4413 -0.2297 -0.1061
   57MOL   C19821590   2.545   5.569   2.646 -0.5734  0.0785 -0.6357
   57MOL   H19921591   2.083   5.744   1.982 -2.6625  2.6360  1.4211
   57MOL   H20021592   2.081   5.607   2.084 -1.1751  0.2693 -3.4112
   57MOL   H20121593   2.281   5.817   2.097  0.4089 -0.8254  0.9183
   57MOL   H20221594   2.349   5.815   2.362  4.1572  1.0325  1.2353
   57MOL   H20321595   2.457   5.740   2.249  1.0190  0.2835  1.0933
   57MOL   H20421596   2.314   5.566   2.453 -2.2839  3.7862 -1.6275
   57MOL   H20521597   2.467   5.536   2.383 -0.0020  0.0151 -0.3246
   57MOL   H20621598   2.420   5.731   2.613 -0.9529  0.8689 -0.6066
   57MOL   H20721599   2.566   5.731   2.503 -1.4025 -1.2405 -1.3414
   57MOL   H20821600   2.572   5.627   2.734  0.4414  0.0523 -0.9228
   57MOL   H20921601   2.473   5.489   2.666 -0.9942  0.9228  1.3430
   57MOL   H21021602   2.633   5.522   2.602  0.9325  2.1620  0.1029
   57MOL   C21121603   2.330   5.618   2.016 -0.3085  0.5105 -0.3168
   57MOL   C21221604   2.321   5.644   1.861 -0.0611  0.1174  0.2054
   57MOL   O21321605   2.199   5.596   1.802 -0.4354  0.1846 -0.0633
   57MOL   C21421606   2.194   5.463   1.755  0.2027 -0.7359  0.1958
   57MOL   C21521607   2.042   5.422   1.751  0.3523 -0.6257 -0.7033
   57MOL   C21621608   1.966   5.443   1.887  0.1373  0.6903 -0.1947
   57MOL   C21721609   1.823   5.393   1.884  0.0395 -0.3133 -0.1183
   57MOL   H21821610   2.311   5.513   2.036 -1.4074  0.7532 -0.0330
   57MOL   H21921611   2.435   5.639   2.038  0.0828 -0.4790 -1.2234
   57MOL   H22021612   2.406   5.592   1.817 -0.7219  0.7118 -1.8697
   57MOL   H22121613   2.248   5.447   1.662  0.2871 -0.8975  0.2727
   57MOL   H22221614   2.234   5.407   1.840  2.0880 -1.9003 -1.4339
   57MOL   H22321615   2.001   5.479   1.668  1.3769 -0.3018 -0.9978
   57MOL   H22421616   2.027   5.315   1.737  1.8928 -0.9276 -0.2069
   57MOL   H22521617   1.971   5.550   1.908 -0.5429  0.4536  1.2603
   57MOL   H22621618   2.022   5.385   1.961  1.6473  0.4818 -1.4842
   57MOL   H22721619   1.757   5.471   1.845 -1.0001  0.4266  2.9561
   57MOL   H22821620   1.801   5.392   1.991 -2.4146 -0.6968 -0.6034
   57MOL   H22921621   1.802   5.299   1.835 -1.3894 -0.4965  0.8219
   57MOL   C23021622   2.334   5.791   1.822 -0.4905 -0.1727  0.2638
   57MOL   C23121623   2.366   5.809   1.667  0.3404  0.4578 -0.7399
   57MOL   O23221624   2.355   5.946   1.631  0.9764 -0.3108 -0.0061
   57MOL   C23321625   2.230   6.010   1.630 -0.3807 -0.6764  0.2430
   57MOL   C23421626   2.236   6.142   1.570  0.6056 -0.1022 -0.2185
   57MOL   C23521627   2.260   6.138   1.421 -0.8126 -0.1982 -0.4013
   57MOL   C23621628   2.270   6.277   1.362  0.4396 -0.6921 -0.4195
   57MOL   H23721629   2.422   5.823   1.878 -0.4291  0.3341 -0.1187
   57MOL   H23821630   2.245   5.850   1.843  0.3678  1.3621 -0.3627
   57MOL   H23921631   2.297   5.750   1.607  0.6783 -0.5774 -0.1221
   57MOL   H24021632   2.161   5.949   1.572  1.5837 -1.0623 -1.7494
   57MOL   H24121633   2.176   6.019   1.725 -0.6035  3.4560 -0.2015
   57MOL   H24221634   2.136   6.183   1.580 -0.4069 -1.8486 -2.6919
   57MOL   H24321635   2.310   6.199   1.627  0.0725  0.4454 -0.0785
   57MOL   H24421636   2.171   6.087   1.385 -0.3103 -1.4329  0.0811
   57MOL   H24521637   2.347   6.075   1.404 -0.8625  0.1434 -1.9284
   57MOL   H24621638   2.367   6.316   1.391  0.2689 -1.4716  1.2407
   57MOL   H24721639   2.195   6.341   1.409 -1.5950 -1.2557 -2.7436
   57MOL   H24821640   2.253   6.274   1.254 -1.5673  0.5626 -0.1641
   57MOL   C24921641   2.509   5.766   1.626 -0.0110  0.4388 -0.0358
   57MOL   C25021642   2.536   5.757   1.473 -0.0110  0.3025  0.3453
   57MOL   O25121643   2.462   5.640   1.427 -0.0095 -0.4706  0.3920
   57MOL   C25221644   2.370   5.672   1.325 -0.3071 -0.3379 -0.5639
   57MOL   C25321645   2.287   5.541   1.310 -0.0845  0.1320  0.5490
   57MOL   C25421646   2.378   5.421   1.256 -0.1991 -0.5193  0.0649
   57MOL   C25521647   2.309   5.292   1.244 -0.4044  0.4090 -0.0325
   57MOL   H25621648   2.529   5.667   1.666 -0.4425 -0.9126 -3.0432
   57MOL   H25721649   2.587   5.831   1.665 -0.2931  0.1288  1.0546
   57MOL   H25821650   2.506   5.848   1.422 -1.6243 -0.1099  0.5312
   57MOL   H25921651   2.412   5.695   1.227 -1.5437 -3.2549 -1.8162
   57MOL   H26021652   2.302   5.749   1.360 -0.4333 -0.4690 -0.5229
   57MOL   H26121653   2.242   5.521   1.407 -0.7859 -0.1224  0.1732
   57MOL   H26221654   2.202   5.564   1.246 -1.1198  2.1761  2.5799
   57MOL   H26321655   2.436   5.441   1.166 -1.6344 -0.0235 -0.7809
   57MOL   H26421656   2.454   5.399   1.331  0.4883  0.9306 -0.1878
   57MOL   H26521657   2.262   5.268   1.339  0.5733  0.1508  0.3831
   57MOL   H26621658   2.389   5.220   1.227 -0.3715  0.8867 -2.0239
   57MOL   H26721659   2.244   5.285   1.156 -3.4201  2.3419  1.9488
   57MOL   C26821660   2.689   5.727   1.454 -0.5244  0.5523 -0.0080
   57MOL   C26921661   2.724   5.724   1.304 -0.4466  0.2065  0.2999
   57MOL   O27021662   2.696   5.855   1.250 -0.7502 -0.2851  0.5478
   57MOL   C27121663   2.697   5.871   1.106 -0.2786 -0.3337  0.2341
   57MOL   C27221664   2.628   6.000   1.060 -0.1210 -0.7608 -0.4299
   57MOL   C27321665   2.477   5.999   1.040 -0.4748 -0.2751  0.2424
   57MOL   C27421666   2.410   6.125   0.984  0.0313 -0.3576 -0.5114
   57MOL   H27521667   2.749   5.808   1.497 -1.3066  0.5343  1.1570
   57MOL   H27621668   2.719   5.634   1.502  1.5811  0.0200 -2.2878
   57MOL   H27721669   2.671   5.637   1.264  0.4701 -0.9188  1.5392
   57MOL   H27821670   2.799   5.870   1.069 -0.8224  2.2984 -1.5113
   57MOL   H27921671   2.643   5.790   1.057  1.0643  0.7399 -3.1575
   57MOL   H28021672   2.667   6.080   1.123 -0.4595 -0.1767 -0.9480
   57MOL   H28121673   2.670   6.025   0.962  0.8938 -1.3182 -0.1358
   57MOL   H28221674   2.425   5.976   1.133 -1.8729 -1.8987 -0.9040
   57MOL   H28321675   2.469   5.910   0.977  0.7588  0.2108 -0.6284
   57MOL   H28421676   2.447   6.207   1.046  0.3704 -1.3007  0.5519
   57MOL   H28521677   2.302   6.125   0.999  0.0794 -0.9828 -0.1646
   57MOL   H28621678   2.426   6.141   0.878 -1.6367  1.4107 -0.5172
   57MOL   C28721679   2.876   5.690   1.288  0.8248 -0.1996  0.0081
   57MOL   C28821680   2.925   5.611   1.163  0.0752 -0.3056  0.4335
   57MOL   O28921681   2.870   5.479   1.174  0.8583 -0.3412  0.2833
   57MOL   C29021682   2.799   5.419   1.067  0.0307 -0.2113 -0.2788
   57MOL   C29121683   2.739   5.289   1.117  0.1456 -0.4562  0.2207
   57MOL   C29221684   2.848   5.187   1.127 -0.0658  0.0960  0.6741
   57MOL   C29321685   2.943   5.212   1.241  0.3000  0.5273 -0.8269
   57MOL   H29421686   2.895   5.629   1.377  2.4425  2.3216  1.4628
   57MOL   H29521687   2.932   5.781   1.313  1.4039 -0.5772  0.1088
   57MOL   H29621688   2.873   5.667   1.085  0.0574 -1.6667 -0.5458
   57MOL   H29721689   2.712   5.478   1.038 -0.4977 -1.2626 -0.8927
   57MOL   H29821690   2.856   5.401   0.976  0.9356  0.2457  0.1994
   57MOL   H29921691   2.660   5.248   1.055  0.4991 -0.5534 -0.1698
   57MOL   H30021692   2.690   5.313   1.211 -0.3664  0.4061 -0.2671
   57MOL   H30121693   2.890   5.181   1.027  1.4964  1.2586  1.2537
   57MOL   H30221694   2.801   5.090   1.143 -0.3897  0.2283  0.5371
   57MOL   H30321695   3.025   5.270   1.198  1.6988 -0.8842 -0.1213
   57MOL   H30421696   2.900   5.264   1.327 -0.4471  0.7737 -1.3444
   57MOL   H30521697   2.976   5.111   1.267 -0.9882 -0.3764 -2.6155
   57MOL   C30621698   3.082   5.603   1.148 -0.6904 -0.0247 -0.1642
   57MOL   C30721699   3.130   5.553   1.005 -0.0784 -0.4178  0.1023
   57MOL   O30821700   3.274   5.543   1.018 -0.3935 -0.0030 -0.5143
   57MOL   C30921701   3.336   5.419   0.995 -0.2680 -0.1482  0.3514
   57MOL   C31021702   3.492   5.440   1.009 -0.0346  0.0195  0.5456
   57MOL   C31121703   3.565   5.311   1.039  0.1446 -0.0988  0.0906
   57MOL   C31221704   3.711   5.344   1.039  0.3928  0.0423 -0.9853
   57MOL   H31321705   3.132   5.696   1.175  0.8776 -0.9901  0.3666
   57MOL   H31421706   3.120   5.530   1.219 -2.4601  1.2376  2.1496
   57MOL   H31521707   3.092   5.452   0.990 -0.0520 -0.4049 -0.0571
   57MOL   H31621708   3.306   5.387   0.896 -1.3836  1.2196  0.2173
   57MOL   H31721709   3.295   5.348   1.066 -0.3458 -1.3970 -0.9290
   57MOL   H31821710   3.519   5.509   1.089  3.0244 -0.0048 -0.3834
   57MOL   H31921711   3.524   5.475   0.911  0.0946 -0.3128  0.4680
   57MOL   H32021712   3.529   5.272   1.135 -0.7259  0.0723 -0.1625
   57MOL   H32121713   3.552   5.231   0.966 -1.4247  0.3977 -0.1915
   57MOL   H32221714   3.751   5.367   0.940 -0.1523  2.0520 -0.7692
   57MOL   H32321715   3.760   5.249   1.058  0.6123  0.1483 -1.0242
   57MOL   H32421716   3.733   5.419   1.115 -0.0516  0.2865 -1.0931
   57MOL   C32521717   3.116   5.654   0.888 -0.4424  0.2018 -0.4337
   57MOL   C32621718   3.156   5.595   0.755 -0.5808  0.3301  0.0401
   57MOL   O32721719   3.056   5.496   0.731  0.2291 -0.0416 -0.2872
   57MOL   C32821720   3.096   5.394   0.638  0.5600  0.1470 -0.0488
   57MOL   C32921721   2.986   5.295   0.632 -0.3782 -0.3727 -0.3013
   57MOL   C33021722   2.999   5.195   0.744 -0.1355  0.5804 -0.4123
   57MOL   C33121723   2.885   5.094   0.735  0.9047  0.3148  0.2914
   57MOL   H33221724   3.172   5.742   0.919  1.0945 -0.9751  0.2174
   57MOL   H33321725   3.010   5.679   0.892 -0.4832  0.4996 -2.6409
   57MOL   H33421726   3.255   5.551   0.759  0.7009  2.9718 -1.3078
   57MOL   H33521727   3.185   5.340   0.670 -0.8959 -0.6570  2.8303
   57MOL   H33621728   3.111   5.434   0.538 -2.9632  1.4296 -0.1215
   57MOL   H33721729   2.888   5.341   0.621  0.1034  0.2540 -2.1222
   57MOL   H33821730   2.980   5.245   0.535 -0.8714 -1.1606  0.1309
   57MOL   H33921731   2.994   5.245   0.841 -3.0056 -0.1996 -0.1163
   57MOL   H34021732   3.096   5.144   0.742  0.6115  1.9333  0.0551
   57MOL   H34121733   2.825   5.107   0.645  1.5696  0.5122 -0.1318
   57MOL   H34221734   2.825   5.095   0.826  0.2368 -0.8480 -0.1432
   57MOL   H34321735   2.920   4.991   0.744 -0.8272 -0.0865  2.8346
   57MOL   C34421736   3.143   5.711   0.650  0.1879  0.8229  0.4142
   57MOL   C34521737   3.270   5.798   0.648 -0.4011  0.3750 -0.1647
   57MOL   O34621738   3.237   5.904   0.561  0.6886 -0.0983 -0.8711
   57MOL   C34721739   3.225   6.034   0.634  0.4036 -0.0917  0.5090
   57MOL   C34821740   3.159   6.133   0.539 -0.6802 -0.0082  0.5677
   57MOL   C34921741   3.019   6.086   0.505 -0.0076  0.5501 -0.2478
   57MOL   C35021742   2.963   6.141   0.378  0.3528 -0.2112 -0.0009
   57MOL   H35121743   3.133   5.673   0.549  0.8384  0.2334  0.5712
   57MOL   H35221744   3.056   5.777   0.652 -1.5591 -1.4035 -0.8120
   57MOL   H35321745   3.277   5.841   0.749 -1.3542 -0.1117  0.1087
   57MOL   H35421746   3.328   6.064   0.652  0.3127 -0.5687  1.8267
   57MOL   H35521747   3.175   6.026   0.730  0.8618 -0.3038  0.7262
   57MOL   H35621748   3.212   6.135   0.444 -0.7420 -2.4664  0.4356
   57MOL   H35721749   3.150   6.235   0.575  0.3033 -0.2331  1.4728
   57MOL   H35821750   3.012   5.979   0.490 -0.9999  0.6512 -0.5367
   57MOL   H35921751   2.953   6.103   0.590 -0.2858  0.2416 -0.4022
   57MOL   H36021752   2.857   6.118   0.384  0.5375 -1.0382  0.2089
   57MOL   H36121753   3.017   6.091   0.297 -0.4021 -0.4067 -0.3803
   57MOL   H36221754   2.975   6.249   0.368 -1.1509 -0.1839 -1.7814
   57MOL   C36321755   3.394   5.732   0.594 -0.5044 -0.6680  0.2931
   57MOL   C36421756   3.523   5.779   0.656 -0.2546  0.0209  0.4371
   57MOL   O36521757   3.626   5.706   0.599  0.0010  0.2998  0.0015
   57MOL   C36621758   3.754   5.772   0.623 -0.6330  0.9292  0.1051
   57MOL   C36721759   3.797   5.771   0.772 -0.4805  0.2127 -0.2349
   57MOL   C36821760   3.939   5.824   0.791 -0.0229  0.2604  0.4361
   57MOL   C36921761   3.993   5.810   0.936  0.4697  0.5181  0.0203
   57MOL   H37021762   3.388   5.731   0.485 -0.1579 -1.3464  0.2773
   57MOL   H37121763   3.390   5.625   0.618  1.3586 -0.9063 -0.3745
   57MOL   H37221764   3.520   5.761   0.764 -0.0956 -1.2425  0.2390
   57MOL   H37321765   3.767   5.868   0.573 -1.6545  0.1259 -1.7582
   57MOL   H37421766   3.819   5.701   0.571 -0.9827  0.1525  0.7213
   57MOL   H37521767   3.798   5.666   0.800  3.4768  1.3491  4.6863
   57MOL   H37621768   3.734   5.821   0.845 -2.5322  3.6852 -4.1820
   57MOL   H37721769   3.932   5.927   0.756 -1.2570 -0.0705 -0.3061
   57MOL   H37821770   3.998   5.766   0.720 -2.5356 -2.6033  0.6017
   57MOL   H37921771   4.083   5.873   0.935  0.4636  0.5522  1.1039
   57MOL   H38021772   3.914   5.852   0.998  0.9664  1.7133 -0.1403
   57MOL   H38121773   4.011   5.705   0.956  0.0426  0.4823  0.2132
   57MOL   H38221774   3.534   5.888   0.655 -1.7559  0.1847  0.4635
   58MOL     C121775   1.721   0.270   3.730  0.7806 -0.1973 -0.1971
   58MOL     C221776   1.773   0.236   3.586 -0.3440 -0.0208  0.0227
   58MOL     O321777   1.726   0.097   3.565  0.0724  0.7987 -0.4660
   58MOL     C421778   1.824   0.001   3.601  0.6292 -0.0743 -0.1411
   58MOL     C521779   1.771   7.659   3.557  0.3137 -0.1842 -0.3070
   58MOL     C621780   1.747   7.638   3.408 -0.2463 -0.4136 -0.1612
   58MOL     C721781   1.686   7.506   3.377 -0.3878  0.4772  0.4994
   58MOL     H821782   1.624   0.320   3.726  0.0484 -1.5882 -0.2399
   58MOL     H921783   1.720   0.183   3.796 -0.7713 -1.9620 -2.4338
   58MOL    H1021784   1.881   0.243   3.589 -0.2794 -1.0808  0.2481
   58MOL    H1121785   1.918   0.027   3.552  1.3235  0.1067  1.2480
   58MOL    H1221786   1.849   7.800   3.708  1.1297 -0.7002 -0.2690
   58MOL    H1321787   1.686   7.624   3.616 -0.0375 -0.6826 -1.1046
   58MOL    H1421788   1.851   7.588   3.576  2.1743  1.9303  0.0765
   58MOL    H1521789   1.843   7.630   3.358  0.2439  1.2194  0.5128
   58MOL    H1621790   1.693   7.723   3.366  1.3688  0.5093 -0.4029
   58MOL    H1721791   1.594   7.476   3.427 -0.7989  1.7497  0.5028
   58MOL    H1821792   1.755   7.423   3.393  1.9944  2.0099 -1.4086
   58MOL    H1921793   1.668   7.497   3.269  2.6063  3.7887 -0.3764
   58MOL    H2021794   1.782   0.340   3.786  2.0804  0.2417 -2.1133
   58MOL    C2121795   1.703   0.318   3.474 -0.3814 -0.0038  0.0455
   58MOL    C2221796   1.741   0.278   3.329 -0.2785  0.2216  1.1799
   58MOL    O2321797   1.650   0.333   3.241  0.6134  0.1206 -0.3087
   58MOL    C2421798   1.523   0.266   3.226  0.3393  0.0328  0.7206
   58MOL    C2521799   1.440   0.362   3.142 -0.0497  0.2197  0.0935
   58MOL    C2621800   1.508   0.379   3.007 -0.6407 -0.5881 -0.4891
   58MOL    C2721801   1.419   0.476   2.917 -0.1251  0.3416 -0.1081
   58MOL    H2821802   1.721   0.424   3.491  0.1760 -0.1189  0.1860
   58MOL    H2921803   1.596   0.312   3.491 -0.4014  0.1266 -0.0368
   58MOL    H3021804   1.749   0.171   3.314 -0.2382 -0.0659  3.2078
   58MOL    H3121805   1.486   0.244   3.326  0.9475 -0.1417  0.9129
   58MOL    H3221806   1.533   0.172   3.171  0.3456  2.1260 -3.0149
   58MOL    H3321807   1.342   0.321   3.118 -0.9735  2.4586 -0.1075
   58MOL    H3421808   1.420   0.450   3.203 -2.3063  0.8614 -1.4865
   58MOL    H3521809   1.608   0.419   3.022 -0.5358 -1.2208  0.6128
   58MOL    H3621810   1.518   0.281   2.960  1.3587  0.2443 -1.8653
   58MOL    H3721811   1.420   0.571   2.971 -0.4943  0.7306 -0.7864
   58MOL    H3821812   1.474   0.504   2.827 -0.6469 -0.3580 -0.6436
   58MOL    H3921813   1.316   0.454   2.890 -0.0532  0.3161 -0.3586
   58MOL    C4021814   1.890   0.324   3.303  0.5396 -0.3812 -0.2816
   58MOL    C4121815   1.946   0.325   3.158  0.0834 -0.3518 -0.6747
   58MOL    O4221816   1.970   0.193   3.119  0.1006 -0.3419 -0.3531
   58MOL    C4321817   1.865   0.123   3.053  0.1549 -0.7339 -0.0183
   58MOL    C4421818   1.920   7.794   2.999 -0.2485  0.5356  0.1221
   58MOL    C4521819   1.996   0.015   2.871  0.3080  0.4767  0.2532
   58MOL    C4621820   2.076   7.703   2.811  0.2091  0.4501  0.4156
   58MOL    H4721821   1.958   0.270   3.369  1.7729  0.6847 -0.6754
   58MOL    H4821822   1.896   0.426   3.342 -0.7980  0.2015 -1.5702
   58MOL    H4921823   1.877   0.370   3.087 -1.2806 -1.8623 -0.3433
   58MOL    H5021824   1.831   0.202   2.986  1.3139  1.8400  2.3495
   58MOL    H5121825   1.783   0.099   3.121  0.1748  1.4534  0.7969
   58MOL    H5221826   1.843   7.724   2.965 -1.0832  1.4047  0.2227
   58MOL    H5321827   1.973   7.746   3.082 -1.3521  0.3539  0.7325
   58MOL    H5421828   2.083   0.079   2.883  1.0622 -0.5439  0.2983
   58MOL    H5521829   1.929   0.047   2.791  1.3283 -3.2914 -2.2262
   58MOL    H5621830   2.025   7.607   2.808  0.5590  0.2654  0.3117
   58MOL    H5721831   2.117   7.724   2.712 -2.0701  0.2758 -0.5805
   58MOL    H5821832   2.160   7.684   2.879  1.9859  0.9558 -1.5713
   58MOL    C5921833   2.068   0.398   3.135 -0.5474  0.1198  0.7011
   58MOL    C6021834   2.108   0.410   2.983  0.0462  0.0857  0.7228
   58MOL    O6121835   2.006   0.486   2.917  0.6533 -0.6391  0.0006
   58MOL    C6221836   1.951   0.433   2.796 -0.6735  0.3234 -0.1166
   58MOL    C6321837   1.880   0.559   2.744  0.0758 -0.3868 -0.2395
   58MOL    C6421838   1.770   0.613   2.830  1.1410  0.2117 -0.0381
   58MOL    C6521839   1.658   0.681   2.751  0.2220 -0.1142 -0.2582
   58MOL    H6621840   2.062   0.501   3.172  1.8672  0.0072  1.4761
   58MOL    H6721841   2.148   0.355   3.194 -0.6124 -3.1452 -1.4930
   58MOL    H6821842   2.125   0.310   2.943 -2.3708 -0.3587  0.7522
   58MOL    H6921843   1.889   0.345   2.810  1.0473 -0.8406  0.3001
   58MOL    H7021844   2.034   0.414   2.728 -1.9095 -0.6685 -1.3749
   58MOL    H7121845   1.940   0.645   2.714  1.3673 -1.1618  0.0616
   58MOL    H7221846   1.823   0.521   2.660 -0.2210 -0.1369 -0.1507
   58MOL    H7321847   1.725   0.527   2.879  3.4560 -0.9511  0.1033
   58MOL    H7421848   1.816   0.677   2.905 -0.3637  0.2473  0.8844
   58MOL    H7521849   1.610   0.618   2.676  0.2860  0.3759 -0.7171
   58MOL    H7621850   1.569   0.695   2.812  0.3103  0.0454 -0.1667
   58MOL    H7721851   1.685   0.778   2.708 -2.3066  1.0126  0.5859
   58MOL    C7821852   2.234   0.487   2.956 -0.1937 -0.3151  0.3361
   58MOL    C7921853   2.307   0.467   2.813  0.0426 -0.1428  0.2856
   58MOL    O8021854   2.450   0.473   2.841 -0.0892  0.2294 -0.3048
   58MOL    C8121855   2.509   0.339   2.840  0.0531  0.1392 -0.2934
   58MOL    C8221856   2.658   0.359   2.801  0.2275  0.0868 -0.5155
   58MOL    C8321857   2.737   0.411   2.920 -0.8400 -0.7572 -0.5598
   58MOL    C8421858   2.889   0.387   2.932 -0.9429 -0.6100  0.9311
   58MOL    H8521859   2.305   0.446   3.027  0.5477  1.1000  0.4198
   58MOL    H8621860   2.225   0.590   2.989 -1.2813 -0.5668  0.8398
   58MOL    H8721861   2.281   0.367   2.778 -2.2026  0.5151 -0.0046
   58MOL    H8821862   2.483   0.275   2.756  1.1176 -0.9274  0.1892
   58MOL    H8921863   2.492   0.293   2.937  1.5058 -0.2184 -0.2037
   58MOL    H9021864   2.712   0.269   2.770  2.8649  0.6506  2.1328
   58MOL    H9121865   2.665   0.419   2.711 -2.1950 -0.8889 -1.3864
   58MOL    H9221866   2.704   0.359   3.011  0.2797 -0.1401  0.2104
   58MOL    H9321867   2.723   0.519   2.917 -3.5074 -0.9223  2.4305
   58MOL    H9421868   2.924   0.290   2.897 -0.0433  0.5697 -1.5798
   58MOL    H9521869   2.940   0.469   2.882  0.3208 -1.3030  1.0744
   58MOL    H9621870   2.929   0.401   3.032  0.2292  0.5565  0.3078
   58MOL    C9721871   2.277   0.581   2.713 -0.1663 -0.2812  0.2242
   58MOL    C9821872   2.335   0.548   2.571 -1.2422  0.2367 -0.3597
   58MOL    O9921873   2.247   0.450   2.512 -0.9830 -0.1881  0.3718
   58MOL   C10021874   2.324   0.346   2.454  0.1310  0.0556 -0.3576
   58MOL   C10121875   2.226   0.229   2.422  0.4867 -0.2298  0.0424
   58MOL   C10221876   2.278   0.135   2.311 -0.6960 -0.1672 -0.2387
   58MOL   C10321877   2.177   0.025   2.295  0.0290 -0.5165 -0.6480
   58MOL   H10421878   2.333   0.671   2.740  1.4797 -1.9169  2.4407
   58MOL   H10521879   2.173   0.613   2.715 -0.7886 -2.3062  1.3713
   58MOL   H10621880   2.436   0.508   2.572 -0.4112  2.2053 -1.2717
   58MOL   H10721881   2.397   0.307   2.524  2.0896  0.0482 -2.3561
   58MOL   H10821882   2.366   0.393   2.365 -0.8725  1.4301 -0.1286
   58MOL   H10921883   2.129   0.266   2.390  1.3569  2.4266  0.3058
   58MOL   H11021884   2.215   0.163   2.508 -0.1043  0.2955  0.3749
   58MOL   H11121885   2.370   0.081   2.335 -2.1925 -2.6380  0.0985
   58MOL   H11221886   2.281   0.179   2.211  0.2958  0.8922  0.2499
   58MOL   H11321887   2.081   0.056   2.255  1.6515  0.6074 -3.9299
   58MOL   H11421888   2.205   7.752   2.220  0.6432 -1.3424  0.3819
   58MOL   H11521889   2.164   7.770   2.387  0.8488 -0.0554 -0.2422
   58MOL   C11621890   2.347   0.671   2.480  0.6528  0.3109  0.0891
   58MOL   C11721891   2.460   0.781   2.515 -0.6026  0.8139  0.2657
   58MOL   O11821892   2.588   0.715   2.500 -0.2260 -0.0394  0.6637
   58MOL   C11921893   2.685   0.746   2.592  0.3902 -0.5225  0.4944
   58MOL   C12021894   2.821   0.679   2.553  0.4685  0.2224  0.8433
   58MOL   C12121895   2.941   0.706   2.643 -0.8713 -0.2387 -0.0215
   58MOL   C12221896   3.054   0.599   2.622 -0.7004 -0.0428 -0.2437
   58MOL   H12321897   2.380   0.642   2.380 -0.5733  1.4198 -0.6495
   58MOL   H12421898   2.248   0.715   2.474  0.3712 -0.3394 -0.1303
   58MOL   H12521899   2.446   0.819   2.616  0.5529 -1.1382  1.1905
   58MOL   H12621900   2.652   0.715   2.692  1.4377 -2.0876  0.3841
   58MOL   H12721901   2.705   0.852   2.607 -1.0187 -0.4593  2.1239
   58MOL   H12821902   2.851   0.693   2.449 -1.7245 -3.0713 -0.3114
   58MOL   H12921903   2.802   0.572   2.564 -1.1774  0.4303  0.0893
   58MOL   H13021904   2.991   0.800   2.616  0.2667 -0.3242  1.7063
   58MOL   H13121905   2.901   0.703   2.744  0.3114 -1.0046  0.4412
   58MOL   H13221906   3.111   0.609   2.530  0.1495  2.1015  0.4891
   58MOL   H13321907   2.998   0.505   2.629  0.5982 -0.5653  4.6855
   58MOL   H13421908   3.132   0.613   2.697 -0.5649  3.1705 -0.9157
   58MOL   C13521909   2.450   0.891   2.409  0.3666  0.4529 -0.3078
   58MOL   C13621910   2.315   0.969   2.394 -0.0931  0.1297 -0.2078
   58MOL   O13721911   2.264   0.989   2.529  0.2112  0.1477  0.5494
   58MOL   C13821912   2.132   1.034   2.532  0.6170  0.0419  0.3351
   58MOL   C13921913   2.084   1.040   2.681 -0.7356  0.5342  0.7129
   58MOL   C14021914   2.071   0.894   2.740  0.0268  0.8110 -0.3141
   58MOL   C14121915   2.041   0.890   2.895  0.3346 -0.7127  0.5807
   58MOL   H14221916   2.464   0.851   2.309 -0.0055  2.2681 -1.1071
   58MOL   H14321917   2.532   0.960   2.429  0.2655  1.4876 -3.2347
   58MOL   H14421918   2.243   0.904   2.346  0.8975 -2.1312  1.2809
   58MOL   H14521919   2.066   0.978   2.467 -0.3005  1.0475  0.3822
   58MOL   H14621920   2.111   1.134   2.494 -0.7643 -0.7435 -0.9981
   58MOL   H14721921   1.991   1.091   2.705  0.1319  3.3663 -1.5643
   58MOL   H14821922   2.164   1.096   2.727 -1.2343  1.6456  0.2571
   58MOL   H14921923   1.992   0.841   2.687 -1.2595  1.8411  0.5458
   58MOL   H15021924   2.163   0.836   2.729 -0.8148 -0.3062 -1.6623
   58MOL   H15121925   2.053   0.790   2.937 -1.0105 -0.1701  2.3068
   58MOL   H15221926   2.105   0.953   2.957 -0.3292 -2.0935  2.7059
   58MOL   H15321927   1.937   0.923   2.905  1.2353  1.7281  2.2488
   58MOL   C15421928   2.339   1.106   2.323 -0.2600 -0.2045  0.7861
   58MOL   C15521929   2.389   1.091   2.172 -0.1561 -0.4165 -0.6385
   58MOL   O15621930   2.384   1.220   2.111  0.2566  0.2050  0.6661
   58MOL   C15721931   2.494   1.303   2.147  0.0780  0.2470  0.6336
   58MOL   C15821932   2.490   1.441   2.069  0.3197  0.4135  0.0031
   58MOL   C15921933   2.613   1.523   2.124  0.2394 -0.5513 -0.0824
   58MOL   C16021934   2.660   1.649   2.052  0.3051 -0.1984 -0.3418
   58MOL   H16121935   2.407   1.166   2.382  0.4990 -2.3913  2.1727
   58MOL   H16221936   2.248   1.166   2.322 -0.1860 -0.0190  2.8197
   58MOL   H16321937   2.492   1.058   2.164  0.0726 -0.0533  0.5914
   58MOL   H16421938   2.481   1.332   2.251 -0.0169 -0.0929  0.7157
   58MOL   H16521939   2.585   1.247   2.128  0.2950  0.5486  0.7797
   58MOL   H16621940   2.395   1.492   2.084 -1.2849 -2.4210 -0.1144
   58MOL   H16721941   2.493   1.417   1.963 -0.3281  0.0824  0.0579
   58MOL   H16821942   2.597   1.554   2.227  0.1580  2.0822 -0.8414
   58MOL   H16921943   2.689   1.448   2.143  0.1040 -0.7267 -0.2309
   58MOL   H17021944   2.765   1.663   2.077  0.0198  1.9354 -0.2625
   58MOL   H17121945   2.648   1.645   1.944  0.9700  1.0334 -0.4730
   58MOL   H17221946   2.597   1.733   2.081  1.2122  0.7395 -1.0350
   58MOL   C17321947   2.311   1.004   2.079 -0.1220 -0.2479  0.7086
   58MOL   C17421948   2.354   0.998   1.932  0.2627  0.0847  0.2287
   58MOL   O17521949   2.483   0.946   1.925  0.1388  0.6050  0.1037
   58MOL   C17621950   2.578   1.020   1.840 -0.2993  0.1542 -0.2532
   58MOL   C17721951   2.699   0.934   1.786  0.1130 -0.0767 -0.5244
   58MOL   C17821952   2.808   1.033   1.725 -0.8557  1.2664 -0.2049
   58MOL   C17921953   2.940   0.962   1.696  0.6539  0.4433  0.2484
   58MOL   H18021954   2.212   1.046   2.067 -1.3174 -2.8542  1.0272
   58MOL   H18121955   2.310   0.902   2.119  1.8129 -0.1468  1.0707
   58MOL   H18221956   2.347   1.101   1.897  0.3596  0.6499  1.8482
   58MOL   H18321957   2.616   1.097   1.908 -2.6201  0.8706  0.2646
   58MOL   H18421958   2.525   1.068   1.759 -0.8515 -0.3061 -0.1622
   58MOL   H18521959   2.679   0.856   1.712 -0.7763 -0.8397  0.4902
   58MOL   H18621960   2.753   0.888   1.869  1.0707 -0.3104 -1.2671
   58MOL   H18721961   2.765   1.064   1.629 -0.0899  0.8196 -0.6912
   58MOL   H18821962   2.818   1.125   1.784  0.5490 -1.4033  3.8978
   58MOL   H18921963   2.939   0.891   1.613  1.2661  0.2374  0.4184
   58MOL   H19021964   3.015   1.034   1.663  1.3619 -0.7331 -0.7607
   58MOL   H19121965   2.975   0.922   1.791  1.6271 -0.4460 -0.4719
   58MOL   C19221966   2.259   0.915   1.847  0.4093 -0.1854 -0.4132
   58MOL   C19321967   2.297   0.900   1.696 -0.4403 -0.1598  0.1073
   58MOL   O19421968   2.225   0.794   1.639 -0.2646  0.4845 -0.6537
   58MOL   C19521969   2.285   0.668   1.631 -0.2038  0.3004 -0.6556
   58MOL   C19621970   2.199   0.576   1.540  0.5256  0.2065 -0.3986
   58MOL   C19721971   2.073   0.521   1.601 -0.6618 -0.4173 -0.0800
   58MOL   C19821972   2.103   0.413   1.707 -0.3947 -0.3575  0.6722
   58MOL   H19921973   2.155   0.949   1.855 -0.3270 -2.5191  0.1812
   58MOL   H20021974   2.255   0.815   1.891 -0.5753  0.3946  0.8735
   58MOL   H20121975   2.403   0.877   1.690 -0.0655  1.0680  1.6875
   58MOL   H20221976   2.295   0.629   1.733  0.5136  0.3217 -0.7169
   58MOL   H20321977   2.390   0.680   1.605  0.5061 -0.7747  1.6006
   58MOL   H20421978   2.168   0.620   1.445  1.0377 -1.1527 -1.2146
   58MOL   H20521979   2.267   0.497   1.508 -0.2805 -0.1393 -1.2744
   58MOL   H20621980   2.009   0.478   1.523 -2.8720 -0.0646  1.4898
   58MOL   H20721981   2.017   0.601   1.650  1.0465  0.4296  0.5114
   58MOL   H20821982   2.013   0.397   1.766  0.0002 -2.3643  0.7477
   58MOL   H20921983   2.125   0.320   1.655  1.1171  0.2496  0.1936
   58MOL   H21021984   2.186   0.438   1.772  0.1701  2.0578 -0.8764
   58MOL   C21121985   2.263   1.028   1.625  0.2846 -0.0931  0.5292
   58MOL   C21221986   2.306   1.037   1.478  0.2172 -0.0909  0.1499
   58MOL   O21321987   2.294   1.171   1.430  0.0851 -0.0089  0.0460
   58MOL   C21421988   2.175   1.203   1.363  0.0703 -0.1727 -0.1631
   58MOL   C21521989   2.159   1.355   1.335 -0.6151 -0.8822  0.0398
   58MOL   C21621990   2.248   1.395   1.218  0.3671  0.3368 -0.3103
   58MOL   C21721991   2.214   1.529   1.155  0.0594 -0.5312 -0.1524
   58MOL   H21821992   2.311   1.108   1.682  0.7845 -1.2249  1.7161
   58MOL   H21921993   2.156   1.046   1.630  0.6427  2.9978 -1.3545
   58MOL   H22021994   2.239   0.967   1.429 -0.1804 -0.6096  1.4124
   58MOL   H22121995   2.158   1.150   1.269  1.2305 -1.6864  0.4616
   58MOL   H22221996   2.094   1.173   1.430 -0.2472 -0.2700 -0.5873
   58MOL   H22321997   2.054   1.373   1.314 -0.5139 -0.5666 -0.2017
   58MOL   H22421998   2.184   1.412   1.425 -1.4879 -0.4017 -0.0256
   58MOL   H22521999   2.238   1.321   1.139  0.3352 -0.4672  0.4358
   58MOL   H22622000   2.353   1.387   1.245  0.1340 -0.6088  0.3531
   58MOL   H22722001   2.116   1.518   1.108  0.2368  2.3832 -1.2854
   58MOL   H22822002   2.291   1.555   1.083  0.0741  0.3487  0.1708
   58MOL   H22922003   2.215   1.607   1.231 -0.5917 -1.7730  1.1466
   58MOL   C23022004   2.458   0.980   1.456  0.1545 -0.4613 -0.5475
   58MOL   C23122005   2.498   0.998   1.312  0.0860 -0.6944  0.0983
   58MOL   O23222006   2.636   0.967   1.308  0.7725  0.1593 -0.1384
   58MOL   C23322007   2.719   1.083   1.314 -0.1090  0.5536 -0.0458
   58MOL   C23422008   2.862   1.033   1.298  0.8104 -0.2473 -0.1545
   58MOL   C23522009   2.909   0.990   1.155 -0.0478  0.5443 -0.3543
   58MOL   C23622010   3.065   1.002   1.144 -0.5663  0.6207 -0.2659
   58MOL   H23722011   2.471   0.873   1.477  1.2757 -0.2355 -0.0232
   58MOL   H23822012   2.525   1.043   1.514  0.6950  0.3124 -2.0118
   58MOL   H23922013   2.494   1.101   1.276 -0.0676 -0.4724  0.7482
   58MOL   H24022014   2.698   1.154   1.234 -3.3099  0.4604  0.6405
   58MOL   H24122015   2.712   1.137   1.409 -2.5147  0.7511 -0.2926
   58MOL   H24222016   2.920   1.120   1.329  0.3536  0.1809 -0.4842
   58MOL   H24322017   2.892   0.951   1.363 -1.4665  0.0933  1.3686
   58MOL   H24422018   2.860   1.049   1.077  2.1030 -0.9470 -2.9160
   58MOL   H24522019   2.887   0.885   1.138 -2.0236  0.4807  2.2242
   58MOL   H24622020   3.106   0.950   1.231 -2.2594  0.4291  0.4432
   58MOL   H24722021   3.090   1.108   1.147  0.7617  0.3108  0.3595
   58MOL   H24822022   3.105   0.955   1.054  1.2611 -0.0713  0.8779
   58MOL   C24922023   2.419   0.905   1.219  0.6820 -0.2494 -0.6465
   58MOL   C25022024   2.473   0.923   1.075  0.4948 -0.1046  0.0949
   58MOL   O25122025   2.369   0.937   0.978 -0.2610 -0.0265  0.1135
   58MOL   C25222026   2.316   1.064   0.957  0.0047  0.0532 -0.3966
   58MOL   C25322027   2.226   1.070   0.836  0.3765 -0.2190  0.2253
   58MOL   C25422028   2.107   0.980   0.845 -0.2002 -0.2592 -0.3978
   58MOL   C25522029   2.003   1.010   0.954  0.2832  0.4208  0.5960
   58MOL   H25622030   2.315   0.936   1.223  0.8263  0.1321  0.3393
   58MOL   H25722031   2.425   0.805   1.261  0.5832  0.6221  1.5184
   58MOL   H25822032   2.535   1.013   1.073  0.3547  0.0551  1.7951
   58MOL   H25922033   2.400   1.132   0.942 -0.6353  0.7808 -0.7117
   58MOL   H26022034   2.264   1.083   1.050 -0.6976 -4.6312  0.3176
   58MOL   H26122035   2.197   1.171   0.806 -0.4345 -1.0167 -1.8300
   58MOL   H26222036   2.288   1.029   0.756 -0.7760 -2.2560  0.3198
   58MOL   H26322037   2.054   0.971   0.749 -1.5542 -2.1559  0.4845
   58MOL   H26422038   2.149   0.880   0.858  1.7450  0.5990  0.1091
   58MOL   H26522039   2.036   0.997   1.057  0.9777  0.3144  0.3664
   58MOL   H26622040   1.915   0.948   0.937  1.0562 -0.2014 -1.2915
   58MOL   H26722041   1.966   1.111   0.939  0.6332  0.5539  0.6072
   58MOL   C26822042   2.564   0.805   1.020 -0.2721  0.1252  0.1463
   58MOL   C26922043   2.616   0.821   0.872 -0.2328  0.2452  0.2965
   58MOL   O27022044   2.713   0.926   0.871  0.2570 -0.1431  0.0449
   58MOL   C27122045   2.708   1.009   0.752 -0.1503 -0.5440 -0.1601
   58MOL   C27222046   2.826   1.104   0.759  0.0437 -0.3856 -0.4275
   58MOL   C27322047   2.957   1.022   0.753  0.4807 -0.5247 -0.4454
   58MOL   C27422048   3.084   1.110   0.750  0.0027  0.4323  0.2657
   58MOL   H27522049   2.641   0.779   1.093  0.2125  1.5131  0.1397
   58MOL   H27622050   2.499   0.718   1.028 -2.4906  1.5967 -1.3515
   58MOL   H27722051   2.532   0.839   0.806  0.7228 -0.5954 -1.1683
   58MOL   H27822052   2.698   0.957   0.657 -1.9540  0.8248 -0.7405
   58MOL   H27922053   2.621   1.074   0.759 -0.0503 -0.3814 -0.4102
   58MOL   H28022054   2.825   1.173   0.674 -1.9829 -0.6218 -0.6249
   58MOL   H28122055   2.822   1.160   0.853  1.1461 -0.3938 -0.3721
   58MOL   H28222056   2.947   0.958   0.666  0.2454 -1.3984  0.2223
   58MOL   H28322057   2.961   0.950   0.834 -0.2501 -1.9990 -1.7050
   58MOL   H28422058   3.172   1.052   0.722 -1.0332 -1.3184  0.5515
   58MOL   H28522059   3.100   1.146   0.852  0.3977  0.4057  0.2133
   58MOL   H28622060   3.085   1.198   0.686 -0.8867  1.1836  1.2644
   58MOL   C28722061   2.707   0.708   0.828 -0.8002  0.4747  0.4096
   58MOL   C28822062   2.637   0.571   0.809 -0.0630 -0.3512  0.4269
   58MOL   O28922063   2.576   0.513   0.925  0.6639  0.3203 -0.4250
   58MOL   C29022064   2.467   0.423   0.893  0.0995 -0.2073  0.2859
   58MOL   C29122065   2.434   0.329   1.004 -0.3898  0.7382 -0.5544
   58MOL   C29222066   2.361   0.391   1.126 -0.1962  0.1400 -0.4353
   58MOL   C29322067   2.290   0.290   1.216 -0.0191  0.4097  0.6677
   58MOL   H29422068   2.787   0.690   0.899 -0.0645 -0.0367 -0.5416
   58MOL   H29522069   2.764   0.730   0.738 -0.5062 -0.5009  0.3511
   58MOL   H29622070   2.573   0.592   0.723 -0.8425 -1.9608  0.6010
   58MOL   H29722071   2.377   0.480   0.875  1.3645  1.7935  0.1452
   58MOL   H29822072   2.487   0.368   0.801  1.1579  2.7654 -1.3214
   58MOL   H29922073   2.514   0.262   1.036 -1.1162 -0.5898 -1.4443
   58MOL   H30022074   2.368   0.251   0.965 -1.8919  1.1697  1.0326
   58MOL   H30122075   2.290   0.464   1.088 -2.0137 -0.7028  1.2266
   58MOL   H30222076   2.434   0.440   1.190 -1.8354 -0.4537  1.9682
   58MOL   H30322077   2.214   0.329   1.283 -0.6109 -2.0288  1.4560
   58MOL   H30422078   2.227   0.214   1.169 -1.5850  0.1715  3.0621
   58MOL   H30522079   2.368   0.239   1.273  0.2090 -0.9358 -0.8218
   58MOL   C30622080   2.739   0.459   0.763 -0.0029 -0.1247  0.4492
   58MOL   C30722081   2.760   0.473   0.607 -0.5069  0.1152 -0.0907
   58MOL   O30822082   2.639   0.428   0.549 -0.1718 -0.6232  0.3493
   58MOL   C30922083   2.601   0.516   0.440  0.5003  0.1963 -0.1476
   58MOL   C31022084   2.439   0.516   0.435 -0.9662  0.6672 -0.1936
   58MOL   C31122085   2.376   0.381   0.389  0.6645 -0.6584  0.9047
   58MOL   C31222086   2.231   0.383   0.363  0.5685 -0.0686  0.1675
   58MOL   H31322087   2.826   0.491   0.819 -1.3375 -0.9703  3.0548
   58MOL   H31422088   2.707   0.361   0.797 -0.2300 -0.4372 -0.6509
   58MOL   H31522089   2.781   0.579   0.589 -0.3599  0.0009 -0.6025
   58MOL   H31622090   2.655   0.488   0.350  0.4022  0.1421 -0.1896
   58MOL   H31722091   2.636   0.615   0.471  4.1535 -1.1583  0.3485
   58MOL   H31822092   2.407   0.594   0.367  0.8218  1.5416 -0.0715
   58MOL   H31922093   2.401   0.526   0.537  0.8214 -0.9313  0.6777
   58MOL   H32022094   2.433   0.350   0.302  0.9987  0.3395  0.7617
   58MOL   H32122095   2.388   0.298   0.459 -1.3747 -0.4156  1.5829
   58MOL   H32222096   2.197   0.282   0.337  0.7514 -0.1761  0.3437
   58MOL   H32322097   2.217   0.437   0.269  0.8752 -1.8164 -0.9146
   58MOL   H32422098   2.173   0.428   0.443 -0.0486 -2.2886  1.0233
   58MOL   C32522099   2.881   0.385   0.559  0.0667 -0.1879  0.6928
   58MOL   C32622100   3.024   0.414   0.620 -0.3117  0.3637  0.6712
   58MOL   O32722101   3.119   0.330   0.558 -0.0639  0.0458 -0.2120
   58MOL   C32822102   3.153   0.216   0.637 -0.6468  0.0728 -0.1205
   58MOL   C32922103   3.236   0.116   0.549  0.2157 -0.6789 -0.0189
   58MOL   C33022104   3.150   0.076   0.421  0.4557 -0.1148  0.4040
   58MOL   C33122105   3.243   7.799   0.331 -0.1168 -0.2654  0.5133
   58MOL   H33222106   2.886   0.391   0.450  1.6164 -1.2140  0.6949
   58MOL   H33322107   2.862   0.281   0.583  1.5844 -0.1762  2.0598
   58MOL   H33422108   3.015   0.405   0.728  1.7263 -0.6598  0.7737
   58MOL   H33522109   3.061   0.177   0.679 -0.3412  0.1113  0.5801
   58MOL   H33622110   3.215   0.254   0.718  0.7477  1.3270 -1.7114
   58MOL   H33722111   3.332   0.160   0.521 -0.9559  1.0720 -1.4720
   58MOL   H33822112   3.259   0.027   0.606 -1.0003 -1.4490 -0.7027
   58MOL   H33922113   3.106   0.164   0.375 -0.5900  0.3789  2.2774
   58MOL   H34022114   3.066   0.016   0.454  1.3879 -1.6484  0.0530
   58MOL   H34122115   3.346   0.033   0.321  0.2002 -1.4676 -0.6922
   58MOL   H34222116   3.195   7.768   0.238  0.5338 -1.6648  0.6310
   58MOL   H34322117   3.249   7.700   0.376 -1.0473 -1.6012 -2.1405
   58MOL   C34422118   3.069   0.561   0.597  0.6045  0.0848  0.2942
   58MOL   C34522119   3.182   0.589   0.696 -0.4170  0.2529 -0.0565
   58MOL   O34622120   3.127   0.577   0.826  0.4416 -0.4045  0.1537
   58MOL   C34722121   3.206   0.516   0.929 -1.1238 -0.0709 -0.0819
   58MOL   C34822122   3.122   0.502   1.051  0.1755  0.5546  0.2649
   58MOL   C34922123   3.079   0.637   1.105 -0.1217  0.6203 -0.7974
   58MOL   C35022124   2.978   0.621   1.228  0.0018  0.5481 -0.5488
   58MOL   H35122125   3.095   0.571   0.492 -0.1866  3.3387  0.3623
   58MOL   H35222126   2.986   0.629   0.616  1.4698  1.3224 -0.3360
   58MOL   H35322127   3.254   0.510   0.673  0.7931  1.7903 -1.7132
   58MOL   H35422128   3.291   0.581   0.945 -1.2427  0.0604  0.0196
   58MOL   H35522129   3.244   0.418   0.900 -1.4495  0.2513 -1.6717
   58MOL   H35622130   3.171   0.454   1.135  0.6985 -2.1610 -1.5323
   58MOL   H35722131   3.033   0.445   1.024  0.8009  0.0042 -0.6746
   58MOL   H35822132   3.160   0.703   1.134 -0.2629 -0.3594  1.9128
   58MOL   H35922133   3.019   0.684   1.028  0.3537  0.2201 -1.4245
   58MOL   H36022134   2.882   0.579   1.198  0.1201 -0.6662  0.7369
   58MOL   H36122135   2.976   0.717   1.279 -0.4293 -0.1062  0.6671
   58MOL   H36222136   3.022   0.561   1.308 -1.7333  1.5814  1.2234
   58MOL   C36322137   3.247   0.730   0.674 -1.0831 -0.1522  0.1668
   58MOL   C36422138   3.306   0.759   0.540  0.0157 -0.0690  1.6708
   58MOL   O36522139   3.404   0.857   0.542  0.2885  0.5427 -0.3335
   58MOL   C36622140   3.445   0.886   0.412  0.2339  0.0097  0.2338
   58MOL   C36722141   3.424   1.039   0.396 -0.1081  0.0125 -0.2069
   58MOL   C36822142   3.288   1.082   0.347 -0.2373 -0.6034  0.3838
   58MOL   C36922143   3.262   1.236   0.313 -0.0402  0.0690 -0.0618
   58MOL   H37022144   3.315   0.742   0.758  0.0449 -1.2023 -0.5649
   58MOL   H37122145   3.182   0.811   0.706  0.1586  1.6555 -1.7528
   58MOL   H37222146   3.222   0.780   0.474  2.0333  1.7985 -0.3864
   58MOL   H37322147   3.401   0.832   0.328  0.1329 -2.2915  1.7245
   58MOL   H37422148   3.551   0.866   0.403  0.7107  2.0941  0.9154
   58MOL   H37522149   3.502   1.066   0.324 -0.1049  1.3633  0.2810
   58MOL   H37622150   3.464   1.100   0.477  2.7768 -2.5495  0.3840
   58MOL   H37722151   3.212   1.060   0.422  1.0676  0.6231  2.1328
   58MOL   H37822152   3.262   1.025   0.259  0.8767 -2.4348  1.2213
   58MOL   H37922153   3.316   1.305   0.379 -0.0033  0.4827 -0.5236
   58MOL   H38022154   3.280   1.257   0.208  0.8368 -2.3422 -0.4079
   58MOL   H38122155   3.162   1.275   0.335  0.5880  2.3905 -1.1478
   58MOL   H38222156   3.367   0.674   0.511 -0.0898  1.3350 -3.0522
   59MOL     C122157   1.747   7.702   0.143  0.2436 -0.0614 -0.6859
   59MOL     C222158   1.647   7.790   0.230 -0.8404 -0.5894 -0.8604
   59MOL     O322159   1.525   7.779   0.155  0.0318 -0.0008 -0.7288
   59MOL     C422160   1.512   0.078   0.058  0.4013 -0.0402 -0.5923
   59MOL     C522161   1.389   0.048   7.775  0.0911 -1.5924 -0.6345
   59MOL     C622162   1.407   7.737   7.672  0.0880  0.4036  0.1506
   59MOL     C722163   1.277   7.692   7.607 -0.1817  0.0543 -0.1691
   59MOL     H822164   1.714   7.600   0.124 -1.2558  0.4412 -0.8342
   59MOL     H922165   1.756   7.749   0.045  0.4135  0.0471 -0.6178
   59MOL    H1022166   1.681   0.092   0.234 -1.4022 -0.4365 -0.0478
   59MOL    H1122167   1.491   0.167   0.118 -1.3574 -0.2053 -0.9370
   59MOL    H1222168   1.595   0.105   7.794  0.9388 -1.0605 -0.3388
   59MOL    H1322169   1.364   0.145   7.731  0.9353 -0.8114  0.5668
   59MOL    H1422170   1.306   0.030   0.042 -0.6150 -1.6349 -1.4896
   59MOL    H1522171   1.456   7.656   7.726  1.4886  1.8271  1.0707
   59MOL    H1622172   1.474   7.775   7.595  1.1675 -0.6550  0.5600
   59MOL    H1722173   1.302   7.622   7.527  0.8805  0.5670 -0.2905
   59MOL    H1822174   1.220   7.769   7.555  0.1875  0.8967  0.6651
   59MOL    H1922175   1.217   7.639   7.681  2.0287 -1.5265  0.5534
   59MOL    H2022176   1.844   7.701   0.192  0.5020  0.2579 -1.1860
   59MOL    C2122177   1.628   7.735   0.370 -0.1869 -0.3813 -0.3826
   59MOL    C2222178   1.558   0.030   0.457 -0.3452 -0.6023 -0.0364
   59MOL    O2322179   1.645   0.143   0.495 -0.4053  0.4635 -0.8732
   59MOL    C2422180   1.661   0.154   0.636 -0.4659 -0.5980  0.4259
   59MOL    C2522181   1.799   0.219   0.663 -0.1146  0.6802 -0.1801
   59MOL    C2622182   1.913   0.130   0.608  0.3168 -0.1657 -0.5439
   59MOL    C2722183   1.931   0.004   0.691 -0.1304  0.0871  0.0386
   59MOL    H2822184   1.719   7.693   0.413 -0.3681  2.5363  3.0762
   59MOL    H2922185   1.561   7.650   0.359 -0.2231 -0.7168  2.1258
   59MOL    H3022186   1.537   7.769   0.544 -1.2825 -1.6702 -1.0094
   59MOL    H3122187   1.652   0.063   0.695 -1.1600 -1.7309 -1.4148
   59MOL    H3222188   1.580   0.211   0.682  0.9338  0.8155  1.2086
   59MOL    H3322189   1.797   0.319   0.621 -3.2778  1.2449  1.1570
   59MOL    H3422190   1.796   0.221   0.772 -1.0376  1.4263 -0.2168
   59MOL    H3522191   1.901   0.102   0.504 -2.0489 -0.4370 -0.2096
   59MOL    H3622192   2.006   0.187   0.610  0.5527 -0.5621  0.3770
   59MOL    H3722193   1.841   7.745   0.694  0.6803 -1.0727  1.4737
   59MOL    H3822194   2.020   7.754   0.654 -0.0218  2.2291 -2.8960
   59MOL    H3922195   1.960   0.033   0.792 -1.5614 -0.4760  0.6198
   59MOL    C4022196   1.425   0.086   0.402 -0.5608  0.1054  0.0415
   59MOL    C4122197   1.319   0.152   0.500  0.4547 -0.0498  0.7125
   59MOL    O4222198   1.194   0.155   0.428 -0.4233  0.0686  0.7808
   59MOL    C4322199   1.118   0.034   0.451  0.1028  0.5082  0.0140
   59MOL    C4422200   0.986   0.050   0.373 -0.8669 -0.4301  0.1950
   59MOL    C4522201   1.012   0.083   0.225 -0.0986 -0.1408  0.2344
   59MOL    C4622202   0.883   0.102   0.134 -0.6689  0.5138  0.4042
   59MOL    H4722203   1.364   0.002   0.369 -0.2004 -0.0172 -0.3166
   59MOL    H4822204   1.449   0.154   0.321 -0.1969  0.2620  0.2783
   59MOL    H4922205   1.310   0.112   0.601  0.5650  1.6950  1.4150
   59MOL    H5022206   1.106   7.797   0.552 -2.8413 -0.7903 -0.7730
   59MOL    H5122207   1.163   7.749   0.402  0.2057 -0.6945  2.1923
   59MOL    H5222208   0.925   0.134   0.404 -1.3670 -0.1971 -1.3748
   59MOL    H5322209   0.929   7.759   0.380  1.1795 -1.7240  0.3610
   59MOL    H5422210   1.073   0.006   0.178 -1.7449 -0.9563 -0.5847
   59MOL    H5522211   1.078   0.171   0.221 -0.7859  0.3617 -0.0874
   59MOL    H5622212   0.808   0.028   0.159 -1.6099  0.9671 -1.0146
   59MOL    H5722213   0.834   0.199   0.143 -3.2364 -0.8189  1.1873
   59MOL    H5822214   0.900   0.095   0.026 -2.8986  1.0417 -0.0077
   59MOL    C5922215   1.350   0.300   0.522 -0.5584 -0.0064 -0.1101
   59MOL    C6022216   1.278   0.360   0.644 -0.0127 -0.4828  0.0336
   59MOL    O6122217   1.363   0.304   0.741  0.5690 -0.1522  0.4147
   59MOL    C6222218   1.330   0.322   0.876 -0.1057 -0.5376  0.0460
   59MOL    C6322219   1.444   0.263   0.958 -0.1140 -0.8970 -0.2347
   59MOL    C6422220   1.440   0.113   0.956 -0.5154  0.1160 -0.2742
   59MOL    C6522221   1.563   0.039   1.007 -0.0434 -0.7104  0.5361
   59MOL    H6622222   1.457   0.316   0.516 -0.4958 -0.0506  0.7638
   59MOL    H6722223   1.306   0.354   0.438 -0.3432  2.5933  1.3979
   59MOL    H6822224   1.181   0.313   0.665  0.1158 -1.4402 -1.4566
   59MOL    H6922225   1.227   0.292   0.896  0.0979 -0.1418  1.7719
   59MOL    H7022226   1.339   0.429   0.893 -0.3673 -0.2847 -1.3650
   59MOL    H7122227   1.537   0.296   0.913 -0.3440 -1.6996 -1.3126
   59MOL    H7222228   1.445   0.295   1.062 -1.8987  2.2867 -1.1227
   59MOL    H7322229   1.348   0.077   1.000 -0.7291  0.9554 -0.0292
   59MOL    H7422230   1.440   0.096   0.848 -3.0864  1.0735 -0.4417
   59MOL    H7522231   1.650   0.076   0.953 -0.9502 -0.8777 -1.0755
   59MOL    H7622232   1.578   0.043   1.115  2.6705 -0.5403  0.1685
   59MOL    H7722233   1.554   7.737   0.972 -2.1488  0.2479 -1.9529
   59MOL    C7822234   1.281   0.516   0.642 -0.8244 -0.5641 -0.4070
   59MOL    C7922235   1.208   0.593   0.539 -0.1879  0.6811  0.3140
   59MOL    O8022236   1.248   0.729   0.546 -1.1005 -0.4807 -0.0674
   59MOL    C8122237   1.358   0.766   0.460 -0.6296 -0.0016  0.5288
   59MOL    C8222238   1.386   0.914   0.494 -0.0235 -0.2934  1.2165
   59MOL    C8322239   1.278   1.018   0.460  0.2078  0.0666  0.1435
   59MOL    C8422240   1.321   1.171   0.485 -0.4908 -0.2076  0.5916
   59MOL    H8522241   1.388   0.539   0.637 -1.0043 -0.0085 -1.7915
   59MOL    H8622242   1.256   0.545   0.744 -1.2838 -1.4779 -0.2621
   59MOL    H8722243   1.229   0.557   0.438  1.3710 -1.1820  1.2429
   59MOL    H8822244   1.326   0.752   0.357  0.8156  1.8612 -0.2120
   59MOL    H8922245   1.447   0.706   0.477 -1.3317 -1.0165  0.6420
   59MOL    H9022246   1.418   0.937   0.595 -0.3665  0.8769  1.0722
   59MOL    H9122247   1.470   0.946   0.432 -1.0794  0.9852  0.3942
   59MOL    H9222248   1.185   0.984   0.506  1.3380 -0.9591  1.7005
   59MOL    H9322249   1.252   1.003   0.355  1.3646 -2.4845  0.1804
   59MOL    H9422250   1.234   1.235   0.475 -0.5501  0.0349  2.5038
   59MOL    H9522251   1.356   1.206   0.583 -2.8111  0.6941  1.1175
   59MOL    H9622252   1.405   1.190   0.418  0.2213  1.1466  1.8340
   59MOL    C9722253   1.058   0.598   0.566  1.3534 -0.6573 -0.0932
   59MOL    C9822254   0.968   0.675   0.469 -0.3576  0.2690 -0.7011
   59MOL    O9922255   0.848   0.607   0.442 -0.2941  0.0377  0.3993
   59MOL   C10022256   0.828   0.531   0.329  0.5757  0.1265  0.4788
   59MOL   C10122257   0.755   0.402   0.357  0.3567  0.0003  0.1643
   59MOL   C10222258   0.644   0.414   0.457 -0.4304 -0.5785 -0.0937
   59MOL   C10322259   0.575   0.281   0.488 -0.0998  0.5914  0.4469
   59MOL   H10422260   1.032   0.626   0.669  1.2768 -0.4060 -0.1795
   59MOL   H10522261   1.028   0.494   0.560  0.3482 -0.3252 -0.9753
   59MOL   H10622262   1.021   0.681   0.374 -0.6549 -1.4430 -0.9820
   59MOL   H10722263   0.919   0.511   0.273 -0.0534 -0.9559 -0.1724
   59MOL   H10822264   0.771   0.599   0.266 -0.9764 -0.8803  0.7555
   59MOL   H10922265   0.836   0.335   0.387 -1.0332 -0.8765  2.0454
   59MOL   H11022266   0.719   0.359   0.264  0.8570 -1.4748  0.6484
   59MOL   H11122267   0.566   0.484   0.425  0.5860  0.5569 -0.1407
   59MOL   H11222268   0.682   0.464   0.546  0.7019 -1.3494 -0.1362
   59MOL   H11322269   0.546   0.236   0.393  3.5264  0.3679 -0.6022
   59MOL   H11422270   0.650   0.212   0.527 -0.9539 -0.8000 -0.3388
   59MOL   H11522271   0.498   0.300   0.563  0.6343  0.0020  1.3625
   59MOL   C11622272   0.912   0.801   0.537  0.5377 -0.0792  0.2042
   59MOL   C11722273   0.855   0.918   0.453  0.1960 -0.0796 -0.3398
   59MOL   O11822274   0.826   1.015   0.557 -0.3600  0.4119 -0.8002
   59MOL   C11922275   0.722   1.111   0.531  0.0637  0.0349 -0.0122
   59MOL   C12022276   0.757   1.242   0.604 -0.1004 -0.5571 -0.7232
   59MOL   C12122277   0.867   1.315   0.536  0.0191 -0.1663  0.2510
   59MOL   C12222278   0.898   1.453   0.615 -0.2651  0.1662  0.4619
   59MOL   H12322279   0.849   0.773   0.621  0.7160 -0.2853  0.2702
   59MOL   H12422280   0.999   0.830   0.596  0.6057  2.0479 -0.8861
   59MOL   H12522281   0.763   0.884   0.407 -1.2988  1.5546  1.3697
   59MOL   H12622282   0.624   1.075   0.565 -1.2459  1.5606 -2.0315
   59MOL   H12722283   0.707   1.143   0.428  0.1421  2.7776  0.7883
   59MOL   H12822284   0.773   1.202   0.704  2.1804 -0.5094 -1.0436
   59MOL   H12922285   0.668   1.304   0.604  0.6508  0.5691  0.8996
   59MOL   H13022286   0.957   1.253   0.541  0.4954  0.1635 -2.8767
   59MOL   H13122287   0.856   1.336   0.429  4.5541 -1.0974 -0.5051
   59MOL   H13222288   0.985   1.506   0.575  0.0621 -1.4098 -0.9412
   59MOL   H13322289   0.912   1.441   0.722 -0.8072  1.1802  0.6563
   59MOL   H13422290   0.815   1.523   0.602 -1.9699 -1.9702 -0.4233
   59MOL   C13522291   0.958   0.985   0.354  0.9462  0.3850  0.3589
   59MOL   C13622292   0.894   1.031   0.220 -0.6141  0.2436  0.1596
   59MOL   O13722293   0.988   1.113   0.151  0.3167  0.3077  0.4609
   59MOL   C13822294   0.981   1.254   0.185 -0.4468  0.0095  0.4125
   59MOL   C13922295   1.078   1.326   0.084  0.9026 -0.4817  0.6433
   59MOL   C14022296   1.064   1.485   0.093  0.6440 -0.4808  0.5287
   59MOL   C14122297   1.101   1.525   0.235  0.5354 -0.2219 -0.8362
   59MOL   H14222298   1.034   0.907   0.341  0.1133 -0.4883  0.6833
   59MOL   H14322299   1.001   1.068   0.411  1.1793  0.3527  0.2330
   59MOL   H14422300   0.796   1.075   0.236 -1.8508 -1.3039 -2.9581
   59MOL   H14522301   1.016   1.269   0.286  0.8081 -0.1891  0.0108
   59MOL   H14622302   0.874   1.271   0.170 -0.7013 -1.6595  0.1467
   59MOL   H14722303   1.044   1.299   7.786 -1.7843  1.2715  1.0414
   59MOL   H14822304   1.181   1.292   0.093  0.2859 -2.3123  1.2398
   59MOL   H14922305   1.129   1.538   0.024  1.1125  0.0335  1.3634
   59MOL   H15022306   0.967   1.531   0.076  1.3004  0.2591 -1.4094
   59MOL   H15122307   1.022   1.505   0.307  0.4892  1.2279 -0.4632
   59MOL   H15222308   1.186   1.469   0.275  1.2772  0.9290 -0.7621
   59MOL   H15322309   1.113   1.633   0.249  0.3472 -0.4317  1.0807
   59MOL   C15422310   0.870   0.906   0.135 -0.3411 -0.0533 -0.1140
   59MOL   C15522311   0.805   0.927   7.800 -0.0622  0.1076 -0.7872
   59MOL   O15622312   0.669   0.973   0.032 -0.1002  0.0734  0.4928
   59MOL   C15722313   0.598   1.031   7.731  0.0955  0.7080  0.2022
   59MOL   C15822314   0.603   1.184   7.732  0.4362 -0.1932  0.0987
   59MOL   C15922315   0.726   1.255   7.679  0.3397  0.7067 -0.7924
   59MOL   C16022316   0.707   1.406   7.695  0.1312 -0.2136 -0.6625
   59MOL   H16122317   0.824   0.827   0.194 -0.1341  0.9994  1.4940
   59MOL   H16222318   0.973   0.873   0.116  0.0704  0.4147  1.2217
   59MOL   H16322319   0.854   1.009   7.748  1.9082  0.3263  1.3294
   59MOL   H16422320   0.627   0.999   7.631  1.2070 -2.0659  1.3749
   59MOL   H16522321   0.496   0.996   7.744  0.4359 -0.1189  0.6581
   59MOL   H16622322   0.578   1.214   0.032  0.6977  0.2819  0.0243
   59MOL   H16722323   0.515   1.217   7.676  0.9545 -1.0114 -1.2260
   59MOL   H16822324   0.808   1.218   7.741  1.4088  2.5858 -1.0587
   59MOL   H16922325   0.743   1.231   7.575 -2.4380  0.2055 -1.1739
   59MOL   H17022326   0.799   1.450   7.659  1.1616 -0.7570  1.2108
   59MOL   H17122327   0.619   1.441   7.641 -1.4435 -0.4494  1.6683
   59MOL   H17222328   0.706   1.433   7.801  0.0052  1.0311 -0.9674
   59MOL   C17322329   0.810   0.794   7.724  0.6477 -0.7136 -0.2982
   59MOL   C17422330   0.947   0.743   7.668  1.0811  0.1910  0.9427
   59MOL   O17522331   0.994   0.647   7.762  0.3135  0.0941 -0.5318
   59MOL   C17622332   1.136   0.644   7.768 -0.0336 -0.1282 -0.1220
   59MOL   C17722333   1.179   0.558   0.089 -0.5476 -0.1059 -0.6503
   59MOL   C17822334   1.318   0.499   0.066 -0.1513 -0.2250  0.0596
   59MOL   C17922335   1.380   0.435   0.183 -0.5771 -0.1471 -0.1067
   59MOL   H18022336   0.749   0.813   7.636  0.2796  0.9191  0.2943
   59MOL   H18122337   0.770   0.714   7.787 -0.1320 -1.4323 -1.6781
   59MOL   H18222338   1.013   0.829   7.664  1.7705 -0.4284 -2.8538
   59MOL   H18322339   1.174   0.744   7.783 -0.1976  0.1802 -1.7112
   59MOL   H18422340   1.172   0.599   7.675 -0.8134  0.3617 -0.6667
   59MOL   H18522341   1.105   0.482   0.115 -0.6202  0.5444  1.0868
   59MOL   H18622342   1.190   0.618   0.179  3.5039 -1.2230 -0.3254
   59MOL   H18722343   1.304   0.430   7.785  0.4884 -1.6597  1.1215
   59MOL   H18822344   1.386   0.578   0.034 -0.8033  0.8025  1.1676
   59MOL   H18922345   1.341   0.336   0.204  2.0763 -0.5489  3.4762
   59MOL   H19022346   1.484   0.424   0.153 -1.1169  1.0881 -2.5266
   59MOL   H19122347   1.387   0.499   0.272  2.2933 -3.8059  2.4778
   59MOL   C19222348   0.941   0.683   7.531  0.3657  0.4309  0.0592
   59MOL   C19322349   0.901   0.774   7.412  0.7963 -0.3539  0.2091
   59MOL   O19422350   0.998   0.875   7.414 -0.1186 -0.2700 -0.2822
   59MOL   C19522351   0.952   1.012   7.394  1.0043 -0.1848 -0.1290
   59MOL   C19622352   1.064   1.109   7.392  0.2005  0.2793  0.0220
   59MOL   C19722353   1.012   1.250   7.394  0.2084  0.0084  0.7128
   59MOL   C19822354   1.117   1.360   7.364  0.1613  0.7871 -0.4580
   59MOL   H19922355   0.860   0.610   7.541  0.5225  0.3431  0.7035
   59MOL   H20022356   1.033   0.631   7.506  0.0462 -0.1864  0.1397
   59MOL   H20122357   0.798   0.802   7.436  0.8721 -1.1598  1.5333
   59MOL   H20222358   0.895   1.038   7.482  1.0132  1.0414 -0.4644
   59MOL   H20322359   0.887   1.022   7.307 -2.3141  2.1883  2.4849
   59MOL   H20422360   1.118   1.089   7.484 -2.4647 -1.8235  1.1892
   59MOL   H20522361   1.131   1.089   7.309 -0.8045  3.0515 -1.5322
   59MOL   H20622362   0.959   1.269   7.487  1.5928 -0.8410  1.6966
   59MOL   H20722363   0.933   1.250   7.319 -0.0150 -0.3898  0.9524
   59MOL   H20822364   1.179   1.381   7.451  0.9169  1.1129 -1.0674
   59MOL   H20922365   1.174   1.327   7.277 -0.8488 -1.0513 -0.4467
   59MOL   H21022366   1.069   1.454   7.337  0.3995  0.3537 -2.4702
   59MOL   C21122367   0.902   0.689   7.284 -0.0013  0.6130  0.3732
   59MOL   C21222368   0.794   0.587   7.265 -0.5759 -1.3670 -0.2437
   59MOL   O21322369   0.668   0.658   7.252 -0.0811  0.2621  0.5050
   59MOL   C21422370   0.571   0.617   7.353 -0.0691 -0.2188 -0.3254
   59MOL   C21522371   0.440   0.681   7.319 -0.9424  0.1262 -0.6154
   59MOL   C21622372   0.440   0.833   7.319 -0.4611 -0.6796  0.4282
   59MOL   C21722373   0.463   0.900   7.453  0.8998 -0.2394  0.3456
   59MOL   H21822374   0.997   0.637   7.265 -0.3738  0.7336 -1.9049
   59MOL   H21922375   0.904   0.751   7.195 -2.6245  2.3324  1.4447
   59MOL   H22022376   0.797   0.515   7.347 -0.8039 -0.9592  0.1263
   59MOL   H22122377   0.562   0.509   7.352 -1.2220 -0.1252 -0.7555
   59MOL   H22222378   0.609   0.654   7.448  0.1361  0.6139 -0.7232
   59MOL   H22322379   0.406   0.633   7.228 -0.3101  0.6210 -1.1183
   59MOL   H22422380   0.371   0.651   7.398  1.2738 -1.2534  0.8729
   59MOL   H22522381   0.351   0.879   7.276 -0.0323 -0.5770 -0.3743
   59MOL   H22622382   0.513   0.868   7.245 -0.8389  0.0912  0.4113
   59MOL   H22722383   0.510   0.846   7.535 -2.2439 -2.2869  0.8502
   59MOL   H22822384   0.372   0.944   7.494 -0.8882 -2.6850 -0.9250
   59MOL   H22922385   0.528   0.986   7.433 -0.0323  0.0055 -1.7963
   59MOL   C23022386   0.810   0.518   7.122  0.0879 -0.2846  0.3502
   59MOL   C23122387   0.930   0.425   7.100  0.2410 -0.4550 -0.2782
   59MOL   O23222388   0.923   0.324   7.207  0.4071 -0.0393  0.1398
   59MOL   C23322389   1.050   0.283   7.251  0.7350  0.5200  0.0464
   59MOL   C23422390   1.054   0.213   7.394  0.5607 -0.0290 -0.0875
   59MOL   C23522391   1.018   0.306   7.513  0.2126  0.1825 -0.3345
   59MOL   C23622392   1.067   0.248   7.644 -0.1352  0.5599  0.1718
   59MOL   H23722393   0.804   0.589   7.039 -0.3291  0.0961  0.7019
   59MOL   H23822394   0.726   0.452   7.099  0.5682  0.1648 -2.9043
   59MOL   H23922395   1.025   0.477   7.106 -0.0953 -0.1741  5.3110
   59MOL   H24022396   1.096   0.214   7.180  0.8346 -0.7530  1.3245
   59MOL   H24122397   1.113   0.372   7.262  1.9854 -0.5831  2.0208
   59MOL   H24222398   1.005   0.115   7.398  0.1654  0.1623 -0.1692
   59MOL   H24322399   1.159   0.200   7.418  0.3190  0.2355  1.1831
   59MOL   H24422400   0.910   0.321   7.516  0.0103 -1.3615  0.4419
   59MOL   H24522401   1.070   0.402   7.511  0.9884 -0.2244 -3.9751
   59MOL   H24622402   1.175   0.254   7.651 -0.2338  1.7695  0.7155
   59MOL   H24722403   1.063   0.139   7.642  0.1434  0.5451  0.4313
   59MOL   H24822404   1.018   0.283   7.735  0.5853  1.4881  0.1997
   59MOL   C24922405   0.920   0.352   6.964 -0.6445  1.0350 -0.0256
   59MOL   C25022406   0.906   0.430   6.830 -0.4045  0.0340 -0.2667
   59MOL   O25122407   0.919   0.350   6.709 -0.3108  0.2808 -0.2477
   59MOL   C25222408   0.808   0.269   6.683 -0.0397 -0.1950 -0.5680
   59MOL   C25322409   0.843   0.188   6.554 -0.5610 -0.6345  0.0205
   59MOL   C25422410   0.732   0.124   6.477  0.3519  0.3488  0.1925
   59MOL   C25522411   0.768   0.058   6.355  0.2613 -0.5954  0.8518
   59MOL   H25622412   0.827   0.294   6.962 -1.1990  1.9323 -0.5703
   59MOL   H25722413   1.000   0.280   6.950  0.2981  1.9145  0.7570
   59MOL   H25822414   0.808   0.478   6.825 -0.4301  0.1371  1.0582
   59MOL   H25922415   0.721   0.335   6.671  0.0654 -0.1650 -1.1784
   59MOL   H26022416   0.785   0.203   6.766 -0.3803  1.1649  0.4547
   59MOL   H26122417   0.893   0.254   6.484  0.7092 -0.5481  0.9800
   59MOL   H26222418   0.914   0.107   6.574 -0.2632 -1.4159 -3.8524
   59MOL   H26322419   0.671   0.065   6.545 -1.1894 -1.4180 -2.6134
   59MOL   H26422420   0.666   0.204   6.443 -1.9671 -1.0490  1.2683
   59MOL   H26522421   0.834   0.109   6.285  0.0727 -1.7217 -0.1665
   59MOL   H26622422   0.676   0.029   6.305  0.6074 -0.1902 -0.0349
   59MOL   H26722423   0.831   7.776   6.386 -1.1669 -1.6355  0.9855
   59MOL   C26822424   1.020   0.538   6.822 -0.7745 -0.1100 -0.0378
   59MOL   C26922425   1.169   0.484   6.807 -0.2248 -0.9054 -0.1759
   59MOL   O27022426   1.215   0.540   6.684  0.1301 -0.5969 -0.1681
   59MOL   C27122427   1.189   0.463   6.567  0.4022  0.3850  0.1970
   59MOL   C27222428   1.241   0.535   6.440 -0.5771 -0.2037 -0.7761
   59MOL   C27322429   1.370   0.608   6.472 -0.0174 -0.2287  0.6204
   59MOL   C27422430   1.443   0.673   6.358 -0.2337 -0.3131  0.4443
   59MOL   H27522431   0.995   0.591   6.730  1.1587 -0.1479 -0.6169
   59MOL   H27622432   1.022   0.607   6.906  0.9444  0.6707 -0.6948
   59MOL   H27722433   1.169   0.375   6.802  1.1953 -1.0084  1.5356
   59MOL   H27822434   1.234   0.364   6.565  0.0980  0.2655 -1.5455
   59MOL   H27922435   1.081   0.448   6.569  0.2168  1.3955 -1.2118
   59MOL   H28022436   1.263   0.460   6.365  1.3838 -3.1823  2.6204
   59MOL   H28122437   1.170   0.611   6.407  0.2575  1.0963  0.3555
   59MOL   H28222438   1.442   0.541   6.520  0.9880  0.4879  0.1300
   59MOL   H28322439   1.344   0.672   6.556  1.2279 -0.1380  0.9419
   59MOL   H28422440   1.518   0.745   6.390  0.1769 -0.6945  0.3492
   59MOL   H28522441   1.382   0.747   6.307  2.0118  2.3295  1.4736
   59MOL   H28622442   1.495   0.608   6.287  0.6173  0.9275 -0.0935
   59MOL   C28722443   1.259   0.516   6.929  0.1006  0.0975  0.8594
   59MOL   C28822444   1.394   0.441   6.918  0.5126  1.2809 -0.4662
   59MOL   O28922445   1.367   0.324   6.991  0.0744  0.0394  0.2502
   59MOL   C29022446   1.401   0.209   6.920 -0.0751  0.1207  0.1115
   59MOL   C29122447   1.358   0.084   7.005 -0.0150 -0.3871  0.1811
   59MOL   C29222448   1.401   0.075   7.151 -0.0260 -0.5766 -0.0777
   59MOL   C29322449   1.368   7.751   7.219  0.1440 -0.0074 -0.7830
   59MOL   H29422450   1.217   0.496   7.028  1.2150 -2.6871  0.8324
   59MOL   H29522451   1.258   0.625   6.923  2.0927  0.0737 -0.4389
   59MOL   H29622452   1.418   0.427   6.813 -1.1222  2.0671 -0.9548
   59MOL   H29722453   1.333   0.206   6.835 -0.8916 -1.3209  0.8105
   59MOL   H29822454   1.505   0.193   6.890 -0.0892 -1.8027  1.0171
   59MOL   H29922455   1.360   7.791   6.952 -0.2231 -0.9632  1.1861
   59MOL   H30022456   1.250   0.098   7.006  0.2375  1.7046  0.4079
   59MOL   H30122457   1.366   0.160   7.210 -0.8813 -0.1954 -1.1135
   59MOL   H30222458   1.508   0.089   7.168  0.3820 -2.5771 -0.8954
   59MOL   H30322459   1.260   7.735   7.213  0.2577 -0.4591 -1.5189
   59MOL   H30422460   1.427   7.668   7.182  1.1768 -1.1930  3.2059
   59MOL   H30522461   1.395   7.761   7.325 -0.8795 -0.1202 -0.5032
   59MOL   C30622462   1.518   0.500   6.994 -0.3781  0.3235  0.2594
   59MOL   C30722463   1.604   0.596   6.908  0.0068 -0.3405 -0.0904
   59MOL   O30822464   1.710   0.641   6.993  0.0706  0.0067  0.1577
   59MOL   C30922465   1.842   0.588   6.966  0.4513  0.4505  0.0378
   59MOL   C31022466   1.928   0.641   7.085 -0.6413  0.0652  0.0240
   59MOL   C31122467   1.953   0.793   7.083  0.0179 -0.3754  0.2202
   59MOL   C31222468   2.020   0.837   7.212  0.0610 -0.0834 -0.6737
   59MOL   H31322469   1.487   0.546   7.087  0.5931  1.5763 -0.0242
   59MOL   H31422470   1.587   0.417   7.013  0.4795  1.0860  0.5121
   59MOL   H31522471   1.645   0.544   6.821 -1.5373  0.8754 -1.5876
   59MOL   H31622472   1.877   0.626   6.870  2.4867 -0.8219  0.2471
   59MOL   H31722473   1.846   0.479   6.970 -2.0271  0.3359  0.2541
   59MOL   H31822474   2.027   0.597   7.071 -1.0488 -0.9919  0.3808
   59MOL   H31922475   1.893   0.610   7.184 -0.2523  0.5087  0.3034
   59MOL   H32022476   2.023   0.827   7.007 -0.7569  0.6421 -0.0400
   59MOL   H32122477   1.858   0.844   7.084  0.3064  0.1869  3.2977
   59MOL   H32222478   2.067   0.933   7.190  0.2033 -0.2295 -1.0053
   59MOL   H32322479   2.097   0.769   7.249 -1.2744 -1.3964 -0.2580
   59MOL   H32422480   1.943   0.844   7.289 -1.5950  1.5151 -2.4383
   59MOL   C32522481   1.522   0.722   6.850  0.5648 -0.5301  0.2531
   59MOL   C32622482   1.605   0.832   6.786  0.4130 -0.6939  0.1970
   59MOL   O32722483   1.670   0.760   6.685  0.2762  0.0609  0.5987
   59MOL   C32822484   1.793   0.815   6.646  0.2197  0.5380  0.2284
   59MOL   C32922485   1.836   0.758   6.509 -0.2059 -0.0089 -0.0201
   59MOL   C33022486   1.891   0.609   6.505  0.0714  0.2210 -0.4706
   59MOL   C33122487   1.973   0.572   6.379  0.6145 -0.6494 -0.8723
   59MOL   H33222488   1.479   0.764   6.941 -1.6048 -1.2976 -0.4010
   59MOL   H33322489   1.441   0.677   6.794 -1.5114  0.2538  2.5577
   59MOL   H33422490   1.674   0.877   6.858 -3.2133  1.6210  2.4088
   59MOL   H33522491   1.869   0.799   6.722 -0.0678  0.8733  0.5866
   59MOL   H33622492   1.769   0.921   6.638 -1.0200  0.2415  0.0216
   59MOL   H33722493   1.757   0.769   6.434 -2.4163 -0.3166  2.2078
   59MOL   H33822494   1.922   0.819   6.482  1.3687 -2.4943 -0.7760
   59MOL   H33922495   1.805   0.548   6.534  0.9486 -0.7159  0.2106
   59MOL   H34022496   1.961   0.586   6.585 -2.0904 -3.6293  0.4451
   59MOL   H34122497   2.031   0.658   6.343 -1.5643  2.0223  1.7585
   59MOL   H34222498   1.902   0.558   6.297  0.7854 -0.4648 -1.0559
   59MOL   H34322499   2.034   0.486   6.403  0.5072 -1.1172 -2.2141
   59MOL   C34422500   1.508   0.946   6.716 -0.2737 -0.5421 -0.0360
   59MOL   C34522501   1.430   1.029   6.819  0.5561 -0.2244  0.7950
   59MOL   O34622502   1.307   0.980   6.863  0.1253  0.2155 -0.4131
   59MOL   C34722503   1.224   0.905   6.780  0.3010 -0.2290 -0.1382
   59MOL   C34822504   1.103   0.885   6.866  0.0234 -0.2633  0.4646
   59MOL   C34922505   1.031   1.011   6.919  0.2312  0.3593 -0.4304
   59MOL   C35022506   0.970   0.991   7.054  0.2150 -0.0297 -0.1072
   59MOL   H35122507   1.573   1.014   6.661  1.9472  0.1297  3.2167
   59MOL   H35222508   1.436   0.895   6.652 -0.3334  0.3475 -0.6719
   59MOL   H35322509   1.492   1.036   6.908 -0.3659 -0.0956  1.4410
   59MOL   H35422510   1.259   0.804   6.757 -0.3254 -1.0170  2.2577
   59MOL   H35522511   1.195   0.961   6.691 -1.7125  0.0298  0.6520
   59MOL   H35622512   1.141   0.828   6.951  0.0036  1.2023  1.4918
   59MOL   H35722513   1.047   0.817   6.801 -1.4013  0.0843  1.2925
   59MOL   H35822514   1.095   1.097   6.938 -1.3923  1.1313  1.7525
   59MOL   H35922515   0.965   1.052   6.843 -0.6186 -3.1452 -1.6941
   59MOL   H36022516   1.035   0.967   7.138 -0.7725  1.0487  1.0068
   59MOL   H36122517   0.872   0.944   7.060 -0.1924  0.9085  0.9637
   59MOL   H36222518   0.944   1.091   7.092  3.1327  1.6037 -2.2369
   59MOL   C36322519   1.418   1.179   6.780  0.4287  0.4665 -0.1875
   59MOL   C36422520   1.359   1.259   6.891 -0.4422  0.4187 -0.3163
   59MOL   O36522521   1.376   1.397   6.868  0.2453 -0.1035 -0.2680
   59MOL   C36622522   1.297   1.467   6.965  0.4441  0.6892  0.5059
   59MOL   C36722523   1.179   1.531   6.894  0.4852 -0.3543  0.1225
   59MOL   C36822524   1.203   1.673   6.852  0.2478  0.5219 -0.0508
   59MOL   C36922525   1.083   1.725   6.773 -0.1257  0.1599 -0.2412
   59MOL   H37022526   1.355   1.187   6.691 -0.2521 -1.1884  0.1231
   59MOL   H37122527   1.512   1.224   6.750 -0.1361  3.1245  1.9086
   59MOL   H37222528   1.410   1.227   6.982 -2.4841 -0.8017  0.4306
   59MOL   H37322529   1.367   1.540   7.006  0.2574  1.3913 -0.4212
   59MOL   H37422530   1.267   1.406   7.050  2.9534  0.0881  1.0258
   59MOL   H37522531   1.100   1.538   6.969  0.0214  0.2214 -0.4224
   59MOL   H37622532   1.130   1.469   6.819 -4.4424  1.1072  1.9401
   59MOL   H37722533   1.285   1.663   6.781 -1.1758 -1.0423 -1.5033
   59MOL   H37822534   1.239   1.742   6.929 -0.5145  2.9226 -1.7806
   59MOL   H37922535   1.001   1.744   6.842  0.0675 -3.3394  1.0605
   59MOL   H38022536   1.110   1.814   6.716 -2.5598  0.8811 -0.3239
   59MOL   H38122537   1.054   1.663   6.689 -1.1926  1.5466 -0.9047
   59MOL   H38222538   1.256   1.224   6.896 -0.4221  0.5965  2.2653
   60MOL     C122539   3.435   1.238   5.138  0.0612  0.0141 -0.2044
   60MOL     C222540   3.480   1.201   4.995 -0.1497  0.2110  0.1590
   60MOL     O322541   3.623   1.228   4.993 -0.3441 -0.0026 -0.1121
   60MOL     C422542   3.717   1.123   5.024 -0.6303  0.0967 -0.6078
   60MOL     C522543   3.861   1.188   5.025 -0.1413  0.1539  0.2873
   60MOL     C622544   3.972   1.081   5.068 -0.3778 -0.2705 -0.3004
   60MOL     C722545   4.111   1.143   5.078  0.1199 -1.0633  0.0834
   60MOL     H822546   3.463   1.159   5.207 -1.5963 -1.5346 -1.2525
   60MOL     H922547   3.462   1.341   5.161 -0.4319 -0.2179  1.4106
   60MOL    H1022548   3.422   1.276   4.942 -0.5161 -0.7027 -0.7659
   60MOL    H1122549   3.689   1.092   5.125 -0.8959  0.3742 -0.5966
   60MOL    H1222550   3.711   1.043   4.950 -0.6324  0.1119 -0.6237
   60MOL    H1322551   3.862   1.269   5.098  0.9055  0.1904  0.2387
   60MOL    H1422552   3.881   1.226   4.925  0.2211 -0.0229  0.2943
   60MOL    H1522553   3.961   0.992   5.006 -1.2332 -1.0754  0.9689
   60MOL    H1622554   3.950   1.047   5.170 -0.9351  1.5750  0.2246
   60MOL    H1722555   4.188   1.074   5.113 -0.2529 -0.3337  2.3910
   60MOL    H1822556   4.110   1.227   5.147 -4.7401  0.4198 -1.5837
   60MOL    H1922557   4.136   1.188   4.982  0.4196 -1.7715 -0.1738
   60MOL    H2022558   3.326   1.246   5.137  0.1577  1.4776 -0.6709
   60MOL    C2122559   3.430   1.062   4.954 -0.4091  0.7383 -0.0255
   60MOL    C2222560   3.466   1.033   4.811  0.5878 -0.1349 -0.0887
   60MOL    O2322561   3.464   0.894   4.779 -0.3596 -0.2903 -0.1360
   60MOL    C2422562   3.584   0.849   4.734 -0.2903  0.7405  1.0113
   60MOL    C2522563   3.568   0.715   4.673 -0.3060  0.0190 -0.2448
   60MOL    C2622564   3.705   0.638   4.645  0.1020  0.4681  0.5173
   60MOL    C2722565   3.680   0.493   4.590  0.1441 -0.2432 -0.5061
   60MOL    H2822566   3.322   1.046   4.959 -0.0483 -1.3745  1.4749
   60MOL    H2922567   3.470   0.986   5.021 -0.5598  1.1100  0.4839
   60MOL    H3022568   3.561   1.088   4.805  1.0147 -0.7913  0.5483
   60MOL    H3122569   3.648   0.843   4.822 -0.2012  0.9354  0.9573
   60MOL    H3222570   3.638   0.916   4.668  1.4503  0.5046  2.1688
   60MOL    H3322571   3.504   0.649   4.732  1.3394 -0.3454  1.1758
   60MOL    H3422572   3.518   0.725   4.577  1.9021  0.0987 -1.4144
   60MOL    H3522573   3.773   0.690   4.577  0.2629  0.2657  0.5252
   60MOL    H3622574   3.763   0.622   4.735 -2.9235 -1.2096  2.2494
   60MOL    H3722575   3.662   0.501   4.483 -1.1284 -0.3311 -0.3047
   60MOL    H3822576   3.770   0.432   4.595  0.7648  0.7075  0.2021
   60MOL    H3922577   3.596   0.453   4.647 -0.9316  1.4606 -0.8331
   60MOL    C4022578   3.358   1.096   4.718  0.0565  0.0141 -1.2569
   60MOL    C4122579   3.393   1.094   4.576 -0.4496 -0.4247  0.2490
   60MOL    O4222580   3.516   1.167   4.555  0.8986  0.2148 -0.0474
   60MOL    C4322581   3.600   1.112   4.452  0.2517 -0.5002 -0.0138
   60MOL    C4422582   3.737   1.188   4.467  0.0494  0.0856 -0.4844
   60MOL    C4522583   3.832   1.140   4.567 -0.2547 -0.0690  0.6511
   60MOL    C4622584   3.959   1.227   4.586  0.2157  0.5897 -0.2027
   60MOL    H4722585   3.355   1.202   4.744 -0.6612 -0.6762  1.6301
   60MOL    H4822586   3.261   1.054   4.741  0.6745 -0.4965  0.4737
   60MOL    H4922587   3.408   0.990   4.549 -1.4495 -0.0981 -1.6299
   60MOL    H5022588   3.555   1.124   4.353 -1.7121 -0.9181  0.8129
   60MOL    H5122589   3.610   1.005   4.469  2.0751  0.1028  3.0768
   60MOL    H5222590   3.718   1.294   4.478 -0.6767 -0.1438  0.5411
   60MOL    H5322591   3.785   1.185   4.369  1.3297 -1.6373  0.1631
   60MOL    H5422592   3.859   1.041   4.529  1.9919  0.4102  0.8860
   60MOL    H5522593   3.772   1.124   4.656 -0.0016 -0.1588  0.8071
   60MOL    H5622594   4.018   1.190   4.670 -2.5326 -4.1080 -0.1695
   60MOL    H5722595   4.022   1.241   4.498  1.4917  0.1393  0.6257
   60MOL    H5822596   3.929   1.327   4.618  0.5253  1.4035 -2.3366
   60MOL    C5922597   3.282   1.136   4.482  0.0155 -0.1606 -0.6021
   60MOL    C6022598   3.156   1.040   4.481  0.2426 -0.3519  0.0000
   60MOL    O6122599   3.063   1.050   4.593  0.2246  0.2693  0.1355
   60MOL    C6222600   2.988   0.936   4.620 -1.1243  0.2491  0.3635
   60MOL    C6322601   3.072   0.830   4.696 -0.4078 -0.1627  0.3414
   60MOL    C6422602   3.004   0.705   4.744  0.5888 -0.4873  0.0782
   60MOL    C6522603   3.089   0.605   4.821  0.1362 -0.5971  0.2565
   60MOL    H6622604   3.256   1.238   4.509 -1.1216 -0.2326 -1.3748
   60MOL    H6722605   3.325   1.144   4.382  2.8741 -3.5858  0.2672
   60MOL    H6822606   3.194   0.938   4.482 -2.6723 -1.4571  1.7204
   60MOL    H6922607   2.934   0.894   4.535  0.0554  1.4703 -0.9996
   60MOL    H7022608   2.920   0.975   4.695 -0.3357 -0.0833  1.2653
   60MOL    H7122609   3.160   0.801   4.638 -0.3564 -1.2374  0.9358
   60MOL    H7222610   3.115   0.870   4.788 -0.1888  2.0712 -0.7047
   60MOL    H7322611   2.913   0.728   4.799  0.3271  0.3364 -0.6883
   60MOL    H7422612   2.967   0.658   4.653 -1.9250 -1.3458  1.4783
   60MOL    H7522613   3.192   0.640   4.816  0.5155 -1.9407 -1.9684
   60MOL    H7622614   3.069   0.592   4.927  0.4455 -1.6660  0.1909
   60MOL    H7722615   3.092   0.508   4.771 -0.4011 -0.0040 -0.9383
   60MOL    C7822616   3.067   1.063   4.347 -0.1891  0.2005  0.3839
   60MOL    C7922617   2.978   1.187   4.342  0.4423  0.6804 -0.0515
   60MOL    O8022618   2.857   1.147   4.404 -0.3190  0.6894  0.0703
   60MOL    C8122619   2.805   1.245   4.493  0.1442  0.1444 -0.3127
   60MOL    C8222620   2.685   1.193   4.571 -0.0032 -0.3167  0.0389
   60MOL    C8322621   2.635   1.302   4.679 -0.0557 -0.4194 -0.4712
   60MOL    C8422622   2.504   1.252   4.750 -0.0635  1.3729 -0.5348
   60MOL    H8522623   3.011   0.973   4.322 -1.3181  1.3685 -1.4119
   60MOL    H8622624   3.148   1.066   4.274  1.0182  1.3814  1.7511
   60MOL    H8722625   3.033   1.262   4.399  0.5684  1.4432 -1.1642
   60MOL    H8822626   2.791   1.341   4.443  1.7854  0.2844 -0.5101
   60MOL    H8922627   2.875   1.259   4.575 -0.0748 -1.5331  0.1641
   60MOL    H9022628   2.600   1.179   4.504  0.2650  0.6480 -0.5204
   60MOL    H9122629   2.709   1.102   4.626 -1.1102  0.2825  1.5496
   60MOL    H9222630   2.623   1.389   4.615 -0.4786 -0.3585 -0.3124
   60MOL    H9322631   2.721   1.313   4.745  0.9026  1.1242 -1.9388
   60MOL    H9422632   2.513   1.174   4.826 -0.9946  0.4432 -1.3753
   60MOL    H9522633   2.455   1.333   4.805 -2.9228 -0.9766  0.5277
   60MOL    H9622634   2.425   1.235   4.677  1.7516  1.3547 -2.5343
   60MOL    C9722635   2.942   1.232   4.197 -0.0560 -0.6022 -0.0360
   60MOL    C9822636   2.921   1.381   4.189 -0.4498  0.4031 -0.0401
   60MOL    O9922637   3.038   1.433   4.130 -0.0310 -0.1701 -0.2387
   60MOL   C10022638   3.143   1.455   4.221  0.2819 -0.4473  0.1207
   60MOL   C10122639   3.259   1.521   4.148  0.7139 -0.4140  0.8737
   60MOL   C10222640   3.394   1.485   4.189 -0.0734  0.2224  0.1362
   60MOL   C10322641   3.496   1.581   4.129  0.5381 -0.2513  0.3904
   60MOL   H10422642   2.855   1.177   4.164 -0.3609 -0.7573  1.0125
   60MOL   H10522643   3.007   1.196   4.118  0.3961 -0.6649  0.3591
   60MOL   H10622644   2.902   1.426   4.287 -0.3251 -1.6461  0.9467
   60MOL   H10722645   3.162   1.355   4.261  1.6344 -0.1019  0.3773
   60MOL   H10822646   3.110   1.529   4.294 -1.2642 -0.2995 -0.7020
   60MOL   H10922647   3.252   1.629   4.156 -0.0634 -0.4509  0.7977
   60MOL   H11022648   3.246   1.509   4.040 -2.0044  1.9544  0.8577
   60MOL   H11122649   3.413   1.380   4.168 -0.2209 -0.4327  3.0767
   60MOL   H11222650   3.412   1.486   4.296  0.4527 -0.1926  0.0522
   60MOL   H11322651   3.486   1.568   4.021 -0.5626  1.3387  0.2779
   60MOL   H11422652   3.474   1.683   4.163  0.2333 -0.8393  1.9992
   60MOL   H11522653   3.592   1.552   4.172  0.5994 -1.0473 -0.2853
   60MOL   C11622654   2.823   1.424   4.082  0.1024  0.0180  0.2742
   60MOL   C11722655   2.795   1.573   4.066 -0.2500 -0.3202 -0.0499
   60MOL   O11822656   2.688   1.593   3.971 -0.5118  0.3306 -0.6907
   60MOL   C11922657   2.731   1.623   3.837  0.6720  0.5911  0.0697
   60MOL   C12022658   2.610   1.600   3.736 -0.1682 -0.4058 -0.5509
   60MOL   C12122659   2.537   1.460   3.746 -0.2310  0.3562  0.3553
   60MOL   C12222660   2.642   1.341   3.740 -0.7757 -0.1039 -0.0892
   60MOL   H12322661   2.863   1.385   3.987 -4.3436  0.1012 -1.7418
   60MOL   H12422662   2.735   1.360   4.089 -0.8877  1.0528 -2.0914
   60MOL   H12522663   2.880   1.633   4.031 -2.2942  1.2367 -2.5152
   60MOL   H12622664   2.819   1.565   3.809 -1.2849 -2.3445 -0.2180
   60MOL   H12722665   2.771   1.725   3.833 -1.9000  1.6110 -1.1338
   60MOL   H12822666   2.646   1.632   3.638  2.0238  2.5239  1.1366
   60MOL   H12922667   2.529   1.669   3.758  0.1672 -0.4018  0.6917
   60MOL   H13022668   2.479   1.460   3.838  0.0229  1.7547  0.5294
   60MOL   H13122669   2.462   1.453   3.668 -0.4496 -1.1497  0.6852
   60MOL   H13222670   2.587   1.248   3.732 -2.0071  0.7242 -1.6346
   60MOL   H13322671   2.713   1.325   3.821 -0.5127 -2.4798 -0.7454
   60MOL   H13422672   2.696   1.350   3.645  0.4008  2.4333  0.7623
   60MOL   C13522673   2.732   1.634   4.197 -0.0255  0.1461  0.1990
   60MOL   C13622674   2.827   1.713   4.290 -0.0607  0.3567 -0.3435
   60MOL   O13722675   2.867   1.840   4.235  0.3448 -0.2784  0.1567
   60MOL   C13822676   2.998   1.857   4.186  0.1293  0.2882  0.3341
   60MOL   C13922677   3.082   1.896   4.312 -0.7396 -0.2858  0.9158
   60MOL   C14022678   3.229   1.905   4.277  0.1102 -0.2186 -0.8095
   60MOL   C14122679   3.314   1.951   4.398  0.5713 -0.1281  0.2469
   60MOL   H14222680   2.676   1.556   4.250 -0.6996  1.7162  1.8679
   60MOL   H14322681   2.653   1.703   4.170 -2.0037 -2.2778 -0.4241
   60MOL   H14422682   2.914   1.654   4.319 -0.0307 -0.5863 -2.2748
   60MOL   H14522683   2.999   1.946   4.123 -0.3900 -1.5424 -2.3642
   60MOL   H14622684   3.033   1.775   4.123 -0.4646  0.7854 -0.6485
   60MOL   H14722685   3.063   1.828   4.395 -0.5183  1.9678  2.8500
   60MOL   H14822686   3.049   1.991   4.353  0.5712 -0.5411  2.5951
   60MOL   H14922687   3.266   1.806   4.250  0.0391  0.0234 -1.8133
   60MOL   H15022688   3.239   1.982   4.201  1.6097  0.0994 -0.3092
   60MOL   H15122689   3.420   1.933   4.380  0.8138 -0.7324  2.1124
   60MOL   H15222690   3.295   2.057   4.417 -1.2216 -0.2735 -0.6585
   60MOL   H15322691   3.286   1.904   4.492 -1.3031  1.7942  0.6942
   60MOL   C15422692   2.746   1.749   4.419 -0.8185  0.6367 -0.7528
   60MOL   C15522693   2.832   1.762   4.551  0.1883 -1.5441 -0.1568
   60MOL   O15622694   2.917   1.654   4.571  0.1526 -0.2913 -1.1924
   60MOL   C15722695   3.038   1.682   4.652  0.2748  0.8464  0.0921
   60MOL   C15822696   3.139   1.558   4.660 -0.1256  0.4437  0.2777
   60MOL   C15922697   3.083   1.438   4.732  0.1451  0.4424 -0.3872
   60MOL   C16022698   3.097   1.453   4.884  0.2037  0.3146 -0.0847
   60MOL   H16122699   2.675   1.668   4.434 -0.8649  0.7809 -0.1548
   60MOL   H16222700   2.686   1.838   4.397 -1.1282  0.6294  0.0278
   60MOL   H16322701   2.882   1.858   4.534 -0.3364 -1.0475  1.0268
   60MOL   H16422702   3.087   1.775   4.623  1.5091  0.0079 -0.5650
   60MOL   H16522703   2.997   1.700   4.751 -2.4424 -3.6730 -0.0924
   60MOL   H16622704   3.231   1.584   4.711  0.9006 -5.3155  1.7685
   60MOL   H16722705   3.174   1.519   4.564 -0.1341  0.3850  0.2981
   60MOL   H16822706   2.976   1.429   4.713  0.1913  2.2250 -1.5849
   60MOL   H16922707   3.138   1.350   4.698 -1.9708 -0.2570 -2.1310
   60MOL   H17022708   3.050   1.368   4.932 -0.0012 -0.0056 -0.8454
   60MOL   H17122709   3.202   1.437   4.912 -0.1761 -2.0943  0.0702
   60MOL   H17222710   3.055   1.548   4.918 -0.4902  0.6609 -1.8710
   60MOL   C17322711   2.747   1.781   4.682  0.1452  0.6653  0.1964
   60MOL   C17422712   2.689   1.921   4.707 -0.3540  0.7363  0.3800
   60MOL   O17522713   2.788   2.021   4.691  0.1181 -0.3470 -0.7715
   60MOL   C17622714   2.849   2.060   4.807 -0.5449  0.2505  0.3276
   60MOL   C17722715   2.953   2.159   4.775 -0.0918  0.0055  0.1678
   60MOL   C17822716   3.061   2.102   4.691 -0.5753  0.0186 -0.1521
   60MOL   C17922717   3.175   2.203   4.657  0.2713 -0.6544  0.7500
   60MOL   H18022718   2.820   1.762   4.760 -0.9809  0.3748  1.1897
   60MOL   H18122719   2.678   1.696   4.678  2.2017 -1.1018  0.9849
   60MOL   H18222720   2.650   1.909   4.808 -1.6934 -2.8296 -0.4664
   60MOL   H18322721   2.896   1.976   4.858  1.1335  0.1539 -1.3448
   60MOL   H18422722   2.778   2.109   4.873 -0.3894  2.3790 -1.0465
   60MOL   H18522723   3.003   2.190   4.867 -1.3677  2.0148  0.2065
   60MOL   H18622724   2.914   2.249   4.728  1.0431 -0.1184 -1.0324
   60MOL   H18722725   3.114   2.019   4.736 -0.2720 -0.9700 -2.2734
   60MOL   H18822726   3.016   2.063   4.600 -2.0200 -0.7824  0.8680
   60MOL   H18922727   3.262   2.156   4.612  1.9309 -0.0919  3.2721
   60MOL   H19022728   3.129   2.284   4.601  1.6647  0.9964  1.9267
   60MOL   H19122729   3.213   2.254   4.745 -2.1338  1.1329  0.8079
   60MOL   C19222730   2.570   1.966   4.619  0.2530 -0.1861 -0.1321
   60MOL   C19322731   2.442   1.873   4.616  0.1530  0.3782  0.3787
   60MOL   O19422732   2.388   1.887   4.750  0.3579  1.0633 -0.5983
   60MOL   C19522733   2.308   1.782   4.801  1.1108 -0.7095  0.2775
   60MOL   C19622734   2.383   1.659   4.840 -0.0678 -0.1279  0.0697
   60MOL   C19722735   2.489   1.686   4.952 -0.3128 -0.3434 -0.5039
   60MOL   C19822736   2.600   1.578   4.975  0.1382 -0.4901 -0.7489
   60MOL   H19922737   2.605   1.973   4.516  0.1433 -0.1814 -0.1695
   60MOL   H20022738   2.534   2.069   4.622 -1.6135 -0.7234 -2.3364
   60MOL   H20122739   2.465   1.767   4.610  1.3679  0.7056 -1.0194
   60MOL   H20222740   2.231   1.756   4.729  0.1603  3.7456 -0.4648
   60MOL   H20322741   2.264   1.834   4.886  2.6264 -0.4976  0.9498
   60MOL   H20422742   2.310   1.588   4.879 -2.1256  2.2294  0.6660
   60MOL   H20522743   2.435   1.609   4.759 -1.7960 -1.2763 -0.3457
   60MOL   H20622744   2.435   1.714   5.043  1.5660 -1.0730  0.8707
   60MOL   H20722745   2.545   1.775   4.923  0.9820 -0.5942  1.1753
   60MOL   H20822746   2.673   1.560   4.896  0.8074 -1.5917  0.1062
   60MOL   H20922747   2.660   1.597   5.064 -1.2927  0.1828  0.0968
   60MOL   H21022748   2.551   1.481   4.992  0.1050 -0.0212  2.0310
   60MOL   C21122749   2.342   1.918   4.510  0.6077  0.3632  0.3619
   60MOL   C21222750   2.367   1.888   4.357 -0.3334  0.1691  0.0568
   60MOL   O21322751   2.304   1.761   4.341 -0.6195 -0.4592 -0.2869
   60MOL   C21422752   2.399   1.659   4.321  0.0287  0.1063 -0.2563
   60MOL   C21522753   2.337   1.535   4.273 -0.0961  0.3363 -0.9475
   60MOL   C21622754   2.301   1.460   4.394 -0.1688 -1.0487 -0.6619
   60MOL   C21722755   2.168   1.505   4.465 -0.1287  0.2150  0.1752
   60MOL   H21822756   2.329   2.026   4.518 -2.0050  0.0776  0.2176
   60MOL   H21922757   2.239   1.891   4.531  0.6111  0.1612  0.1273
   60MOL   H22022758   2.476   1.887   4.350 -0.4103  1.1400 -1.3628
   60MOL   H22122759   2.471   1.690   4.245  2.6999 -2.8270  0.9396
   60MOL   H22222760   2.469   1.653   4.404  1.8905  0.6153 -1.7548
   60MOL   H22322761   2.250   1.567   4.216 -0.7657 -0.3951 -0.3393
   60MOL   H22422762   2.418   1.498   4.210 -0.4519  0.4049 -1.4521
   60MOL   H22522763   2.381   1.448   4.467 -0.5560  1.1257  0.1687
   60MOL   H22622764   2.269   1.361   4.364 -1.2227 -0.7488 -0.5658
   60MOL   H22722765   2.086   1.499   4.393  0.7245 -0.5489 -0.7292
   60MOL   H22822766   2.176   1.608   4.502  0.0718  0.0713  0.5362
   60MOL   H22922767   2.146   1.433   4.544  0.6536  1.0927  1.2041
   60MOL   C23022768   2.313   1.986   4.258  0.3721 -0.3460  0.0523
   60MOL   C23122769   2.383   2.125   4.257 -0.1015  0.7006 -0.1483
   60MOL   O23222770   2.522   2.117   4.231 -0.6520  0.0881 -0.0185
   60MOL   C23322771   2.578   2.047   4.120 -0.2354  0.1137  0.9303
   60MOL   C23422772   2.701   2.125   4.070  0.0018  0.2635  0.0130
   60MOL   C23522773   2.760   2.070   3.936 -0.6053 -0.0880 -0.4380
   60MOL   C23622774   2.656   2.075   3.821 -0.1851  0.2254  0.1917
   60MOL   H23722775   2.208   2.007   4.279  0.4885 -0.0018  0.2984
   60MOL   H23822776   2.321   1.951   4.155  0.7686  1.0064 -0.3869
   60MOL   H23922777   2.393   2.163   4.358  1.9481 -0.4860  0.1181
   60MOL   H24022778   2.599   1.944   4.150 -0.5449 -0.1555  0.2222
   60MOL   H24122779   2.505   2.042   4.039  0.9164 -1.1891 -0.0451
   60MOL   H24222780   2.671   2.229   4.059  0.3701  0.3380 -0.3076
   60MOL   H24322781   2.772   2.123   4.152  0.1721 -0.7138 -0.1481
   60MOL   H24422782   2.798   1.970   3.955 -0.6502  0.2232  1.4354
   60MOL   H24522783   2.846   2.131   3.909 -1.3880  0.1635 -2.4885
   60MOL   H24622784   2.586   1.995   3.842  0.5479 -0.8873 -1.5653
   60MOL   H24722785   2.707   2.051   3.728  0.7339 -0.2220  0.7991
   60MOL   H24822786   2.604   2.170   3.809 -0.9044 -0.2233 -0.2400
   60MOL   C24922787   2.316   2.216   4.154  0.2399  0.2495  0.1145
   60MOL   C25022788   2.379   2.354   4.153 -0.7727 -0.4354 -0.6735
   60MOL   O25122789   2.343   2.420   4.274  0.1029  0.1208 -0.7985
   60MOL   C25222790   2.445   2.508   4.326 -0.3156  0.2795 -0.2897
   60MOL   C25322791   2.381   2.589   4.435  0.2841 -0.1550  0.0628
   60MOL   C25422792   2.468   2.696   4.499  0.1621  0.1590 -0.6258
   60MOL   C25522793   2.383   2.780   4.602 -0.5301 -0.1483 -0.5960
   60MOL   H25622794   2.212   2.229   4.183 -0.4477 -1.6891 -1.3054
   60MOL   H25722795   2.315   2.167   4.056  0.6856 -3.0513  1.7050
   60MOL   H25822796   2.488   2.344   4.149 -0.6943  0.1109 -0.0965
   60MOL   H25922797   2.499   2.557   4.245 -0.0474 -1.4382 -1.1752
   60MOL   H26022798   2.517   2.443   4.377 -1.6696 -0.5332  0.6109
   60MOL   H26122799   2.292   2.631   4.389  1.2082  3.3644  1.3005
   60MOL   H26222800   2.351   2.521   4.516  1.1899 -0.9625 -0.2700
   60MOL   H26322801   2.551   2.651   4.554  0.3814 -0.2418 -1.2849
   60MOL   H26422802   2.504   2.762   4.420 -0.5909  0.6226 -0.5882
   60MOL   H26522803   2.433   2.869   4.640 -0.0576 -0.8460  0.4531
   60MOL   H26622804   2.366   2.725   4.695  2.8769 -2.9340 -1.5087
   60MOL   H26722805   2.287   2.820   4.568 -0.8527 -1.1001 -0.8217
   60MOL   C26822806   2.329   2.435   4.035 -0.3711 -0.6414  0.1032
   60MOL   C26922807   2.402   2.563   3.996 -0.1092 -0.2008 -0.4210
   60MOL   O27022808   2.521   2.538   3.925 -0.3439  0.2036 -0.2075
   60MOL   C27122809   2.646   2.558   3.987 -0.3078  0.0960  0.1775
   60MOL   C27222810   2.769   2.560   3.900 -0.3414 -0.0628  0.1042
   60MOL   C27322811   2.765   2.645   3.774 -0.0406  0.0874  0.0608
   60MOL   C27422812   2.751   2.792   3.818  0.1740  0.5186 -0.2981
   60MOL   H27522813   2.336   2.370   3.947 -0.9614 -0.7467  0.1302
   60MOL   H27622814   2.225   2.457   4.060 -0.4218 -0.2238 -0.4885
   60MOL   H27722815   2.407   2.636   4.077 -2.1582  0.0711 -0.5164
   60MOL   H27822816   2.645   2.649   4.047  1.6350  0.9633 -1.0497
   60MOL   H27922817   2.667   2.480   4.059 -0.6742 -0.3630 -0.2043
   60MOL   H28022818   2.854   2.603   3.955 -0.6123  1.2953 -0.5310
   60MOL   H28122819   2.798   2.458   3.878  0.2501  0.2149 -0.4128
   60MOL   H28222820   2.680   2.613   3.713  1.4824 -2.0613 -1.0354
   60MOL   H28322821   2.856   2.627   3.717  0.0727  0.3330  0.1654
   60MOL   H28422822   2.676   2.801   3.897 -0.8510 -0.9187 -1.0908
   60MOL   H28522823   2.735   2.868   3.742  2.4625  0.0978 -1.2215
   60MOL   H28622824   2.845   2.817   3.867  0.0778 -0.6701  0.5226
   60MOL   C28722825   2.316   2.630   3.888 -0.2360  0.6341 -0.2294
   60MOL   C28822826   2.348   2.778   3.855  0.1091 -0.0261  0.3714
   60MOL   O28922827   2.326   2.849   3.971 -0.2367 -1.0176  0.5271
   60MOL   C29022828   2.441   2.931   4.023 -0.1870  0.3783 -0.2461
   60MOL   C29122829   2.405   2.999   4.152 -0.2236  0.0522  0.5085
   60MOL   C29222830   2.522   3.077   4.219 -0.2806 -0.1933 -0.0843
   60MOL   C29322831   2.478   3.147   4.346 -0.4867 -0.3954  0.0355
   60MOL   H29422832   2.210   2.624   3.915  0.0556 -1.3341  0.5176
   60MOL   H29522833   2.329   2.575   3.795 -1.6760 -1.3160  0.6739
   60MOL   H29622834   2.447   2.783   3.808 -0.3837  2.1893 -0.4998
   60MOL   H29722835   2.533   2.875   4.037 -0.3512 -0.4310 -2.2598
   60MOL   H29822836   2.467   3.007   3.949  0.6543  0.2982 -0.0308
   60MOL   H29922837   2.372   2.917   4.216 -1.2362  1.8535  2.3433
   60MOL   H30022838   2.318   3.061   4.129  0.0170  0.7262  1.4021
   60MOL   H30122839   2.558   3.153   4.150 -0.3063 -0.8128 -0.7860
   60MOL   H30222840   2.610   3.020   4.247 -0.4782 -0.4224  0.0695
   60MOL   H30322841   2.447   3.249   4.323  0.4520 -0.3121 -0.8696
   60MOL   H30422842   2.391   3.098   4.391  0.9548 -0.2306  3.0668
   60MOL   H30522843   2.558   3.145   4.420 -2.1758  0.6696  1.9324
   60MOL   C30622844   2.247   2.814   3.741 -0.1550  0.9633  0.0932
   60MOL   C30722845   2.267   2.938   3.660  1.1530  0.9291  0.2493
   60MOL   O30822846   2.152   2.994   3.607  0.1743  0.0170 -0.0220
   60MOL   C30922847   2.076   3.082   3.690  0.5833 -0.3538 -0.5192
   60MOL   C31022848   2.138   3.219   3.707 -0.0713 -0.5831  0.2655
   60MOL   C31122849   2.090   3.284   3.844 -0.1766  0.1221 -0.0030
   60MOL   C31222850   2.157   3.418   3.863 -0.2847 -0.4668 -0.2438
   60MOL   H31322851   2.242   2.732   3.670 -2.3042 -0.3740  1.7484
   60MOL   H31422852   2.147   2.817   3.784  0.1354  0.6652  0.7971
   60MOL   H31522853   2.318   3.004   3.730 -0.5958  1.9008  0.6360
   60MOL   H31622854   2.047   3.033   3.783  0.8671  1.2903  0.4637
   60MOL   H31722855   1.987   3.092   3.628  0.7494  1.6608 -0.4780
   60MOL   H31822856   2.102   3.285   3.628  0.8199 -0.3646  0.0298
   60MOL   H31922857   2.247   3.220   3.710 -0.0857  0.6457  1.2517
   60MOL   H32022858   1.981   3.279   3.836 -0.0873 -0.5101 -0.7698
   60MOL   H32122859   2.119   3.213   3.921  0.6505  1.3857  0.8743
   60MOL   H32222860   2.262   3.406   3.890 -0.2571  1.6818  0.6762
   60MOL   H32322861   2.098   3.465   3.941  0.9364 -1.1697  1.1123
   60MOL   H32422862   2.159   3.474   3.769 -1.9775 -0.0165 -0.0265
   60MOL   C32522863   2.373   2.901   3.547 -0.3666  0.2558 -0.0877
   60MOL   C32622864   2.425   3.023   3.474  0.5901 -0.3840  0.1708
   60MOL   O32722865   2.448   3.138   3.555 -0.1675 -0.0824 -0.6172
   60MOL   C32822866   2.535   3.127   3.664  0.5411  0.1569  0.7572
   60MOL   C32922867   2.514   3.237   3.764  0.1895 -0.5050 -0.1412
   60MOL   C33022868   2.633   3.238   3.862  0.3214  0.7678 -0.3916
   60MOL   C33122869   2.614   3.343   3.980  0.3645  0.1949 -0.7562
   60MOL   H33222870   2.327   2.833   3.476 -0.6831  2.2684 -1.8453
   60MOL   H33322871   2.457   2.845   3.587 -0.5959 -1.1518 -1.5468
   60MOL   H33422872   2.340   3.057   3.414 -0.4383 -0.7850  1.3726
   60MOL   H33522873   2.636   3.140   3.624 -0.6115  2.9531 -1.3562
   60MOL   H33622874   2.538   3.026   3.706 -1.0669 -0.2895 -0.1728
   60MOL   H33722875   2.506   3.337   3.724 -1.7969 -1.3858 -2.0211
   60MOL   H33822876   2.421   3.220   3.818 -0.0199 -0.2927 -0.4375
   60MOL   H33922877   2.725   3.271   3.814  0.4675  0.2635 -0.4589
   60MOL   H34022878   2.648   3.135   3.895 -1.4618  0.3809 -0.7401
   60MOL   H34122879   2.623   3.449   3.959  0.0677  0.2048 -0.8405
   60MOL   H34222880   2.685   3.310   4.056 -0.2666  1.3201  0.3488
   60MOL   H34322881   2.510   3.338   4.013  0.4724  2.3423 -0.0272
   60MOL   C34422882   2.543   2.999   3.384 -0.0097  0.2636 -0.3587
   60MOL   C34522883   2.521   2.897   3.268  0.3673  0.1007 -0.1481
   60MOL   O34622884   2.529   2.766   3.316 -0.2356 -0.0226  0.2353
   60MOL   C34722885   2.433   2.676   3.250  0.0602  0.5563 -0.3273
   60MOL   C34822886   2.448   2.537   3.312  0.4349 -0.1027  0.3210
   60MOL   C34922887   2.471   2.542   3.459 -0.2258  0.2174  0.1415
   60MOL   C35022888   2.491   2.409   3.531 -0.0625  0.5347 -0.2401
   60MOL   H35122889   2.591   3.091   3.349  0.6431  0.1974  0.3585
   60MOL   H35222890   2.621   2.957   3.446 -1.7414  1.1102  2.4667
   60MOL   H35322891   2.420   2.910   3.229  0.2694  3.2908  1.0132
   60MOL   H35422892   2.453   2.652   3.145 -0.0683  2.5498 -0.8331
   60MOL   H35522893   2.333   2.716   3.264  0.3428  1.2136 -0.1734
   60MOL   H35622894   2.530   2.485   3.261 -1.4832 -3.1212  0.1675
   60MOL   H35722895   2.363   2.475   3.285  0.3434  1.3944 -3.0119
   60MOL   H35822896   2.560   2.595   3.492  0.4166 -0.0070 -1.1745
   60MOL   H35922897   2.389   2.589   3.514 -0.8583  0.4045 -0.9283
   60MOL   H36022898   2.410   2.336   3.536 -1.8613  2.4190 -0.8556
   60MOL   H36122899   2.505   2.425   3.637  1.8577 -0.2412 -0.3509
   60MOL   H36222900   2.585   2.364   3.500 -0.1705 -0.8036  1.3193
   60MOL   C36322901   2.623   2.926   3.167 -0.6266 -0.3365 -0.2274
   60MOL   C36422902   2.623   2.814   3.057  0.1297 -0.0954 -0.1902
   60MOL   O36522903   2.678   2.860   2.939 -0.0824 -0.4625  1.2066
   60MOL   C36622904   2.676   2.768   2.824 -0.2854 -0.3626  0.7221
   60MOL   C36722905   2.741   2.836   2.701 -0.7649  0.4172 -0.2924
   60MOL   C36822906   2.897   2.858   2.708  0.1448  0.4972  0.0334
   60MOL   C36922907   2.979   2.733   2.664  0.0255  0.4001 -0.1463
   60MOL   H37022908   2.717   2.941   3.221  0.0804 -1.6257 -1.0814
   60MOL   H37122909   2.610   3.021   3.117  1.1417  0.6584  1.1430
   60MOL   H37222910   2.519   2.796   3.029  0.3834 -1.0103 -0.5799
   60MOL   H37322911   2.574   2.740   2.799  0.0031 -1.5947  0.9002
   60MOL   H37422912   2.740   2.684   2.850  0.6517 -0.4236 -1.6501
   60MOL   H37522913   2.707   2.937   2.676 -0.5169  0.1918 -1.5852
   60MOL   H37622914   2.717   2.769   2.618  2.4411 -2.5108  1.0530
   60MOL   H37722915   2.925   2.890   2.808  0.8885  0.6347 -0.2147
   60MOL   H37822916   2.924   2.942   2.643 -0.1734  0.0318 -0.7102
   60MOL   H37922917   3.079   2.777   2.652 -0.5805  1.6979 -0.5519
   60MOL   H38022918   2.963   2.647   2.729 -2.2571 -0.1512 -1.3920
   60MOL   H38122919   2.945   2.705   2.565  1.5768  1.1035 -0.9055
   60MOL   H38222920   2.659   2.719   3.095  1.8381 -0.4371 -2.5744
   61MOL     C122921   6.178   4.762   5.474  0.0138 -0.3539  0.2792
   61MOL     C222922   6.247   4.630   5.447 -0.2135  0.3188 -0.1373
   61MOL     O322923   6.209   4.611   5.311  0.1888 -1.0192 -0.5700
   61MOL     C422924   6.104   4.515   5.300  0.0659 -0.6656  0.1113
   61MOL     C522925   6.062   4.506   5.146  0.0766  0.2768 -0.3409
   61MOL     C622926   5.999   4.645   5.101  0.2527  0.1014 -0.0830
   61MOL     C722927   5.917   4.625   4.975 -0.2485 -0.5879 -0.1053
   61MOL     H822928   6.074   4.764   5.440  0.4999 -1.7849 -1.3615
   61MOL     H922929   6.155   4.777   5.580  1.6123 -0.4263  0.6414
   61MOL    H1022930   6.203   4.561   5.519  1.4022 -1.2274 -0.5824
   61MOL    H1122931   6.154   4.423   5.330  4.2016  1.9152  1.5140
   61MOL    H1222932   6.019   4.530   5.366  2.1237 -1.7633  3.0965
   61MOL    H1322933   6.010   4.413   5.124  0.5132  0.9536 -4.5944
   61MOL    H1422934   6.156   4.502   5.091 -0.7599  1.6767 -1.8983
   61MOL    H1522935   6.075   4.720   5.078  0.4373 -0.0542  0.0167
   61MOL    H1622936   5.944   4.693   5.182 -2.6692  1.8535 -2.9774
   61MOL    H1722937   5.833   4.559   4.996 -2.1849  1.9165  0.2723
   61MOL    H1822938   5.965   4.577   4.890 -3.1745 -1.2664 -1.4188
   61MOL    H1922939   5.879   4.722   4.941 -0.9421  0.0271  2.2951
   61MOL    H2022940   6.230   4.840   5.420  0.0302  0.8433  1.9703
   61MOL    C2122941   6.402   4.632   5.467 -0.1081  0.0211  0.2404
   61MOL    C2222942   6.491   4.511   5.422 -0.1279 -0.2577  0.2115
   61MOL    O2322943   6.624   4.535   5.473  0.4799  0.3893 -0.0791
   61MOL    C2422944   6.703   4.610   5.387 -0.5763  0.0127  0.4422
   61MOL    C2522945   6.830   4.663   5.449 -0.4250 -0.5901  0.1044
   61MOL    C2622946   6.949   4.566   5.478 -0.4325  0.5261 -0.2696
   61MOL    C2722947   7.048   4.638   5.573  0.5756  0.4077  0.1206
   61MOL    H2822948   6.426   4.651   5.572 -1.2153 -1.6838  0.8274
   61MOL    H2922949   6.440   4.719   5.412 -0.8804  0.3579  0.2320
   61MOL    H3022950   6.481   4.500   5.314  1.6961  1.5276 -0.1624
   61MOL    H3122951   6.655   4.703   5.358 -0.3375  0.6872  2.1514
   61MOL    H3222952   6.733   4.558   5.296  0.6313  0.7563  0.4116
   61MOL    H3322953   6.883   4.734   5.385  0.2275  0.1603  1.4580
   61MOL    H3422954   6.801   4.702   5.547 -0.4621  0.4532 -0.3100
   61MOL    H3522955   6.924   4.471   5.524  1.3599  0.9968  1.7896
   61MOL    H3622956   6.995   4.539   5.383 -1.6594  0.7793 -0.9463
   61MOL    H3722957   6.997   4.688   5.655  0.7604 -1.0516  1.1524
   61MOL    H3822958   7.111   4.562   5.620 -1.1303 -0.5089  0.9528
   61MOL    H3922959   7.115   4.707   5.522 -1.4091  1.6522 -0.8593
   61MOL    C4022960   6.444   4.380   5.486  0.1193 -0.4346  0.6440
   61MOL    C4122961   6.520   4.243   5.442 -0.0718 -1.0157 -0.2135
   61MOL    O4222962   6.471   4.208   5.312  0.1791 -0.0631 -0.1964
   61MOL    C4322963   6.565   4.213   5.207 -0.1925  0.0995  0.7032
   61MOL    C4422964   6.481   4.191   5.077 -0.0813  0.1223  0.4591
   61MOL    C4522965   6.370   4.296   5.054 -0.1644 -0.1611 -0.2112
   61MOL    C4622966   6.253   4.248   4.964  0.0784  0.5275  0.5652
   61MOL    H4722967   6.336   4.375   5.474  0.2171 -0.6137 -0.1587
   61MOL    H4822968   6.461   4.383   5.594 -0.6779 -2.2195  0.8460
   61MOL    H4922969   6.628   4.248   5.452 -0.1456  2.0215 -0.3150
   61MOL    H5022970   6.626   4.125   5.231  1.0308  1.3729  2.3475
   61MOL    H5122971   6.621   4.305   5.220 -0.1480 -0.1405  2.3088
   61MOL    H5222972   6.443   4.089   5.085  3.0026 -1.1876 -0.6450
   61MOL    H5322973   6.540   4.179   4.986  1.7321  0.5464  1.5633
   61MOL    H5422974   6.414   4.386   5.011 -0.0611 -0.1511 -0.0844
   61MOL    H5522975   6.334   4.341   5.146  0.4749  1.2980 -0.6619
   61MOL    H5622976   6.192   4.334   4.938  1.4557  1.0886 -0.8630
   61MOL    H5722977   6.285   4.202   4.870 -1.6820  1.5806 -0.5871
   61MOL    H5822978   6.198   4.179   5.029  1.2730 -1.6108 -0.6425
   61MOL    C5922979   6.480   4.124   5.520 -0.3159  0.0934  0.0948
   61MOL    C6022980   6.543   4.105   5.660  0.1710  0.1689  0.1123
   61MOL    O6122981   6.477   3.996   5.719  0.4683  0.6134 -0.4924
   61MOL    C6222982   6.393   4.034   5.831 -0.4611  0.2212  0.6578
   61MOL    C6322983   6.344   3.901   5.893  0.0629  0.8713  0.0399
   61MOL    C6422984   6.234   3.900   5.998  0.0940 -0.4143  0.0778
   61MOL    C6522985   6.178   3.768   6.018  0.2194  0.2402 -0.0891
   61MOL    H6622986   6.371   4.117   5.517 -0.3547 -0.0659  1.4457
   61MOL    H6722987   6.513   4.036   5.465  2.6277  0.6623  0.8634
   61MOL    H6822988   6.506   4.187   5.721 -2.3785 -1.9586  1.5191
   61MOL    H6922989   6.313   4.102   5.802 -0.3716 -1.0895 -2.8844
   61MOL    H7022990   6.447   4.090   5.907  0.3025  1.5595 -0.8647
   61MOL    H7122991   6.310   3.843   5.808  0.0860  0.4284  0.3277
   61MOL    H7222992   6.433   3.856   5.937  1.4583  0.4553 -3.1356
   61MOL    H7322993   6.269   3.950   6.089 -1.2819 -0.1120  0.4556
   61MOL    H7422994   6.162   3.971   5.958  0.0644  0.4634  1.6537
   61MOL    H7522995   6.233   3.706   6.089 -2.2671 -0.8242  0.9361
   61MOL    H7622996   6.076   3.777   6.053  0.8991 -1.4994  2.5629
   61MOL    H7722997   6.167   3.717   5.922 -0.6725  0.1455  0.0581
   61MOL    C7822998   6.693   4.081   5.661  0.0446 -0.0190  0.1138
   61MOL    C7922999   6.737   4.047   5.812  0.1998  0.9272 -0.2443
   61MOL    O8023000   6.871   4.103   5.827  0.0280  0.4254  0.2053
   61MOL    C8123001   6.890   4.246   5.831 -0.2671  0.3837 -0.2189
   61MOL    C8223002   7.037   4.269   5.877 -0.2818  0.1861  0.2126
   61MOL    C8323003   7.147   4.253   5.773  0.0486 -0.1288  0.2844
   61MOL    C8423004   7.283   4.237   5.855  0.0410  0.1417 -0.1646
   61MOL    H8523005   6.747   4.164   5.616  0.3616 -0.5578 -0.5105
   61MOL    H8623006   6.714   3.992   5.602  4.0895  1.7084 -1.1949
   61MOL    H8723007   6.678   4.120   5.867  0.5586  2.4076 -1.8034
   61MOL    H8823008   6.816   4.279   5.903 -0.2377  0.3288 -0.1626
   61MOL    H8923009   6.859   4.303   5.743 -3.7298  2.1058  2.0340
   61MOL    H9023010   7.040   4.371   5.916  0.0050  1.1484 -2.2170
   61MOL    H9123011   7.060   4.196   5.954 -1.0749  0.8582  1.0926
   61MOL    H9223012   7.162   4.347   5.720 -0.5477  1.3246  2.5974
   61MOL    H9323013   7.135   4.172   5.701 -0.4494 -0.7614  1.0715
   61MOL    H9423014   7.276   4.306   5.938  0.5154  1.2156 -1.0085
   61MOL    H9523015   7.306   4.142   5.904  0.6600 -0.2445 -1.1725
   61MOL    H9623016   7.376   4.273   5.811  1.7655 -1.0461  2.3801
   61MOL    C9723017   6.739   3.897   5.855 -1.0164  0.2238  0.7096
   61MOL    C9823018   6.751   3.874   6.007 -0.2129 -0.1219  0.2297
   61MOL    O9923019   6.754   3.734   6.042  0.2079 -0.3497  0.5025
   61MOL   C10023020   6.630   3.672   6.052  0.1460  0.0175  0.4935
   61MOL   C10123021   6.656   3.524   6.071 -0.4761  0.4618  0.4517
   61MOL   C10223022   6.765   3.488   6.179 -0.2680 -0.2545  0.1971
   61MOL   C10323023   6.799   3.342   6.203  0.0182  0.1092 -0.1483
   61MOL   H10423024   6.827   3.848   5.811 -0.9860  2.1508 -1.4456
   61MOL   H10523025   6.656   3.836   5.820 -1.3557  0.3249  1.3364
   61MOL   H10623026   6.664   3.913   6.061  0.5036 -0.6133  1.7653
   61MOL   H10723027   6.585   3.693   5.955  3.9083  0.2146 -1.3100
   61MOL   H10823028   6.570   3.714   6.133 -0.6747 -0.2060  0.0062
   61MOL   H10923029   6.679   3.488   5.971  0.5650  0.3883  0.7137
   61MOL   H11023030   6.559   3.484   6.100 -0.6990  0.6940  0.0247
   61MOL   H11123031   6.737   3.546   6.267 -1.9059 -1.0363  0.2195
   61MOL   H11223032   6.857   3.531   6.141 -0.6806 -0.1808 -0.7373
   61MOL   H11323033   6.851   3.315   6.110  0.5877  0.4949  0.0532
   61MOL   H11423034   6.876   3.319   6.276 -0.2873 -1.1436 -0.2121
   61MOL   H11523035   6.711   3.281   6.222  0.8207 -0.7410  0.8852
   61MOL   C11623036   6.871   3.941   6.068  0.5414  0.0053 -0.1045
   61MOL   C11723037   6.905   3.902   6.217 -0.4618 -0.0340 -0.4383
   61MOL   O11823038   7.002   3.995   6.261  0.3184 -0.0030  0.0255
   61MOL   C11923039   7.133   3.965   6.204  0.3329 -0.1224  0.8663
   61MOL   C12023040   7.252   4.017   6.286  0.0725 -0.0839 -0.1562
   61MOL   C12123041   7.266   4.171   6.295 -0.4239 -0.3944  0.4523
   61MOL   C12223042   7.399   4.230   6.340 -0.1489 -0.7496 -0.0390
   61MOL   H12323043   6.961   3.907   6.016  0.3015 -0.1506 -0.4213
   61MOL   H12423044   6.871   4.050   6.062  1.9788  0.0950  1.2808
   61MOL   H12523045   6.950   3.803   6.217  0.3206  0.2991  1.0802
   61MOL   H12623046   7.128   4.005   6.103 -0.1677 -2.5172 -0.1059
   61MOL   H12723047   7.150   3.859   6.183  1.1731  0.1508  0.1587
   61MOL   H12823048   7.349   3.974   6.259  0.1408 -0.6319  0.9507
   61MOL   H12923049   7.231   3.982   6.387 -2.0373 -0.4462 -0.6996
   61MOL   H13023050   7.253   4.206   6.193 -2.0158 -0.2580  0.6990
   61MOL   H13123051   7.184   4.205   6.358  0.1501 -3.3245  2.8962
   61MOL   H13223052   7.485   4.182   6.294  0.5948 -0.2102  0.7906
   61MOL   H13323053   7.411   4.223   6.448  0.6515 -2.4047 -0.2273
   61MOL   H13423054   7.394   4.334   6.308 -3.7865 -0.7529  0.2379
   61MOL   C13523055   6.786   3.900   6.308 -0.0957 -0.1526 -0.5600
   61MOL   C13623056   6.816   3.876   6.456  0.1357 -0.5431 -0.8083
   61MOL   O13723057   6.709   3.925   6.539  0.0813  0.1794  0.0075
   61MOL   C13823058   6.729   4.039   6.608  0.2324 -1.2970  0.6774
   61MOL   C13923059   6.620   4.136   6.564  0.4127  0.2687 -0.2856
   61MOL   C14023060   6.632   4.285   6.616  0.1244  0.5806  0.4367
   61MOL   C14123061   6.578   4.398   6.520 -0.5134  0.0749 -0.5919
   61MOL   H14223062   6.708   3.832   6.272 -1.1394  0.8358 -0.1851
   61MOL   H14323063   6.735   3.995   6.292  2.0308  0.8625 -1.4759
   61MOL   H14423064   6.910   3.925   6.484 -0.3144 -1.4967  2.6539
   61MOL   H14523065   6.820   4.093   6.584 -1.7111  2.0026  0.3570
   61MOL   H14623066   6.722   4.016   6.714 -1.7112 -2.5857  0.3121
   61MOL   H14723067   6.529   4.082   6.588  0.6970 -0.4644 -0.8304
   61MOL   H14823068   6.631   4.132   6.456  1.4397 -0.3588 -0.1624
   61MOL   H14923069   6.591   4.297   6.716  0.3380 -0.6213  0.6784
   61MOL   H15023070   6.740   4.299   6.626  0.0951  1.8846 -0.8350
   61MOL   H15123071   6.469   4.399   6.529 -0.4541 -1.1418  0.4267
   61MOL   H15223072   6.605   4.498   6.554 -1.0654  0.1460 -0.3417
   61MOL   H15323073   6.604   4.391   6.415  0.5530  0.9508 -0.3845
   61MOL   C15423074   6.837   3.722   6.485  0.7262 -0.1115 -0.0355
   61MOL   C15523075   6.872   3.678   6.635 -0.0658 -0.2651 -0.4963
   61MOL   O15623076   7.004   3.722   6.654  0.7055  0.1536 -0.2249
   61MOL   C15723077   7.018   3.837   6.735  0.2504 -0.6244  0.2030
   61MOL   C15823078   7.132   3.926   6.677 -0.4050  0.1180 -0.5108
   61MOL   C15923079   7.186   4.025   6.780  0.7659  0.8097  0.9042
   61MOL   C16023080   7.290   4.116   6.718  0.5502 -0.4142 -0.3225
   61MOL   H16123081   6.911   3.690   6.412 -0.1684 -1.3743 -0.3947
   61MOL   H16223082   6.749   3.665   6.456  1.6811 -1.9080  0.5149
   61MOL   H16323083   6.806   3.732   6.702  0.2982  0.9841 -1.1249
   61MOL   H16423084   6.928   3.898   6.740  0.2714 -0.4141 -1.5968
   61MOL   H16523085   7.049   3.803   6.834  0.8125 -2.1084 -0.4623
   61MOL   H16623086   7.095   3.977   6.588  0.3896  0.2609 -0.7669
   61MOL   H16723087   7.208   3.856   6.641  1.2239  0.8160  1.4149
   61MOL   H16823088   7.103   4.087   6.814  0.4524  2.0909 -2.0409
   61MOL   H16923089   7.222   3.961   6.860  0.2510 -1.7622 -0.8732
   61MOL   H17023090   7.357   4.048   6.664  1.7041 -0.1843  0.8228
   61MOL   H17123091   7.253   4.194   6.652 -0.9490 -1.3958 -0.6808
   61MOL   H17223092   7.342   4.165   6.800  0.3707 -0.5142 -0.1490
   61MOL   C17323093   6.874   3.529   6.658  0.1752  0.0386 -0.4258
   61MOL   C17423094   6.899   3.491   6.808 -0.2312  0.4014  0.0914
   61MOL   O17523095   6.777   3.525   6.878  0.2882 -0.5321  0.2621
   61MOL   C17623096   6.794   3.621   6.986 -0.2403  0.6148 -0.0558
   61MOL   C17723097   6.645   3.672   7.020  0.8350 -0.0526 -0.0510
   61MOL   C17823098   6.548   3.567   7.075  0.3737  0.7172  0.0467
   61MOL   C17923099   6.540   3.557   7.226 -0.3530  0.0230 -0.1658
   61MOL   H18023100   6.943   3.472   6.595 -0.7450 -0.2119 -1.2073
   61MOL   H18123101   6.775   3.486   6.650 -0.0491  0.2335  1.0996
   61MOL   H18223102   6.989   3.545   6.838  2.6988 -2.5931 -2.8702
   61MOL   H18323103   6.861   3.703   6.960 -2.1457  1.5437 -2.1533
   61MOL   H18423104   6.846   3.575   7.071  1.0980  1.8150 -0.1988
   61MOL   H18523105   6.604   3.714   6.928 -0.0244  0.5503  0.6043
   61MOL   H18623106   6.643   3.755   7.091  1.4443 -1.0915  1.1915
   61MOL   H18723107   6.454   3.601   7.034  0.8804  2.8751  0.6331
   61MOL   H18823108   6.565   3.466   7.038  0.8298 -0.3564  3.0135
   61MOL   H18923109   6.502   3.650   7.268  0.1166 -0.4005  1.2276
   61MOL   H19023110   6.477   3.482   7.274 -0.3857 -0.6080 -1.1907
   61MOL   H19123111   6.634   3.522   7.269  0.3565 -1.2877 -2.6937
   61MOL   C19223112   6.928   3.342   6.828 -0.4016 -0.7217  0.0970
   61MOL   C19323113   7.075   3.310   6.805  0.1675 -0.2865 -0.1492
   61MOL   O19423114   7.151   3.383   6.899 -0.6199 -0.1820  0.0608
   61MOL   C19523115   7.245   3.483   6.843 -0.6665 -0.0375  0.3813
   61MOL   C19623116   7.351   3.519   6.946 -0.3233 -0.1794  0.6587
   61MOL   C19723117   7.468   3.599   6.888  0.0700  0.0592  0.3424
   61MOL   C19823118   7.582   3.628   6.990 -0.4683 -0.5010 -0.4906
   61MOL   H19923119   6.861   3.286   6.762 -0.2634 -1.1101  0.2870
   61MOL   H20023120   6.886   3.310   6.923 -1.8179  1.5840  0.3100
   61MOL   H20123121   7.100   3.330   6.700  1.8706 -0.3072  0.2386
   61MOL   H20223122   7.192   3.575   6.821 -1.2784 -0.8057 -1.4343
   61MOL   H20323123   7.282   3.444   6.748 -0.0171  1.2506  0.1038
   61MOL   H20423124   7.304   3.576   7.026 -0.0736  1.8177 -0.5873
   61MOL   H20523125   7.399   3.426   6.977 -0.8432 -0.0722  1.8247
   61MOL   H20623126   7.435   3.690   6.838  1.3585 -0.5918 -1.7207
   61MOL   H20723127   7.508   3.548   6.801  0.0420  0.5231  0.0601
   61MOL   H20823128   7.677   3.668   6.953 -0.0624 -0.0336  1.0277
   61MOL   H20923129   7.551   3.701   7.065  0.8714  0.0590 -0.4749
   61MOL   H21023130   7.610   3.536   7.041 -1.5803 -0.8441 -0.4806
   61MOL   C21123131   7.109   3.166   6.830  0.3041 -0.0523  0.4199
   61MOL   C21223132   7.050   3.061   6.745 -0.1442 -0.0889  0.2386
   61MOL   O21323133   7.079   3.076   6.605  0.2596 -0.4380 -0.4353
   61MOL   C21423134   6.970   3.083   6.521 -0.6885 -0.1109 -0.0315
   61MOL   C21523135   7.012   3.077   6.372  0.1962 -0.3111  0.2653
   61MOL   C21623136   7.083   2.947   6.328 -0.1034  0.2234  0.0406
   61MOL   C21723137   7.113   2.951   6.181 -0.8450  0.2765  0.0487
   61MOL   H21823138   7.081   3.144   6.933 -0.3283 -0.1719  0.2255
   61MOL   H21923139   7.218   3.160   6.826  0.2547 -0.1967 -1.0587
   61MOL   H22023140   6.943   3.078   6.761 -0.2488  0.5987 -1.1778
   61MOL   H22123141   6.894   3.008   6.541 -0.5400  0.1794  1.6671
   61MOL   H22223142   6.914   3.175   6.539 -0.4497 -0.4392  2.5092
   61MOL   H22323143   6.919   3.089   6.316  0.1729 -2.5439 -0.2470
   61MOL   H22423144   7.080   3.159   6.351  0.1318 -0.8317 -2.0981
   61MOL   H22523145   7.021   2.864   6.361 -0.7171  0.7273  0.1654
   61MOL   H22623146   7.174   2.942   6.388 -0.3462  1.8364  0.5973
   61MOL   H22723147   7.150   2.854   6.148  2.1665  0.7760  1.8436
   61MOL   H22823148   7.195   3.018   6.156 -1.1777  0.4171 -0.7021
   61MOL   H22923149   7.024   2.976   6.122 -1.7997  0.7083  1.6611
   61MOL   C23023150   7.077   2.915   6.789  0.5444 -0.2489 -0.6053
   61MOL   C23123151   6.961   2.815   6.773  0.0224 -0.1288  0.0346
   61MOL   O23223152   7.014   2.682   6.745 -0.3543  0.0224 -0.6299
   61MOL   C23323153   6.976   2.622   6.619 -0.2237 -0.0250 -0.6316
   61MOL   C23423154   7.046   2.488   6.610 -0.3666 -0.2150  0.2756
   61MOL   C23523155   7.019   2.413   6.475 -1.4478 -0.6773 -0.4409
   61MOL   C23623156   7.084   2.274   6.474  0.2910  0.3642  0.2731
   61MOL   H23723157   7.116   2.914   6.891 -0.4905  1.0790 -0.1873
   61MOL   H23823158   7.163   2.874   6.735  1.4186 -0.6565  1.0435
   61MOL   H23923159   6.907   2.840   6.682  0.4028  2.2646  0.4487
   61MOL   H24023160   6.869   2.625   6.603 -0.0283 -0.6436 -2.0544
   61MOL   H24123161   7.014   2.685   6.539  0.9856  0.3786  0.2400
   61MOL   H24223162   7.153   2.501   6.622 -0.2693 -0.5888 -0.1831
   61MOL   H24323163   7.004   2.422   6.686  1.2830 -0.2653  1.1552
   61MOL   H24423164   7.065   2.468   6.392 -0.4904  0.8532  1.0707
   61MOL   H24523165   6.910   2.411   6.469 -1.4973 -2.4952  0.8717
   61MOL   H24623166   7.004   2.220   6.523  0.8093 -0.9458 -0.2922
   61MOL   H24723167   7.174   2.259   6.534 -0.1365  0.6518  0.9884
   61MOL   H24823168   7.102   2.243   6.371  3.6806  0.3746  0.8002
   61MOL   C24923169   6.868   2.802   6.892  0.0865 -1.1323 -0.8252
   61MOL   C25023170   6.719   2.774   6.845 -0.9241  0.0665  0.7047
   61MOL   O25123171   6.660   2.896   6.803 -0.5612 -0.2621 -0.1371
   61MOL   C25223172   6.557   2.888   6.704 -0.4155  0.4246 -0.8504
   61MOL   C25323173   6.486   3.029   6.696  0.1050  0.0758  0.6058
   61MOL   C25423174   6.558   3.152   6.633 -0.5181 -0.1793 -0.1970
   61MOL   C25523175   6.487   3.289   6.632  0.5025 -0.3029 -0.1275
   61MOL   H25623176   6.858   2.894   6.949 -2.9642 -2.3178  0.6877
   61MOL   H25723177   6.913   2.731   6.961  3.5346 -0.3076 -2.1041
   61MOL   H25823178   6.723   2.708   6.759  3.5297 -1.8156  2.2133
   61MOL   H25923179   6.484   2.813   6.733 -0.6052  1.1672  0.6314
   61MOL   H26023180   6.599   2.846   6.612 -1.3406 -1.8423 -0.2508
   61MOL   H26123181   6.385   3.030   6.655  0.4343  1.6941 -0.2246
   61MOL   H26223182   6.459   3.051   6.800  0.3802  1.0723  0.4715
   61MOL   H26323183   6.654   3.162   6.683 -0.8628 -0.2152  0.4830
   61MOL   H26423184   6.574   3.128   6.528  0.9804 -1.6005  0.3448
   61MOL   H26523185   6.384   3.271   6.602  0.1007  2.7849 -0.7704
   61MOL   H26623186   6.526   3.341   6.544 -1.4116  1.1307 -0.1562
   61MOL   H26723187   6.494   3.350   6.722  0.2298 -1.6238  0.8047
   61MOL   C26823188   6.631   2.723   6.964  0.3569  0.0452 -0.1224
   61MOL   C26923189   6.608   2.569   6.974 -0.3583 -0.6526 -0.4241
   61MOL   O27023190   6.538   2.542   7.091 -0.2150  0.6509  0.5145
   61MOL   C27123191   6.621   2.497   7.196 -0.1530  0.1430  0.0881
   61MOL   C27223192   6.545   2.480   7.328 -0.6178 -0.1244 -0.1879
   61MOL   C27323193   6.416   2.390   7.298  0.0753  0.0339  0.8308
   61MOL   C27423194   6.315   2.384   7.426 -0.7468  0.0016  1.1377
   61MOL   H27523195   6.679   2.753   7.057 -0.3950 -2.0606  0.9903
   61MOL   H27623196   6.534   2.772   6.954  0.2298 -0.5188 -1.6744
   61MOL   H27723197   6.709   2.528   6.984  0.4877  1.5298  0.3661
   61MOL   H27823198   6.660   2.396   7.179  0.9683  0.6917 -0.6687
   61MOL   H27923199   6.705   2.564   7.218  0.6129 -0.7519 -0.0627
   61MOL   H28023200   6.616   2.447   7.404 -0.9746 -3.3834 -1.1909
   61MOL   H28123201   6.508   2.574   7.370 -0.2346 -0.8811  1.8986
   61MOL   H28223202   6.451   2.295   7.258  1.8475  0.6589  0.8397
   61MOL   H28323203   6.371   2.441   7.212  0.8423  0.3973  0.6341
   61MOL   H28423204   6.212   2.351   7.411 -0.9213  1.1196 -0.2496
   61MOL   H28523205   6.304   2.487   7.461  0.5010 -0.2359  2.2540
   61MOL   H28623206   6.361   2.338   7.513  0.3780 -0.9309  0.0601
   61MOL   C28723207   6.531   2.509   6.858 -0.6536  0.3274  0.0002
   61MOL   C28823208   6.519   2.353   6.855 -0.2321 -0.0767 -0.2472
   61MOL   O28923209   6.650   2.301   6.834 -0.2472  0.1444 -0.6397
   61MOL   C29023210   6.690   2.182   6.907  0.0516  0.0248  0.7072
   61MOL   C29123211   6.845   2.179   6.892 -0.0089 -0.4034 -0.0876
   61MOL   C29223212   6.903   2.042   6.912 -0.0695  0.1211 -0.6641
   61MOL   C29323213   7.052   2.026   6.876 -0.1272 -0.3052  0.4276
   61MOL   H29423214   6.576   2.534   6.762 -1.4075  0.0251 -0.4343
   61MOL   H29523215   6.437   2.565   6.859  1.0893  3.3914 -0.5943
   61MOL   H29623216   6.488   2.329   6.956  2.8954  2.1893  1.3602
   61MOL   H29723217   6.681   2.201   7.014  4.2934  2.2454  0.7773
   61MOL   H29823218   6.647   2.094   6.859 -0.0041 -0.2423  1.2385
   61MOL   H29923219   6.898   2.244   6.961 -3.1326  1.6282  0.4867
   61MOL   H30023220   6.880   2.208   6.792 -1.6118 -2.6880 -1.3601
   61MOL   H30123221   6.839   1.970   6.861  0.7217 -0.3001 -1.0706
   61MOL   H30223222   6.895   2.018   7.018 -1.5314  2.5528 -0.1752
   61MOL   H30323223   7.086   1.927   6.910 -1.3914 -0.0664  2.4625
   61MOL   H30423224   7.068   2.035   6.769  0.3745 -2.3954  0.3056
   61MOL   H30523225   7.107   2.101   6.933 -0.9210 -0.7348  1.7834
   61MOL   C30623226   6.421   2.296   6.751 -0.0009 -1.0988  1.2882
   61MOL   C30723227   6.464   2.308   6.604  0.4733  0.0516 -0.0961
   61MOL   O30823228   6.425   2.431   6.549 -0.3697 -0.2616 -0.0705
   61MOL   C30923229   6.531   2.474   6.457 -0.3550  0.4724 -0.4203
   61MOL   C31023230   6.505   2.626   6.419 -0.3702  0.2596 -0.0099
   61MOL   C31123231   6.622   2.685   6.328  0.4624  1.1940  0.6646
   61MOL   C31223232   6.591   2.831   6.288  0.0983 -0.8511 -0.6661
   61MOL   H31323233   6.416   2.188   6.770 -0.0573 -0.9575  2.0925
   61MOL   H31423234   6.328   2.349   6.771 -0.4354 -1.5849  0.5580
   61MOL   H31523235   6.571   2.288   6.594 -0.0608 -1.7301 -2.6429
   61MOL   H31623236   6.544   2.402   6.376  0.8269  0.9725 -0.6755
   61MOL   H31723237   6.625   2.472   6.511 -0.9562 -1.5739  0.5867
   61MOL   H31823238   6.492   2.679   6.513 -1.9051  0.4687 -0.3108
   61MOL   H31923239   6.413   2.631   6.360 -1.1198 -0.2995  1.0990
   61MOL   H32023240   6.726   2.676   6.361  0.0309 -4.3711  0.8757
   61MOL   H32123241   6.621   2.638   6.230  1.1630  1.2420  0.6274
   61MOL   H32223242   6.585   2.910   6.362  0.1492 -1.8111  0.3767
   61MOL   H32323243   6.510   2.840   6.216 -0.2696 -1.8154 -0.3784
   61MOL   H32423244   6.672   2.868   6.225 -1.8710  0.6047 -2.4073
   61MOL   C32523245   6.386   2.205   6.515  0.4194  0.6862  0.2314
   61MOL   C32623246   6.430   2.056   6.529 -0.0372  0.0567 -0.2333
   61MOL   O32723247   6.364   1.976   6.432 -0.0595 -0.1199  0.4429
   61MOL   C32823248   6.229   1.959   6.457  0.9549  0.2975 -0.1697
   61MOL   C32923249   6.151   2.010   6.335 -0.1389 -0.2283  0.2209
   61MOL   C33023250   6.221   1.995   6.197 -0.1241 -0.1261  0.3243
   61MOL   C33123251   6.127   1.998   6.081 -0.4796  0.4637  0.1176
   61MOL   H33223252   6.413   2.228   6.412  2.9309 -2.6223  0.0715
   61MOL   H33323253   6.283   2.225   6.545 -0.4154 -1.7082 -0.8899
   61MOL   H33423254   6.397   2.021   6.627  1.7482 -3.8171 -0.9165
   61MOL   H33523255   6.191   2.015   6.542  0.4940  1.4816 -1.1516
   61MOL   H33623256   6.202   1.857   6.487  0.0395  0.7573  0.5845
   61MOL   H33723257   6.054   1.959   6.333  1.4177 -3.3673  1.5606
   61MOL   H33823258   6.130   2.116   6.347 -0.6104 -0.1514 -1.1576
   61MOL   H33923259   6.281   1.904   6.190  1.4442  0.9002  0.2816
   61MOL   H34023260   6.289   2.078   6.179  0.9749 -1.2325 -0.7572
   61MOL   H34123261   6.051   2.075   6.095 -0.5924  0.1698  1.1291
   61MOL   H34223262   6.079   1.901   6.075  0.8254 -0.3557  2.3960
   61MOL   H34323263   6.196   2.011   5.997 -0.7688  2.2031  0.1144
   61MOL   C34423264   6.584   2.026   6.525 -0.3072 -0.4118  0.3850
   61MOL   C34523265   6.617   1.874   6.537 -0.4220 -0.3301  0.4939
   61MOL   O34623266   6.546   1.812   6.642  0.0785 -0.1055 -0.2188
   61MOL   C34723267   6.521   1.671   6.631  0.2246 -0.1454 -0.3264
   61MOL   C34823268   6.465   1.629   6.772  0.5375 -0.3214 -0.4493
   61MOL   C34923269   6.550   1.685   6.894 -0.8969  0.2015  0.5419
   61MOL   C35023270   6.502   1.631   7.032 -0.3364  0.2470  0.0506
   61MOL   H35123271   6.621   2.067   6.431 -1.7594 -1.3656 -0.6300
   61MOL   H35223272   6.636   2.083   6.602  1.0525 -1.8639  0.5674
   61MOL   H35323273   6.593   1.826   6.442 -1.6127  0.2148  0.5132
   61MOL   H35423274   6.611   1.612   6.614  0.4523  0.5132 -1.4515
   61MOL   H35523275   6.448   1.649   6.553 -1.4662  1.4639  0.7433
   61MOL   H35623276   6.458   1.521   6.779  1.1213 -0.4145 -1.2192
   61MOL   H35723277   6.364   1.668   6.782  0.5768 -0.4016  0.3023
   61MOL   H35823278   6.648   1.637   6.887 -1.2816 -0.6703  0.9805
   61MOL   H35923279   6.563   1.793   6.899 -0.9485  0.3229 -1.3715
   61MOL   H36023280   6.403   1.675   7.043 -0.3607  1.1466 -3.2382
   61MOL   H36123281   6.576   1.664   7.104 -1.0582 -2.9494  2.3793
   61MOL   H36223282   6.496   1.522   7.023 -2.5380  0.4237 -0.9518
   61MOL   C36323283   6.766   1.866   6.574  0.1407 -0.0640  0.3938
   61MOL   C36423284   6.862   1.939   6.476 -0.2173 -0.1706  0.2878
   61MOL   O36523285   6.822   1.914   6.343  0.2168 -0.0638 -0.7686
   61MOL   C36623286   6.868   1.998   6.238  0.1924  0.2044 -0.0416
   61MOL   C36723287   6.793   1.960   6.114  0.8431 -0.0699  0.0658
   61MOL   C36823288   6.640   1.973   6.125  0.4940  0.3534  0.4787
   61MOL   C36923289   6.553   1.930   6.003  0.0296  0.0796  0.8016
   61MOL   H37023290   6.794   1.760   6.577 -1.0249 -0.3883  0.0114
   61MOL   H37123291   6.775   1.910   6.674 -1.5644  1.0991  0.0547
   61MOL   H37223292   6.969   1.918   6.481 -0.0384  0.2139 -1.8299
   61MOL   H37323293   6.975   1.976   6.238  0.0453 -0.9367  3.3976
   61MOL   H37423294   6.847   2.100   6.269  1.1861  0.1773  0.7594
   61MOL   H37523295   6.821   1.862   6.075  1.0371 -0.1263  0.3501
   61MOL   H37623296   6.836   2.024   6.037 -1.1346  0.2775 -0.7950
   61MOL   H37723297   6.621   2.074   6.162  0.3840 -0.3036  2.2668
   61MOL   H37823298   6.616   1.919   6.216  1.8476  1.9446  1.8142
   61MOL   H37923299   6.561   1.992   5.914  0.3263 -1.3458 -0.1934
   61MOL   H38023300   6.588   1.830   5.975  0.4625  0.5745 -0.4725
   61MOL   H38123301   6.447   1.928   6.029 -0.3919  1.0551 -0.8213
   61MOL   H38223302   6.839   2.044   6.491 -2.2639 -0.6992  0.9750
   62MOL     C123303   2.677   6.852   3.228 -0.1334  0.2820 -0.2662
   62MOL     C223304   2.758   6.797   3.344 -0.3982 -0.7790 -0.1621
   62MOL     O323305   2.896   6.830   3.325 -0.2121  0.1015  0.2870
   62MOL     C423306   2.968   6.734   3.259 -0.4730  0.0155  0.0609
   62MOL     C523307   3.110   6.782   3.236 -0.6583 -0.8103  0.1399
   62MOL     C623308   3.103   6.911   3.159  0.1907 -0.1344 -0.2193
   62MOL     C723309   3.239   6.964   3.107  0.4769  0.1579  0.4688
   62MOL     H823310   2.705   6.800   3.137 -0.6094  0.9770 -0.8108
   62MOL     H923311   2.570   6.855   3.247  0.3491 -1.0834  3.0171
   62MOL    H1023312   2.738   6.690   3.354  1.0682 -1.0467  0.0460
   62MOL    H1123313   2.961   6.638   3.310 -1.5825  0.8701  1.5539
   62MOL    H1223314   2.911   6.714   3.168  0.3396 -0.3598 -0.3682
   62MOL    H1323315   3.173   6.707   3.186  1.8875  2.2313 -1.4096
   62MOL    H1423316   3.155   6.796   3.334 -1.4342  2.9043  0.0431
   62MOL    H1523317   3.082   6.990   3.231 -3.0646  0.5137 -1.7875
   62MOL    H1623318   3.030   6.916   3.078 -1.1389  2.4324  1.0723
   62MOL    H1723319   3.270   6.898   3.026  0.2937 -0.9717  1.2927
   62MOL    H1823320   3.313   6.966   3.187  2.6248 -0.7472 -1.4434
   62MOL    H1923321   3.226   7.065   3.068 -1.2112  0.7364  2.4076
   62MOL    H2023322   2.717   6.952   3.211 -0.6949  0.5355 -0.1218
   62MOL    C2123323   2.725   6.876   3.472  0.0155 -0.2858  0.4313
   62MOL    C2223324   2.778   6.815   3.601  0.2287 -0.6318 -0.3535
   62MOL    O2323325   2.753   6.905   3.704  0.1390 -0.2518  0.1619
   62MOL    C2423326   2.848   6.924   3.815 -0.0204  0.3691  0.1380
   62MOL    C2523327   2.775   6.975   3.939  0.5774 -0.2610 -0.4389
   62MOL    C2623328   2.684   7.091   3.905  0.4401  0.3541  0.4330
   62MOL    C2723329   2.628   7.168   4.022  0.3988  0.5735  0.3040
   62MOL    H2823330   2.616   6.870   3.478 -0.2005  0.7429 -1.9949
   62MOL    H2923331   2.743   6.980   3.444  1.5428 -0.3967  0.9798
   62MOL    H3023332   2.886   6.808   3.587  0.5672  0.2589  1.5998
   62MOL    H3123333   2.917   7.001   3.779 -0.0330  0.1167 -0.4331
   62MOL    H3223334   2.901   6.831   3.832 -1.3690 -0.0228  2.3942
   62MOL    H3323335   2.701   6.902   3.973  1.0943 -0.5545  0.0638
   62MOL    H3423336   2.844   6.989   4.022 -1.5134 -0.2181  1.3223
   62MOL    H3523337   2.720   7.170   3.839  0.2989  0.3003  0.2893
   62MOL    H3623338   2.599   7.048   3.852 -0.9455  1.9856  1.2626
   62MOL    H3723339   2.569   7.101   4.085  1.4151 -0.4667  0.1900
   62MOL    H3823340   2.705   7.214   4.084 -0.8976  0.2761  2.1945
   62MOL    H3923341   2.564   7.251   3.993  1.9734  2.3377  1.7429
   62MOL    C4023342   2.711   6.678   3.633  0.0786 -0.1091 -0.5377
   62MOL    C4123343   2.780   6.600   3.752 -0.7991  0.1731  0.3944
   62MOL    O4223344   2.903   6.558   3.689  0.0980  0.0445  0.3466
   62MOL    C4323345   3.012   6.532   3.782  0.4195 -0.0990 -0.0727
   62MOL    C4423346   3.132   6.498   3.690 -0.4350 -0.3540 -0.0395
   62MOL    C4523347   3.198   6.622   3.618  0.0052  0.2030  0.1389
   62MOL    C4623348   3.293   6.557   3.511  0.3035 -0.2329  0.1242
   62MOL    H4723349   2.712   6.619   3.541  0.8596 -1.8558  0.5670
   62MOL    H4823350   2.607   6.698   3.658  0.0672 -1.1797  0.2979
   62MOL    H4923351   2.805   6.662   3.838  0.4983 -1.3057  1.1037
   62MOL    H5023352   3.003   6.438   3.837 -1.6779  1.0565  1.6710
   62MOL    H5123353   3.027   6.621   3.844  0.1768  1.2138 -1.8541
   62MOL    H5223354   3.113   6.429   3.609  2.4686  0.0175 -1.0975
   62MOL    H5323355   3.215   6.450   3.743 -0.1846  0.0884 -0.0242
   62MOL    H5423356   3.243   6.701   3.679 -2.6458  2.8132 -1.1299
   62MOL    H5523357   3.112   6.676   3.577  2.1605  0.7471 -3.9729
   62MOL    H5623358   3.383   6.519   3.560  1.6297 -0.6569 -2.5354
   62MOL    H5723359   3.240   6.486   3.449 -1.1125  0.4119  0.5813
   62MOL    H5823360   3.333   6.632   3.443 -1.3594 -0.0752 -0.6869
   62MOL    C5923361   2.706   6.471   3.782  0.0461  0.2061  0.3820
   62MOL    C6023362   2.565   6.492   3.849  0.1861  0.3452  0.2297
   62MOL    O6123363   2.516   6.359   3.868  1.1830 -0.0505  0.1258
   62MOL    C6223364   2.395   6.341   3.802  0.3936  0.5536  0.1133
   62MOL    C6323365   2.349   6.198   3.814 -0.7006 -0.0236 -0.3785
   62MOL    C6423366   2.443   6.089   3.754  0.3901  0.1611  0.4651
   62MOL    C6523367   2.430   6.083   3.600  0.1924 -0.2962  1.0617
   62MOL    H6623368   2.697   6.405   3.695  1.6190  1.5210 -0.8194
   62MOL    H6723369   2.767   6.421   3.858  0.7425  1.2659  0.5300
   62MOL    H6823370   2.497   6.545   3.782 -0.8148  0.0899  1.0295
   62MOL    H6923371   2.400   6.371   3.697 -1.9677  0.8227  0.0530
   62MOL    H7023372   2.326   6.410   3.850 -1.3004 -1.5514  0.7680
   62MOL    H7123373   2.356   6.189   3.923  0.1253 -0.6352 -0.4793
   62MOL    H7223374   2.243   6.174   3.798 -1.7521  4.3105 -0.5066
   62MOL    H7323375   2.547   6.109   3.779  0.0767  0.9180  1.1839
   62MOL    H7423376   2.427   5.988   3.791 -1.4744 -0.1998 -1.2337
   62MOL    H7523377   2.325   6.084   3.570  0.4755 -0.3323  0.0506
   62MOL    H7623378   2.497   6.159   3.559  0.2444 -1.3015 -0.7939
   62MOL    H7723379   2.485   5.999   3.557  0.7424  0.4000  0.3756
   62MOL    C7823380   2.584   6.556   3.984  0.4108  0.1033  0.1746
   62MOL    C7923381   2.451   6.612   4.031  0.6306  0.6551  0.6227
   62MOL    O8023382   2.408   6.718   3.951 -0.3577  0.0832 -0.5261
   62MOL    C8123383   2.267   6.738   3.944 -0.0025  0.2295  0.1075
   62MOL    C8223384   2.237   6.889   3.925  0.0519 -0.9878 -0.3395
   62MOL    C8323385   2.259   6.970   4.057  0.6948 -0.4261 -0.3103
   62MOL    C8423386   2.250   7.120   4.037  0.4580 -0.6449 -0.2904
   62MOL    H8523387   2.646   6.646   3.979 -0.4082  0.5799 -1.6505
   62MOL    H8623388   2.625   6.484   4.055 -1.2904 -1.4704 -0.4188
   62MOL    H8723389   2.382   6.528   4.034  1.2059  0.1610  0.2546
   62MOL    H8823390   2.196   6.698   4.016 -1.0484  1.8856  0.0415
   62MOL    H8923391   2.243   6.691   3.849 -0.1375  0.2427  0.1364
   62MOL    H9023392   2.293   6.922   3.838 -0.1485 -4.0175 -1.6743
   62MOL    H9123393   2.133   6.896   3.892 -0.2703  0.0174  0.8480
   62MOL    H9223394   2.363   6.955   4.084  0.3855 -0.2416  1.0132
   62MOL    H9323395   2.191   6.922   4.128  1.5550 -0.7690  0.2805
   62MOL    H9423396   2.254   7.175   4.131  2.1903 -0.3151 -0.5523
   62MOL    H9523397   2.327   7.146   3.964 -0.4446  0.3333 -0.9150
   62MOL    H9623398   2.160   7.150   3.983  1.1603  2.0750 -0.0249
   62MOL    C9723399   2.468   6.679   4.170  0.5760 -0.1658 -0.5541
   62MOL    C9823400   2.505   6.584   4.281  0.4653 -0.0821 -0.0247
   62MOL    O9923401   2.536   6.656   4.398  0.2699 -0.1050 -0.0764
   62MOL   C10023402   2.622   6.594   4.501 -0.2255  0.4806  0.1383
   62MOL   C10123403   2.618   6.674   4.630 -0.4394 -0.8133 -0.3173
   62MOL   C10223404   2.695   6.600   4.737  0.0369  0.3939  0.6776
   62MOL   C10323405   2.678   6.667   4.869  0.2439  0.5266  0.1635
   62MOL   H10423406   2.370   6.717   4.200 -0.1674 -3.2019  1.0482
   62MOL   H10523407   2.521   6.774   4.175  0.2367 -0.0431  0.9515
   62MOL   H10623408   2.594   6.529   4.253 -0.1234 -1.4517  0.7034
   62MOL   H10723409   2.727   6.585   4.472 -0.1619  2.0389 -0.1629
   62MOL   H10823410   2.584   6.493   4.517  1.5816  0.0886  2.2135
   62MOL   H10923411   2.514   6.690   4.658 -1.3093 -2.7751 -2.2584
   62MOL   H11023412   2.654   6.777   4.622 -0.4151 -0.8674 -0.9954
   62MOL   H11123413   2.799   6.582   4.709  0.0139  1.9105 -0.4112
   62MOL   H11223414   2.647   6.503   4.748  0.9181  0.1106  2.1748
   62MOL   H11323415   2.700   6.773   4.860  0.1279  0.6797  1.6398
   62MOL   H11423416   2.583   6.641   4.915 -0.9300 -1.2422 -3.0837
   62MOL   H11523417   2.745   6.623   4.943 -0.8296 -0.0582  0.7953
   62MOL   C11623418   2.400   6.474   4.323 -0.8482 -0.2077 -0.1993
   62MOL   C11723419   2.443   6.330   4.277  0.0297 -0.6631  0.3585
   62MOL   O11823420   2.574   6.306   4.326  0.3129  0.5261  0.3487
   62MOL   C11923421   2.640   6.205   4.251 -0.1031 -0.4565 -1.0819
   62MOL   C12023422   2.778   6.249   4.219  0.3847  0.1046  0.7427
   62MOL   C12123423   2.850   6.133   4.144 -0.2994  0.0870 -0.0201
   62MOL   C12223424   2.997   6.169   4.105 -0.4231 -0.5501 -0.0170
   62MOL   H12323425   2.390   6.474   4.432  0.1318 -0.6040 -0.1012
   62MOL   H12423426   2.302   6.498   4.281 -2.5929 -0.4421  3.5400
   62MOL   H12523427   2.449   6.348   4.170  2.1603  2.0996  0.8898
   62MOL   H12623428   2.589   6.171   4.161  0.5271 -0.3227 -1.4860
   62MOL   H12723429   2.645   6.122   4.321  0.2133  0.6749  0.2845
   62MOL   H12823430   2.831   6.277   4.310 -0.8311  0.3563  1.3850
   62MOL   H12923431   2.768   6.337   4.155  2.9331  0.3763  0.7057
   62MOL   H13023432   2.857   6.046   4.209  1.7479  0.9633  0.9762
   62MOL   H13123433   2.798   6.110   4.051  1.8964 -0.3068 -1.1918
   62MOL   H13223434   3.018   6.253   4.039  1.1185 -1.7811 -1.1384
   62MOL   H13323435   3.062   6.086   4.075 -0.5214 -0.5441 -0.2480
   62MOL   H13423436   3.051   6.192   4.196 -0.9638  0.2787  0.0986
   62MOL   C13523437   2.345   6.218   4.324 -0.3875 -0.0724  0.9112
   62MOL   C13623438   2.311   6.207   4.473 -0.1256 -0.4649 -0.4755
   62MOL   O13723439   2.211   6.104   4.471 -0.2985 -0.1282  0.3045
   62MOL   C13823440   2.074   6.146   4.480  0.4087  0.8040  0.1158
   62MOL   C13923441   2.001   6.016   4.503 -0.8010  0.1621  0.8929
   62MOL   C14023442   2.021   5.946   4.639 -0.3549 -0.0082 -0.0217
   62MOL   C14123443   1.953   5.806   4.651 -0.1738 -0.0720 -0.1085
   62MOL   H14223444   2.387   6.122   4.297  0.7642 -0.2907  3.3582
   62MOL   H14323445   2.253   6.243   4.270  0.1039 -0.3047 -0.0414
   62MOL   H14423446   2.268   6.299   4.512 -0.2747 -0.3509 -0.9080
   62MOL   H14523447   2.041   6.194   4.388 -0.6266  0.5133  0.3272
   62MOL   H14623448   2.068   6.207   4.570  2.0349 -1.2936  1.6934
   62MOL   H14723449   2.031   5.952   4.421  2.6363  1.1907  1.2611
   62MOL   H14823450   1.894   6.040   4.504 -0.8070  0.1568  3.3438
   62MOL   H14923451   2.128   5.930   4.651 -0.3291 -0.0393 -0.2931
   62MOL   H15023452   1.982   6.015   4.714 -1.8743  0.2203 -1.0183
   62MOL   H15123453   1.846   5.815   4.631  0.0667  1.3536 -0.8090
   62MOL   H15223454   1.986   5.739   4.572 -2.5246  0.9035 -1.9960
   62MOL   H15323455   1.980   5.763   4.747  0.3835 -0.1638 -0.3074
   62MOL   C15423456   2.434   6.163   4.558  1.0296 -0.0506 -0.2753
   62MOL   C15523457   2.401   6.162   4.712  0.5690  0.1508  0.1766
   62MOL   O15623458   2.393   6.295   4.762 -0.1518  0.2547  0.0816
   62MOL   C15723459   2.269   6.325   4.830 -0.1708 -0.3123 -0.1511
   62MOL   C15823460   2.264   6.478   4.858  0.2187 -0.9706 -0.0625
   62MOL   C15923461   2.132   6.526   4.923  0.0828 -0.6557  0.3198
   62MOL   C16023462   2.151   6.650   5.017 -0.5826  0.0314  0.0823
   62MOL   H16123463   2.518   6.228   4.534  2.2214 -1.8039 -0.9225
   62MOL   H16223464   2.477   6.068   4.526  1.9801  0.1516  0.3787
   62MOL   H16323465   2.311   6.100   4.722  1.2673 -0.8619  0.2691
   62MOL   H16423466   2.190   6.296   4.761 -0.2018 -0.0852 -0.2117
   62MOL   H16523467   2.253   6.273   4.925  0.3223 -1.5901 -0.7481
   62MOL   H16623468   2.278   6.531   4.764  0.3934  1.1084  1.0825
   62MOL   H16723469   2.352   6.504   4.918 -0.4021 -1.0203  0.8751
   62MOL   H16823470   2.053   6.531   4.849 -0.4568  0.9569  0.9821
   62MOL   H16923471   2.098   6.440   4.981 -1.1168  0.1814  0.8890
   62MOL   H17023472   2.218   6.632   5.101 -1.6196 -0.7676  0.7535
   62MOL   H17123473   2.180   6.742   4.965 -0.4753 -0.1921 -0.2561
   62MOL   H17223474   2.055   6.669   5.066 -0.2821  0.1578  0.6228
   62MOL   C17323475   2.513   6.087   4.791 -0.7242 -0.5253 -0.2159
   62MOL   C17423476   2.469   6.051   4.928 -0.6261 -0.4027 -0.5347
   62MOL   O17523477   2.373   5.953   4.901 -0.6026  0.3840 -0.1578
   62MOL   C17623478   2.270   5.958   5.000  0.2384 -0.2327  0.3550
   62MOL   C17723479   2.190   5.824   5.003  0.5656  0.6143  0.2922
   62MOL   C17823480   2.268   5.695   5.039 -0.0859 -0.4864  0.2072
   62MOL   C17923481   2.345   5.630   4.918  0.3939 -0.0902  0.2152
   62MOL   H18023482   2.592   6.153   4.825 -1.5848  0.8187 -0.7659
   62MOL   H18123483   2.567   6.010   4.737 -0.5929  0.7540 -1.9639
   62MOL   H18223484   2.425   6.139   4.976  1.0299  1.1541 -1.7579
   62MOL   H18323485   2.197   6.037   4.986 -0.1960 -0.2776  2.2205
   62MOL   H18423486   2.311   5.957   5.101 -0.0589  0.7237  0.4915
   62MOL   H18523487   2.147   5.824   4.902  2.2909  0.3177 -0.4606
   62MOL   H18623488   2.105   5.840   5.070 -0.2038  0.2440 -0.5847
   62MOL   H18723489   2.338   5.733   5.113  1.2581  0.6142 -1.5859
   62MOL   H18823490   2.209   5.619   5.090 -0.3974 -1.7119 -1.8889
   62MOL   H18923491   2.274   5.612   4.837  1.1747  3.4703 -1.3597
   62MOL   H19023492   2.420   5.700   4.878  0.4376 -0.7269 -0.8481
   62MOL   H19123493   2.397   5.542   4.955  0.6242  0.8533  2.1559
   62MOL   C19223494   2.581   5.982   5.018  0.3540 -0.5944  0.3495
   62MOL   C19323495   2.692   6.072   5.082 -0.2473  0.2976 -0.4388
   62MOL   O19423496   2.612   6.167   5.152  0.1761  0.1263  0.0396
   62MOL   C19523497   2.640   6.303   5.116  0.4345 -0.5370 -0.4781
   62MOL   C19623498   2.600   6.386   5.240 -0.2976  0.6550 -0.4565
   62MOL   C19723499   2.452   6.412   5.256 -0.2806  0.1677  0.1987
   62MOL   C19823500   2.423   6.474   5.401 -0.2649 -0.0330  0.4193
   62MOL   H19923501   2.622   5.888   4.982 -0.4873 -0.4703 -0.9464
   62MOL   H20023502   2.521   5.957   5.107  1.2549  1.3250  1.5318
   62MOL   H20123503   2.747   6.122   5.002  0.1162  0.3042 -0.1852
   62MOL   H20223504   2.579   6.332   5.030  2.0315  1.5648 -0.9551
   62MOL   H20323505   2.745   6.323   5.097  0.3939  1.3960  1.0943
   62MOL   H20423506   2.630   6.327   5.327  0.3099  0.8676 -0.5172
   62MOL   H20523507   2.650   6.483   5.249  0.6067  0.1497  0.0103
   62MOL   H20623508   2.393   6.320   5.255  0.2115 -0.1410 -0.5675
   62MOL   H20723509   2.422   6.469   5.168 -0.9050  0.4380  0.5858
   62MOL   H20823510   2.320   6.505   5.414  0.0026  1.2197 -0.3460
   62MOL   H20923511   2.442   6.405   5.483  0.2926 -0.1292  0.2165
   62MOL   H21023512   2.483   6.564   5.419  1.8190 -1.0629 -1.0818
   62MOL   C21123513   2.775   5.997   5.185 -0.1188 -0.0417  0.1564
   62MOL   C21223514   2.892   6.068   5.246  0.2279 -0.2044  0.8520
   62MOL   O21323515   2.903   6.029   5.381  0.1458  0.2205  0.6078
   62MOL   C21423516   2.858   6.130   5.463  0.4511 -0.6560 -0.0685
   62MOL   C21523517   2.867   6.090   5.607 -0.2596 -0.1122  0.7079
   62MOL   C21623518   2.795   6.194   5.695  0.3201  0.2099  0.6515
   62MOL   C21723519   2.843   6.342   5.670 -0.2977 -0.4308 -0.1910
   62MOL   H21823520   2.809   5.905   5.139 -2.5608 -1.2583  0.7077
   62MOL   H21923521   2.711   5.947   5.257  2.4824 -2.1487  1.0443
   62MOL   H22023522   2.879   6.173   5.223 -3.4534 -0.6876  0.2872
   62MOL   H22123523   2.921   6.217   5.446  0.5020 -0.8762 -1.0848
   62MOL   H22223524   2.757   6.161   5.437  0.8306 -1.1231 -2.2062
   62MOL   H22323525   2.816   5.996   5.629  0.2650 -0.2176  1.5105
   62MOL   H22423526   2.975   6.086   5.620  0.2175  1.5518 -2.4014
   62MOL   H22523527   2.811   6.169   5.800  2.4204  0.4532  0.4065
   62MOL   H22623528   2.688   6.194   5.671  0.9414  2.4704 -2.4803
   62MOL   H22723529   2.839   6.375   5.566 -0.5004  0.3653  0.0594
   62MOL   H22823530   2.949   6.345   5.696 -0.0827 -1.6348 -0.9185
   62MOL   H22923531   2.778   6.411   5.725 -0.6465 -0.4126 -0.6245
   62MOL   C23023532   3.018   6.039   5.173 -0.6064  0.1422  0.1201
   62MOL   C23123533   3.129   6.144   5.182  0.2296 -0.6366  0.4824
   62MOL   O23223534   3.069   6.268   5.145  0.2074  0.3341  0.1635
   62MOL   C23323535   3.104   6.316   5.017 -0.0843  0.4953  0.2529
   62MOL   C23423536   3.064   6.463   4.997 -0.8766  0.5732 -0.7334
   62MOL   C23523537   3.140   6.560   5.087 -0.2567  0.4647 -0.1956
   62MOL   C23623538   3.100   6.700   5.053 -0.1453  0.1570 -1.1215
   62MOL   H23723539   2.984   6.016   5.072 -2.0037  0.6779  0.4571
   62MOL   H23823540   3.058   5.949   5.219  0.0310  0.3283 -0.0637
   62MOL   H23923541   3.193   6.113   5.099  0.2520  0.6893 -0.0056
   62MOL   H24023542   3.210   6.303   4.997 -0.4727 -0.9071 -1.0114
   62MOL   H24123543   3.058   6.264   4.933 -0.8967 -0.1599  1.0923
   62MOL   H24223544   3.071   6.490   4.891  0.3120 -0.4035 -0.9074
   62MOL   H24323545   2.959   6.456   5.025 -0.4135  0.4277  0.9954
   62MOL   H24423546   3.248   6.551   5.073 -0.0530 -0.7108  1.9106
   62MOL   H24523547   3.126   6.526   5.189  0.4891  2.0557  0.4550
   62MOL   H24623548   3.163   6.777   5.098  0.2596 -0.4050 -0.7150
   62MOL   H24723549   3.000   6.715   5.094  0.6667  0.9783  0.6210
   62MOL   H24823550   3.101   6.719   4.945 -2.4678  0.7915 -1.0391
   62MOL   C24923551   3.210   6.163   5.316 -0.0863  0.5586 -0.2559
   62MOL   C25023552   3.335   6.263   5.321  0.1507 -0.4170  0.3939
   62MOL   O25123553   3.453   6.186   5.351  0.2398 -0.3039  0.0356
   62MOL   C25223554   3.496   6.116   5.231  0.3312  0.0394  0.3591
   62MOL   C25323555   3.594   6.003   5.253 -0.7485  0.2658  0.3035
   62MOL   C25423556   3.651   5.934   5.125 -0.1224  0.1576  0.1276
   62MOL   C25523557   3.780   5.853   5.155 -0.3230 -0.2352 -0.2610
   62MOL   H25623558   3.235   6.062   5.349  0.8520  0.2345 -1.8953
   62MOL   H25723559   3.143   6.189   5.398  0.4486 -0.1963  0.4300
   62MOL   H25823560   3.345   6.316   5.227 -0.0974  3.1790  2.2940
   62MOL   H25923561   3.524   6.188   5.154  0.3881 -0.8559 -0.4714
   62MOL   H26023562   3.409   6.069   5.185 -1.7435  1.5584  2.6603
   62MOL   H26123563   3.675   6.049   5.308  0.1209  0.2868 -0.9721
   62MOL   H26223564   3.551   5.927   5.318  0.1972  0.0065  0.6267
   62MOL   H26323565   3.583   5.870   5.069 -0.2059 -1.2480  1.7683
   62MOL   H26423566   3.681   6.017   5.062 -1.4439 -0.4830 -1.3702
   62MOL   H26523567   3.842   5.910   5.224  2.4251 -3.6740  0.2697
   62MOL   H26623568   3.838   5.848   5.062  0.9900  1.6602  0.4384
   62MOL   H26723569   3.772   5.756   5.204  0.4798 -1.0483 -1.6889
   62MOL   C26823570   3.318   6.367   5.429 -0.4350 -0.4149 -0.4571
   62MOL   C26923571   3.439   6.464   5.453 -0.2363  0.3652 -0.1258
   62MOL   O27023572   3.456   6.549   5.335 -0.0586 -0.4663 -0.1755
   62MOL   C27123573   3.585   6.529   5.266  0.8498  0.0868  0.2673
   62MOL   C27223574   3.592   6.631   5.151 -0.4043  0.2883 -0.0139
   62MOL   C27323575   3.717   6.637   5.063 -0.8711 -0.3459  0.6198
   62MOL   C27423576   3.704   6.744   4.953 -0.6224  0.4107  0.2871
   62MOL   H27523577   3.230   6.429   5.411 -0.4670 -0.3854 -0.1930
   62MOL   H27623578   3.287   6.317   5.520 -0.7249  2.4024  1.0485
   62MOL   H27723579   3.530   6.408   5.473 -0.8514 -1.1326 -1.3754
   62MOL   H27823580   3.670   6.551   5.331 -0.7552  2.3721  1.6515
   62MOL   H27923581   3.592   6.429   5.223  0.6693  0.6211 -1.0151
   62MOL   H28023582   3.511   6.601   5.084  2.1532 -1.6141 -2.4027
   62MOL   H28123583   3.579   6.730   5.195  0.8227  0.8183 -0.8028
   62MOL   H28223584   3.738   6.542   5.014  0.0972 -0.3120  0.9537
   62MOL   H28323585   3.813   6.647   5.114  0.9685 -2.5304 -2.1888
   62MOL   H28423586   3.692   6.844   4.995 -2.5964  0.2479  0.1571
   62MOL   H28523587   3.624   6.721   4.883 -1.3466  1.5504  0.7147
   62MOL   H28623588   3.797   6.732   4.899  0.4789 -1.8876  2.6075
   62MOL   C28723589   3.410   6.552   5.572  0.2350 -0.3194  0.1148
   62MOL   C28823590   3.395   6.489   5.711 -0.6247  0.4211 -0.3435
   62MOL   O28923591   3.377   6.594   5.800  0.3932 -0.5001 -0.4817
   62MOL   C29023592   3.245   6.620   5.847 -0.2402 -0.8293 -0.2726
   62MOL   C29123593   3.258   6.760   5.918 -0.1916 -0.1078  0.0073
   62MOL   C29223594   3.231   6.880   5.829 -0.3732  0.7605  0.6690
   62MOL   C29323595   3.275   7.011   5.897  0.5689  0.6707  0.7278
   62MOL   H29423596   3.311   6.595   5.557  0.6938  1.1147  0.9969
   62MOL   H29523597   3.486   6.630   5.580 -0.5108  0.1234  4.0707
   62MOL   H29623598   3.311   6.420   5.713 -0.0565 -0.2625  1.1442
   62MOL   H29723599   3.169   6.608   5.770 -0.7855 -0.4739  0.2073
   62MOL   H29823600   3.216   6.547   5.922  1.6001 -0.4952  0.7846
   62MOL   H29923601   3.346   6.759   5.982  0.1769  3.1034 -0.3514
   62MOL   H30023602   3.183   6.766   5.998 -2.3623  1.7850 -2.0932
   62MOL   H30123603   3.129   6.883   5.790 -1.0071 -1.0899  2.1033
   62MOL   H30223604   3.288   6.864   5.738  0.9923  3.5679  0.9872
   62MOL   H30323605   3.383   7.005   5.914  0.5416 -0.8087  0.4229
   62MOL   H30423606   3.249   7.096   5.834  0.1476  0.4280  0.5796
   62MOL   H30523607   3.223   7.031   5.991 -1.8981  1.8931 -0.8577
   62MOL   C30623608   3.523   6.412   5.756 -0.1492  0.0705 -0.4312
   62MOL   C30723609   3.493   6.314   5.872  1.0999  0.1665 -0.0404
   62MOL   O30823610   3.626   6.270   5.917 -0.1135 -0.0935  0.3455
   62MOL   C30923611   3.670   6.337   6.036 -0.2901 -0.0701 -0.1241
   62MOL   C31023612   3.808   6.287   6.086  0.3832  0.0385 -0.2367
   62MOL   C31123613   3.924   6.310   5.996 -0.2131  0.1729  0.1648
   62MOL   C31223614   4.052   6.227   6.027  0.9481 -0.8355  0.7518
   62MOL   H31323615   3.574   6.355   5.679 -0.0193  1.1733 -1.1629
   62MOL   H31423616   3.602   6.474   5.797  0.9798 -2.6745  1.6738
   62MOL   H31523617   3.436   6.378   5.939  1.2792  1.9521 -1.5365
   62MOL   H31623618   3.608   6.317   6.123 -1.3608  1.7101 -0.4455
   62MOL   H31723619   3.674   6.446   6.028 -0.5179 -0.0740 -0.3101
   62MOL   H31823620   3.802   6.179   6.105  0.0455  0.5281  2.6096
   62MOL   H31923621   3.831   6.335   6.181  0.2280 -1.8194  0.7632
   62MOL   H32023622   3.903   6.298   5.889  0.1029  1.1597 -0.0148
   62MOL   H32123623   3.950   6.415   6.009 -2.0244  0.5829  0.6249
   62MOL   H32223624   4.120   6.276   6.097  2.2947  2.6434 -2.7610
   62MOL   H32323625   4.103   6.208   5.932 -1.5530  2.1067 -1.3065
   62MOL   H32423626   4.018   6.128   6.054  1.5494 -2.0195 -2.6062
   62MOL   C32523627   3.418   6.193   5.828 -0.8409  0.1416  0.3927
   62MOL   C32623628   3.385   6.095   5.944 -0.1853  0.1250  0.7046
   62MOL   O32723629   3.305   6.169   6.030  0.0494 -0.3687 -0.0459
   62MOL   C32823630   3.309   6.139   6.164 -0.4352 -0.0462 -0.4952
   62MOL   C32923631   3.237   6.250   6.238 -0.5296 -0.0776 -0.5064
   62MOL   C33023632   3.294   6.394   6.203 -0.0506  0.3552  0.7154
   62MOL   C33123633   3.269   6.509   6.300  0.3056 -0.4424  0.1806
   62MOL   H33223634   3.487   6.146   5.758 -1.4732  1.8161 -1.3905
   62MOL   H33323635   3.322   6.208   5.779 -1.0156  1.3965  1.1048
   62MOL   H33423636   3.478   6.072   5.997  0.2143  1.7742  0.7409
   62MOL   H33523637   3.414   6.156   6.186 -0.7957 -0.0154  1.2092
   62MOL   H33623638   3.287   6.034   6.182  2.3504 -0.4173  1.0154
   62MOL   H33723639   3.128   6.243   6.234 -0.6238 -0.6599  2.1111
   62MOL   H33823640   3.263   6.211   6.336 -0.8145  0.4270 -0.2308
   62MOL   H33923641   3.255   6.415   6.103  0.5760 -4.2316 -0.6212
   62MOL   H34023642   3.402   6.387   6.191 -0.2872 -0.4007 -1.1789
   62MOL   H34123643   3.336   6.494   6.385 -0.4071 -0.1064  0.8086
   62MOL   H34223644   3.165   6.515   6.332 -0.2018  0.5476 -1.6033
   62MOL   H34323645   3.284   6.608   6.257  1.2917 -0.1726  1.1239
   62MOL   C34423646   3.304   5.965   5.896 -0.3762  0.1006 -0.4378
   62MOL   C34523647   3.358   5.897   5.766  0.5185  0.2083  0.0988
   62MOL   O34623648   3.284   5.778   5.728 -0.1771  0.1002 -0.2013
   62MOL   C34723649   3.151   5.799   5.700  0.4196 -0.5691 -0.8728
   62MOL   C34823650   3.126   5.712   5.576 -0.2469 -0.0689  0.3573
   62MOL   C34923651   3.196   5.763   5.447  0.3564 -0.4917 -1.2446
   62MOL   C35023652   3.188   5.676   5.320  0.2233  0.0959 -0.1002
   62MOL   H35123653   3.320   5.896   5.979 -0.1379  0.2586 -0.3478
   62MOL   H35223654   3.202   6.000   5.887 -0.0315  1.2340 -0.0189
   62MOL   H35323655   3.338   5.963   5.682 -1.1202 -0.7566 -0.2855
   62MOL   H35423656   3.122   5.902   5.681 -1.7027 -0.8383  0.6882
   62MOL   H35523657   3.091   5.759   5.782 -1.6906 -2.9686 -3.4597
   62MOL   H35623658   3.018   5.703   5.560 -0.0810  1.0038 -1.5935
   62MOL   H35723659   3.165   5.613   5.601  1.4799  0.5375  0.1282
   62MOL   H35823660   3.159   5.860   5.414  1.0450 -0.9544 -3.4195
   62MOL   H35923661   3.302   5.776   5.470  0.4013 -1.0012 -1.1577
   62MOL   H36023662   3.226   5.576   5.337 -1.9590 -0.7533 -0.0639
   62MOL   H36123663   3.252   5.720   5.243 -2.5256  1.4478 -1.6657
   62MOL   H36223664   3.089   5.677   5.274  0.8438 -1.0835 -1.4797
   62MOL   C36323665   3.498   5.846   5.785  0.1888  0.1616  0.4467
   62MOL   C36423666   3.579   5.827   5.655  0.1092  0.2729 -0.4668
   62MOL   O36523667   3.708   5.777   5.689  0.3235 -0.4154  0.0134
   62MOL   C36623668   3.793   5.762   5.574 -0.3788 -0.1198 -0.5538
   62MOL   C36723669   3.921   5.697   5.619  0.1580  0.1367  1.2300
   62MOL   C36823670   4.002   5.653   5.501  0.4903 -0.4418  0.2939
   62MOL   C36923671   3.960   5.519   5.434 -0.1669 -0.1277 -0.2228
   62MOL   H37023672   3.494   5.751   5.837 -2.0453  0.8228  1.5417
   62MOL   H37123673   3.554   5.917   5.846 -0.6967  2.0387 -0.8482
   62MOL   H37223674   3.595   5.921   5.603  0.5342  0.2607 -0.3578
   62MOL   H37323675   3.804   5.849   5.510  1.4526  0.2687  0.2612
   62MOL   H37423676   3.739   5.688   5.515  1.0811 -2.3073  0.7807
   62MOL   H37523677   3.905   5.610   5.683  1.4034 -0.6405  0.5053
   62MOL   H37623678   3.975   5.767   5.682 -0.7801  0.9108  1.1956
   62MOL   H37723679   4.107   5.658   5.531  0.7116  0.2149 -0.5827
   62MOL   H37823680   3.995   5.728   5.423  3.8627  1.1847  1.4700
   62MOL   H37923681   3.948   5.439   5.507 -0.1031  1.1123  1.1649
   62MOL   H38023682   3.864   5.543   5.387  0.9576  1.1349 -1.9298
   62MOL   H38123683   4.026   5.482   5.355 -1.3575 -2.3527 -0.2268
   62MOL   H38223684   3.519   5.758   5.595 -0.9815  1.1820 -0.4415
   63MOL     C123685   2.171   4.007   4.201 -0.0770  0.0765 -0.6294
   63MOL     C223686   2.133   4.152   4.221  0.0064  0.2437  0.6679
   63MOL     O323687   2.228   4.206   4.306  0.0729 -0.1385  0.1332
   63MOL     C423688   2.210   4.161   4.442 -0.4702 -0.2678  0.6092
   63MOL     C523689   2.349   4.183   4.503  0.3338 -0.0660  0.2083
   63MOL     C623690   2.456   4.099   4.434  0.6371  0.5150 -0.1595
   63MOL     C723691   2.588   4.110   4.509  0.1364  0.1949  0.3189
   63MOL     H823692   2.127   3.943   4.277 -0.4033  0.9646 -0.0601
   63MOL     H923693   2.119   3.982   4.108 -0.6301 -0.9757 -0.0432
   63MOL    H1023694   2.031   4.148   4.258 -0.1271  0.3140  0.3134
   63MOL    H1123695   2.127   4.214   4.489 -1.5733 -1.5131  0.1159
   63MOL    H1223696   2.195   4.053   4.449  0.9002 -0.4500  0.7992
   63MOL    H1323697   2.348   4.168   4.611  0.8004 -0.6951  0.1314
   63MOL    H1423698   2.381   4.285   4.482 -1.1900  0.2573 -0.6368
   63MOL    H1523699   2.464   4.131   4.330  1.5376  0.3432 -0.1498
   63MOL    H1623700   2.427   3.995   4.424  0.7215  0.4387  0.3773
   63MOL    H1723701   2.672   4.053   4.469  0.1293  0.0188  0.5538
   63MOL    H1823702   2.567   4.056   4.601 -0.2451  1.4526  0.9763
   63MOL    H1923703   2.618   4.209   4.541  0.0469  0.4288 -0.3131
   63MOL    H2023704   2.279   3.998   4.190 -0.0650  0.7450 -1.1758
   63MOL    C2123705   2.132   4.233   4.094 -0.1464  0.5799  0.3494
   63MOL    C2223706   2.019   4.202   3.994  0.7683  0.3040  0.6255
   63MOL    O2323707   1.899   4.256   4.050 -0.6019  0.1239  0.3054
   63MOL    C2423708   1.781   4.195   4.013 -0.3479  0.3249 -0.4574
   63MOL    C2523709   1.671   4.235   4.110  0.1395  0.2733 -0.5783
   63MOL    C2623710   1.549   4.144   4.089 -0.3864 -0.9798 -0.1266
   63MOL    C2723711   1.419   4.188   4.157  0.7043  0.1605  0.3097
   63MOL    H2823712   2.228   4.222   4.044 -0.7850 -1.8499 -0.4051
   63MOL    H2923713   2.134   4.338   4.122 -1.8769  0.5218  0.7097
   63MOL    H3023714   2.023   4.093   3.991  1.4531  0.3641 -2.4933
   63MOL    H3123715   1.778   4.088   4.034 -0.1557  0.1650 -1.2303
   63MOL    H3223716   1.751   4.236   3.916 -3.6794  3.3178  1.7061
   63MOL    H3323717   1.715   4.232   4.210  1.9637 -0.2595 -1.3847
   63MOL    H3423718   1.635   4.338   4.105 -1.3339 -0.2143 -0.3978
   63MOL    H3523719   1.541   4.137   3.980 -0.1686  1.7742 -0.3636
   63MOL    H3623720   1.581   4.048   4.129  0.7149 -1.4689 -2.0812
   63MOL    H3723721   1.368   4.275   4.115  1.2061  0.9478  1.3142
   63MOL    H3823722   1.349   4.104   4.153  0.4255  0.4040 -0.0419
   63MOL    H3923723   1.431   4.213   4.262  0.6030  1.3105  0.0573
   63MOL    C4023724   2.032   4.260   3.850  0.0421  0.1728 -0.1854
   63MOL    C4123725   2.141   4.195   3.770  0.2486  0.6621  0.0944
   63MOL    O4223726   2.138   4.275   3.652 -0.1986 -0.7354 -0.2005
   63MOL    C4323727   2.268   4.328   3.625  0.0424  0.8120  0.2127
   63MOL    C4423728   2.260   4.379   3.481  0.0126  0.0397 -0.1845
   63MOL    C4523729   2.142   4.481   3.460  0.2917 -0.1746  0.2760
   63MOL    C4623730   2.118   4.525   3.312  0.3474 -0.1038 -0.0768
   63MOL    H4723731   2.068   4.361   3.872  0.7869 -0.1405  0.0630
   63MOL    H4823732   1.944   4.254   3.787 -0.3378  1.4251  0.2127
   63MOL    H4923733   2.235   4.206   3.824  1.1233  1.5608 -1.5660
   63MOL    H5023734   2.346   4.252   3.617 -1.3794 -0.6172 -0.5224
   63MOL    H5123735   2.303   4.409   3.688 -0.6933  0.9053  0.5131
   63MOL    H5223736   2.257   4.288   3.421  0.5414 -0.0475 -0.0749
   63MOL    H5323737   2.356   4.424   3.455  1.5819 -3.5551 -0.8939
   63MOL    H5423738   2.173   4.573   3.509  1.8554 -0.1186 -0.7749
   63MOL    H5523739   2.048   4.448   3.504 -0.0716  3.9461  2.8727
   63MOL    H5623740   2.075   4.438   3.262 -3.4548  1.7520 -0.2553
   63MOL    H5723741   2.035   4.596   3.309 -1.1097 -1.8060 -1.1527
   63MOL    H5823742   2.211   4.562   3.270  1.1347 -1.1549  0.7345
   63MOL    C5923743   2.115   4.042   3.738 -0.4424  0.8987  0.4004
   63MOL    C6023744   2.235   3.966   3.672  0.2303 -0.3929 -0.5466
   63MOL    O6123745   2.336   3.960   3.777 -0.2786  0.7451 -0.1446
   63MOL    C6223746   2.468   3.993   3.733 -0.1673  0.4822 -0.6724
   63MOL    C6323747   2.553   4.012   3.865  0.3879 -0.3211  0.9899
   63MOL    C6423748   2.522   4.121   3.971  0.8581 -0.4135 -0.3491
   63MOL    C6523749   2.530   4.258   3.908 -0.1727  0.3846  0.0363
   63MOL    H6623750   2.087   3.988   3.829  1.6076 -0.5577  0.1996
   63MOL    H6723751   2.023   4.034   3.679 -1.5513 -0.5568  2.2414
   63MOL    H6823752   2.267   4.019   3.583 -2.3549 -0.1011 -1.3464
   63MOL    H6923753   2.480   4.090   3.684  0.4023  0.4900 -0.5211
   63MOL    H7023754   2.514   3.914   3.674 -1.3467 -0.2603 -0.6116
   63MOL    H7123755   2.539   3.922   3.925  1.1970 -1.4498 -0.4697
   63MOL    H7223756   2.660   4.014   3.843  0.2199 -0.3142  0.1528
   63MOL    H7323757   2.421   4.107   4.009  1.1991  2.2116  1.7484
   63MOL    H7423758   2.590   4.113   4.056 -0.1855 -0.0929  0.5352
   63MOL    H7523759   2.442   4.274   3.847 -1.0097  0.8715  1.3343
   63MOL    H7623760   2.533   4.329   3.991  1.3702  0.5066 -0.1113
   63MOL    H7723761   2.621   4.279   3.852 -0.0262  0.2031  0.2066
   63MOL    C7823762   2.210   3.823   3.627 -1.0137  0.4601 -0.8055
   63MOL    C7923763   2.160   3.798   3.491 -0.2306 -0.2213 -0.3463
   63MOL    O8023764   2.034   3.860   3.466 -0.4845  0.6541  0.3476
   63MOL    C8123765   2.035   3.990   3.393 -0.5132 -0.2229 -0.0916
   63MOL    C8223766   1.900   4.049   3.390  0.6664 -0.1106 -0.3780
   63MOL    C8323767   1.795   3.968   3.316  0.0862  0.0988  0.1816
   63MOL    C8423768   1.659   4.032   3.297  0.7788 -0.3153 -0.2188
   63MOL    H8523769   2.149   3.764   3.695  1.0813 -1.0756 -0.1792
   63MOL    H8623770   2.299   3.762   3.647 -0.9845  1.4513  2.2774
   63MOL    H8723771   2.236   3.830   3.420  0.6935 -0.3585  0.5749
   63MOL    H8823772   2.064   3.968   3.291  1.0194  1.2320  0.0049
   63MOL    H8923773   2.108   4.060   3.435  1.4620 -1.9282 -0.6181
   63MOL    H9023774   1.868   4.067   3.492  2.1870 -0.0514  0.0959
   63MOL    H9123775   1.916   4.150   3.353  3.0420 -0.6903 -1.0119
   63MOL    H9223776   1.771   3.879   3.373  0.5526 -0.6864 -0.8256
   63MOL    H9323777   1.833   3.935   3.219  0.2452 -0.9556  0.5948
   63MOL    H9423778   1.607   4.046   3.392 -1.1466 -1.0905 -1.1227
   63MOL    H9523779   1.675   4.127   3.247  0.2757  0.0839  0.3691
   63MOL    H9623780   1.594   3.965   3.241 -0.9527  0.5643  0.7024
   63MOL    C9723781   2.139   3.642   3.475 -0.5587 -0.7122 -0.3044
   63MOL    C9823782   2.097   3.597   3.340 -0.6401  0.0025  0.6976
   63MOL    O9923783   2.193   3.622   3.237  0.8540  0.4529  0.0979
   63MOL   C10023784   2.177   3.737   3.159 -0.3331 -0.0827 -0.0543
   63MOL   C10123785   2.269   3.713   3.051 -0.0637 -0.1433  0.6785
   63MOL   C10223786   2.283   3.821   2.942  0.7532 -0.3533  0.0537
   63MOL   C10323787   2.401   3.791   2.850 -0.3122 -0.0051  0.6779
   63MOL   H10423788   2.063   3.625   3.551 -0.4224 -1.4438 -0.3282
   63MOL   H10523789   2.229   3.589   3.507 -0.0973 -0.3218 -0.9254
   63MOL   H10623790   2.013   3.659   3.308 -0.3733 -1.4219 -2.9685
   63MOL   H10723791   2.235   3.815   3.208 -0.1884 -0.1827 -0.0659
   63MOL   H10823792   2.076   3.766   3.132 -0.8140 -1.1499  0.5447
   63MOL   H10923793   2.233   3.627   2.993  1.3469  0.5998 -1.3560
   63MOL   H11023794   2.369   3.687   3.086 -0.2312 -1.5424  0.1890
   63MOL   H11123795   2.315   3.917   2.983 -1.9302  0.3231  0.7194
   63MOL   H11223796   2.187   3.839   2.892  1.8147  2.3291 -1.1292
   63MOL   H11323797   2.377   3.688   2.823 -0.2409 -0.9511  3.9950
   63MOL   H11423798   2.419   3.857   2.765  1.5700  0.6700  1.5968
   63MOL   H11523799   2.497   3.788   2.901  0.1950 -0.3192 -0.2879
   63MOL   C11623800   2.080   3.448   3.335  0.7619  0.2754 -0.3147
   63MOL   C11723801   1.937   3.394   3.299  0.2201  0.3158  0.1946
   63MOL   O11823802   1.951   3.252   3.299  0.1719 -0.3940  0.4488
   63MOL   C11923803   1.929   3.188   3.177  0.5511  1.2392 -0.6658
   63MOL   C12023804   1.937   3.040   3.206  0.3195 -0.4325 -0.0233
   63MOL   C12123805   2.077   2.989   3.254  0.3338 -0.2640 -0.3263
   63MOL   C12223806   2.070   2.835   3.251  0.0567 -0.1473 -0.5991
   63MOL   H12323807   2.141   3.417   3.250  1.3529  0.9205 -0.1391
   63MOL   H12423808   2.132   3.408   3.423 -1.4046 -0.7949  0.5302
   63MOL   H12523809   1.893   3.428   3.205  2.5905 -1.9522 -1.8358
   63MOL   H12623810   2.008   3.220   3.108  0.5937 -0.9323 -1.6735
   63MOL   H12723811   1.832   3.219   3.139 -0.2931  0.0991  0.5465
   63MOL   H12823812   1.906   2.994   3.112 -0.9176  2.3104 -1.0076
   63MOL   H12923813   1.864   3.025   3.286  1.3047  0.2631  1.0291
   63MOL   H13023814   2.152   3.031   3.187  1.2470 -1.2805  0.0451
   63MOL   H13123815   2.100   3.032   3.352  0.9789  1.3071 -1.1412
   63MOL   H13223816   2.152   2.798   3.314 -1.1284  1.2159  1.8229
   63MOL   H13323817   2.070   2.789   3.152 -0.0003 -2.1109  0.2763
   63MOL   H13423818   1.971   2.808   3.288 -0.2490  1.1906 -0.4191
   63MOL   C13523819   1.838   3.428   3.409 -0.6493  0.4341  0.6760
   63MOL   C13623820   1.698   3.351   3.421 -0.0944 -0.2564  0.2234
   63MOL   O13723821   1.616   3.399   3.526  0.2152  0.6480  0.0383
   63MOL   C13823822   1.657   3.354   3.658 -0.4648 -0.0009 -0.0552
   63MOL   C13923823   1.578   3.408   3.777 -0.4129 -0.0817  0.5258
   63MOL   C14023824   1.624   3.341   3.910 -0.0723  0.7792 -0.3431
   63MOL   C14123825   1.540   3.397   4.023 -0.2261 -0.6187  0.6624
   63MOL   H14223826   1.812   3.534   3.419 -2.4970  0.0083  0.5204
   63MOL   H14323827   1.895   3.409   3.500 -1.9727  1.6673  1.7939
   63MOL   H14423828   1.725   3.246   3.426 -0.0146 -0.3681 -1.9085
   63MOL   H14523829   1.763   3.375   3.670 -0.2857 -2.1557  2.7318
   63MOL   H14623830   1.649   3.246   3.668  0.1379  0.0826  1.4213
   63MOL   H14723831   1.473   3.379   3.766 -1.3243  3.7639 -1.8861
   63MOL   H14823832   1.594   3.514   3.793  0.0401 -0.0482 -0.1464
   63MOL   H14923833   1.622   3.233   3.912  0.2023  0.7887  2.2392
   63MOL   H15023834   1.728   3.362   3.936 -0.1481  0.6131  0.1076
   63MOL   H15123835   1.435   3.377   4.003 -0.4191  1.3771 -0.3837
   63MOL   H15223836   1.565   3.368   4.126 -0.2337 -0.1907  0.7860
   63MOL   H15323837   1.555   3.504   4.031  2.3083 -1.1640  4.8710
   63MOL   C15423838   1.605   3.381   3.294  0.0335  0.5866 -0.2191
   63MOL   C15523839   1.471   3.310   3.299 -0.0511 -0.0569 -0.0931
   63MOL   O15623840   1.492   3.172   3.268 -0.3611  0.5910  0.2910
   63MOL   C15723841   1.467   3.081   3.371 -0.0363  0.7656 -0.4340
   63MOL   C15823842   1.548   2.951   3.353 -0.3489  0.4499  0.3599
   63MOL   C15923843   1.526   2.883   3.226  1.0048  0.5817  0.4761
   63MOL   C16023844   1.612   2.753   3.219 -0.3300 -0.2379  0.4903
   63MOL   H16123845   1.656   3.345   3.205 -3.0732 -1.4425 -1.2573
   63MOL   H16223846   1.593   3.490   3.294 -0.0126  0.5892 -1.4724
   63MOL   H16323847   1.422   3.314   3.396 -0.1209 -2.1900 -0.0295
   63MOL   H16423848   1.492   3.121   3.469 -0.6775  1.7355 -0.6601
   63MOL   H16523849   1.363   3.049   3.374 -0.6852  2.6375 -1.5639
   63MOL   H16623850   1.534   2.882   3.435  2.8907 -1.0176 -0.2837
   63MOL   H16723851   1.653   2.976   3.342 -0.3776  0.1719 -0.6080
   63MOL   H16823852   1.421   2.856   3.211  1.8613 -1.4169 -2.1468
   63MOL   H16923853   1.552   2.954   3.148 -1.9689 -0.7622 -1.8403
   63MOL   H17023854   1.719   2.765   3.236 -0.1335 -0.7254 -0.3632
   63MOL   H17123855   1.570   2.671   3.279 -0.1337 -0.3366  0.4929
   63MOL   H17223856   1.599   2.711   3.119  0.6806 -0.4500  0.4415
   63MOL   C17323857   1.384   3.367   3.185  0.6055 -0.2412 -0.0698
   63MOL   C17423858   1.246   3.297   3.174  0.4505 -0.3735 -0.3994
   63MOL   O17523859   1.136   3.380   3.160  0.7224 -0.3749  0.4984
   63MOL   C17623860   1.094   3.431   3.285 -0.3374 -0.2462  0.3762
   63MOL   C17723861   0.973   3.528   3.263 -0.0022  0.0272 -0.1440
   63MOL   C17823862   0.951   3.605   3.393  0.5384 -0.5250 -0.5497
   63MOL   C17923863   0.819   3.686   3.411  0.5644 -0.0304  0.1169
   63MOL   H18023864   1.430   3.378   3.087  0.6386  0.0264 -0.0230
   63MOL   H18123865   1.359   3.466   3.223 -0.3358 -0.1588 -0.8783
   63MOL   H18223866   1.234   3.237   3.264 -2.7335 -1.0142 -1.2095
   63MOL   H18323867   1.172   3.482   3.342 -2.4663  2.0701  1.3397
   63MOL   H18423868   1.063   3.346   3.344  0.3527 -0.3693  0.5679
   63MOL   H18523869   0.888   3.478   3.217  1.7888 -1.6981 -1.6437
   63MOL   H18623870   1.009   3.597   3.186  3.8891 -1.2195  0.4264
   63MOL   H18723871   0.949   3.527   3.469 -0.0757 -1.3578 -1.4120
   63MOL   H18823872   1.039   3.669   3.405  0.1575 -0.4549  2.1955
   63MOL   H18923873   0.822   3.748   3.501 -2.0881  1.0547 -0.5068
   63MOL   H19023874   0.795   3.757   3.333  0.2985 -1.5145 -1.1724
   63MOL   H19123875   0.737   3.615   3.417  1.4556 -1.0449  0.4314
   63MOL   C19223876   1.246   3.209   3.051  0.7520  0.0874  0.7797
   63MOL   C19323877   1.121   3.114   3.037  0.7049  0.2445  0.3573
   63MOL   O19423878   1.122   3.054   2.903  0.0091  0.1220 -0.6594
   63MOL   C19523879   1.053   3.118   2.795 -0.4919  0.6214 -0.0636
   63MOL   C19623880   1.096   3.058   2.661  0.1321 -0.3329 -0.9374
   63MOL   C19723881   1.245   3.055   2.656 -0.8214  0.1062 -0.6236
   63MOL   C19823882   1.304   3.001   2.527  0.2054  0.0235  0.7250
   63MOL   H19923883   1.343   3.162   3.031 -0.1695 -0.3809 -2.8338
   63MOL   H20023884   1.250   3.276   2.966 -0.3357 -0.2474  0.4569
   63MOL   H20123885   1.025   3.163   3.052 -0.0674 -0.9013 -0.7203
   63MOL   H20223886   1.082   3.223   2.789 -3.8604  1.6863  0.9785
   63MOL   H20323887   0.945   3.112   2.811 -0.3911  0.0095  0.4112
   63MOL   H20423888   1.064   2.955   2.646 -0.3731  0.0577 -2.7233
   63MOL   H20523889   1.049   3.109   2.576 -0.5624 -0.1187 -0.4275
   63MOL   H20623890   1.280   2.991   2.737 -0.3411 -0.5960 -1.3889
   63MOL   H20723891   1.287   3.151   2.686 -2.3011  0.3675  0.7015
   63MOL   H20823892   1.406   2.960   2.527 -0.1282 -0.8815 -1.0930
   63MOL   H20923893   1.249   2.915   2.489 -1.3521  2.6544 -3.3418
   63MOL   H21023894   1.306   3.081   2.453  3.5425 -2.2371 -1.8399
   63MOL   C21123895   1.133   2.990   3.125 -0.2285  0.1405  0.3771
   63MOL   C21223896   0.995   2.915   3.133  0.1393  0.0852 -0.4135
   63MOL   O21323897   1.016   2.793   3.206  0.0125 -0.4173  0.5439
   63MOL   C21423898   1.057   2.693   3.114 -0.2122 -0.2403  0.0915
   63MOL   C21523899   1.089   2.559   3.185  0.5775 -0.0503  0.4177
   63MOL   C21623900   0.988   2.517   3.288 -0.1099 -0.5317 -0.5823
   63MOL   C21723901   0.847   2.480   3.225  0.2458  0.2687 -0.3946
   63MOL   H21823902   1.166   3.002   3.228 -1.2231 -0.4884  0.7717
   63MOL   H21923903   1.216   2.928   3.091  0.1922  0.5970  0.5557
   63MOL   H22023904   0.949   2.887   3.038 -0.9575 -0.5793  0.3043
   63MOL   H22123905   0.978   2.681   3.040  1.8579 -1.5909 -1.9549
   63MOL   H22223906   1.148   2.723   3.064  0.1237 -3.3726 -1.2489
   63MOL   H22323907   1.106   2.485   3.107  0.8551 -0.5481  0.9463
   63MOL   H22423908   1.188   2.580   3.226  0.7028 -0.6453  0.4232
   63MOL   H22523909   0.968   2.596   3.361 -2.6500 -0.5575 -1.1897
   63MOL   H22623910   1.036   2.429   3.332  2.4454 -0.0917 -2.3932
   63MOL   H22723911   0.874   2.392   3.166  0.8574  0.3734 -0.2750
   63MOL   H22823912   0.810   2.563   3.165 -2.2373  1.0431  2.1232
   63MOL   H22923913   0.783   2.467   3.311  1.4460  1.1755  0.6590
   63MOL   C23023914   0.890   2.987   3.219 -0.4357  0.2169  0.5498
   63MOL   C23123915   0.755   2.922   3.232  0.5761  0.6914 -0.2957
   63MOL   O23223916   0.701   2.964   3.356 -0.1478  0.1386  0.3949
   63MOL   C23323917   0.688   2.855   3.450 -0.0756  0.2909 -0.3916
   63MOL   C23423918   0.563   2.772   3.413 -0.1601  0.5904  0.7693
   63MOL   C23523919   0.432   2.855   3.431  0.3750 -0.0090  0.3563
   63MOL   C23623920   0.310   2.767   3.417 -0.1266 -0.4510 -0.0383
   63MOL   H23723921   0.887   3.095   3.206 -1.9101 -0.0715 -1.7203
   63MOL   H23823922   0.931   2.986   3.320 -0.8921 -1.8436  0.7373
   63MOL   H23923923   0.765   2.814   3.226  1.6295  0.7628  0.2376
   63MOL   H24023924   0.782   2.801   3.448 -1.1961 -1.7031  0.1213
   63MOL   H24123925   0.682   2.909   3.545  0.9809  2.2065 -1.3677
   63MOL   H24223926   0.558   2.749   3.306 -0.4368  0.2207  0.8613
   63MOL   H24323927   0.553   2.677   3.466 -0.3281  0.4303  0.4516
   63MOL   H24423928   0.434   2.934   3.356  0.0684 -0.2879  0.0468
   63MOL   H24523929   0.434   2.897   3.531  0.1958 -0.8771  0.7333
   63MOL   H24623930   0.212   2.815   3.420 -0.7361 -1.5930 -1.1886
   63MOL   H24723931   0.309   2.682   3.485 -0.4107 -1.7791 -1.6860
   63MOL   H24823932   0.298   2.721   3.319 -0.2973 -1.1371  0.3030
   63MOL   C24923933   0.650   2.971   3.129  0.5804  0.2486  0.1921
   63MOL   C25023934   0.655   2.908   2.987  1.5557 -0.3329 -0.1840
   63MOL   O25123935   0.566   2.978   2.899 -0.3364 -0.3693 -0.3111
   63MOL   C25223936   0.625   3.083   2.812  0.2822  0.1708 -0.5254
   63MOL   C25323937   0.508   3.144   2.732 -0.3650  0.8206 -0.4647
   63MOL   C25423938   0.563   3.245   2.631 -0.4444  0.1592  0.7882
   63MOL   C25523939   0.430   3.293   2.559  0.5370 -0.5777  0.2694
   63MOL   H25623940   0.669   3.077   3.111 -0.5458  0.4274  0.0681
   63MOL   H25723941   0.547   2.981   3.162  0.0242 -3.7698 -0.0997
   63MOL   H25823942   0.756   2.916   2.947  1.3729  2.2883 -0.2137
   63MOL   H25923943   0.700   3.037   2.748 -0.0733  1.9380 -2.2832
   63MOL   H26023944   0.677   3.160   2.870  1.7696 -0.2767 -1.2385
   63MOL   H26123945   0.463   3.062   2.676 -1.4171  0.1040  1.3891
   63MOL   H26223946   0.430   3.181   2.798 -1.2964 -0.3102 -0.9251
   63MOL   H26323947   0.601   3.324   2.695 -3.2020  1.6236  0.6930
   63MOL   H26423948   0.636   3.207   2.560 -0.9828  2.7294 -1.2013
   63MOL   H26523949   0.439   3.383   2.497 -2.0317 -0.5471 -0.1108
   63MOL   H26623950   0.344   3.294   2.626  0.3498 -1.2325  0.0386
   63MOL   H26723951   0.393   3.224   2.484 -0.2959  0.0116  0.1308
   63MOL   C26823952   0.624   2.761   2.983 -0.8682 -0.4559 -0.2450
   63MOL   C26923953   0.678   2.688   2.858  0.1503 -0.1916  0.1095
   63MOL   O27023954   0.815   2.692   2.860  0.2328 -0.3980 -0.1143
   63MOL   C27123955   0.886   2.731   2.745  0.6684 -0.2654 -0.5110
   63MOL   C27223956   1.027   2.674   2.747  0.3299 -1.1688  0.4542
   63MOL   C27323957   1.029   2.521   2.759  0.2641 -0.0227  0.1118
   63MOL   C27423958   1.164   2.466   2.706  0.1005  0.0361  0.0223
   63MOL   H27523959   0.664   2.710   3.070  0.0441 -1.0851 -1.0236
   63MOL   H27623960   0.519   2.731   2.989 -0.1888 -2.6480  1.1169
   63MOL   H27723961   0.635   2.745   2.776  0.9027  0.4469  0.1554
   63MOL   H27823962   0.840   2.701   2.651  0.2523  1.1157 -0.7610
   63MOL   H27923963   0.885   2.840   2.750 -1.0609 -0.2948  0.1196
   63MOL   H28023964   1.068   2.701   2.650  0.0690 -2.4824 -0.0307
   63MOL   H28123965   1.090   2.722   2.821  0.4490 -3.7610  2.0951
   63MOL   H28223966   0.945   2.479   2.704  0.1014  1.3428 -0.7161
   63MOL   H28323967   1.022   2.505   2.866  1.0349  0.9555  0.3252
   63MOL   H28423968   1.187   2.372   2.756  1.8543 -0.6977 -2.0853
   63MOL   H28523969   1.251   2.529   2.727  1.7180 -2.1264  0.0107
   63MOL   H28623970   1.164   2.443   2.599 -0.2611 -3.2685  0.6636
   63MOL   C28723971   0.638   2.541   2.864 -0.2718 -0.0085 -0.2888
   63MOL   C28823972   0.622   2.472   2.721 -0.0858 -0.1152  0.0913
   63MOL   O28923973   0.488   2.502   2.673 -0.0269  0.0342 -0.2110
   63MOL   C29023974   0.465   2.584   2.557 -0.2094  0.2437 -0.2159
   63MOL   C29123975   0.324   2.637   2.564  0.5314 -0.3452 -0.1782
   63MOL   C29223976   0.215   2.531   2.552  0.5763 -0.1327 -0.0004
   63MOL   C29323977   0.084   2.586   2.529  0.1150  0.0951  0.3077
   63MOL   H29423978   0.540   2.519   2.907  0.0590 -0.3563  0.2814
   63MOL   H29523979   0.712   2.495   2.929  0.2436 -1.5954 -1.9488
   63MOL   H29623980   0.696   2.506   2.649 -0.3675 -0.5859 -0.4325
   63MOL   H29723981   0.533   2.669   2.551 -2.3506  1.8575 -2.7128
   63MOL   H29823982   0.473   2.520   2.469  0.8477 -2.2188  1.6356
   63MOL   H29923983   0.317   2.699   2.475  0.2544 -0.8869 -0.5428
   63MOL   H30023984   0.316   2.698   2.654  0.1647  1.2277 -1.2691
   63MOL   H30123985   0.209   2.464   2.638  0.3893  0.3419  0.3553
   63MOL   H30223986   0.248   2.470   2.468  1.2321 -0.8456  0.7612
   63MOL   H30323987   0.084   2.675   2.466  0.5262  0.4127  0.7439
   63MOL   H30423988   0.018   2.518   2.476  2.5149 -2.5742  0.6036
   63MOL   H30523989   0.033   2.614   2.621 -0.5601  1.0034 -0.3312
   63MOL   C30623990   0.621   2.315   2.731 -0.1038  0.5019  0.0106
   63MOL   C30723991   0.763   2.245   2.747 -0.2454  1.0867  0.1088
   63MOL   O30823992   0.851   2.270   2.637 -0.3141  0.7213 -0.0907
   63MOL   C30923993   0.798   2.254   2.507 -0.1679 -0.5754 -0.2121
   63MOL   C31023994   0.919   2.211   2.420  0.0284  0.3043  0.2890
   63MOL   C31123995   0.866   2.174   2.279 -0.5109  0.0799  0.2160
   63MOL   C31223996   0.973   2.091   2.201 -0.1238 -0.0979 -0.2845
   63MOL   H31323997   0.566   2.288   2.821  0.2076 -0.0689  0.0263
   63MOL   H31423998   0.556   2.285   2.648 -1.8329  2.8391  0.4554
   63MOL   H31523999   0.810   2.283   2.838  1.9191 -1.4961  0.1476
   63MOL   H31624000   0.740   2.342   2.478 -0.8622 -0.8819  0.2261
   63MOL   H31724001   0.719   2.179   2.504 -1.4189  0.6168  1.2510
   63MOL   H31824002   0.961   2.121   2.463 -0.4848 -0.0344  0.0899
   63MOL   H31924003   0.992   2.291   2.410  0.0490  0.4627  1.6097
   63MOL   H32024004   0.778   2.111   2.289 -0.3776 -0.2003 -0.3494
   63MOL   H32124005   0.833   2.261   2.221  0.6190  1.8034  2.1019
   63MOL   H32224006   0.983   1.992   2.246 -1.4163 -0.3131 -0.4169
   63MOL   H32324007   1.067   2.145   2.206 -0.6977  0.8685  0.1904
   63MOL   H32424008   0.936   2.072   2.100 -2.7516 -1.6757  0.9147
   63MOL   C32524009   0.751   2.092   2.762 -0.4371  0.8486  0.6257
   63MOL   C32624010   0.877   2.022   2.800  0.0066  0.0377  0.2499
   63MOL   O32724011   0.914   2.070   2.930 -0.2803  0.0897  0.0594
   63MOL   C32824012   1.041   2.136   2.932  0.3537  0.6391  0.1763
   63MOL   C32924013   1.076   2.177   3.071 -0.6500  0.7637  0.2529
   63MOL   C33024014   1.138   2.055   3.154  0.3475 -1.2586  0.0689
   63MOL   C33124015   1.155   2.094   3.300  0.3094 -0.3220  0.0466
   63MOL   H33224016   0.706   2.050   2.672 -2.8426  1.9365  1.2882
   63MOL   H33324017   0.684   2.081   2.847  1.6896  0.6464  2.3248
   63MOL   H33424018   0.949   2.030   2.719 -0.6056  3.1556 -0.0566
   63MOL   H33524019   1.040   2.217   2.859 -1.1549  0.5707  0.0988
   63MOL   H33624020   1.117   2.072   2.888  0.0233  0.8321 -0.6870
   63MOL   H33724021   1.144   2.261   3.078 -1.0793  1.1024  0.3507
   63MOL   H33824022   0.982   2.214   3.111 -0.6919  0.0416  0.8462
   63MOL   H33924023   1.234   2.028   3.109 -0.0028 -1.3787 -0.6071
   63MOL   H34024024   1.074   1.967   3.157 -1.2765 -0.1212 -0.2790
   63MOL   H34124025   1.214   2.186   3.307 -0.5014  0.2661 -0.7596
   63MOL   H34224026   1.199   2.017   3.363 -2.3375 -2.2015 -0.3503
   63MOL   H34324027   1.063   2.133   3.343  0.6712  0.3448  0.2387
   63MOL   C34424028   0.849   1.871   2.820  0.3899  0.3914  0.0041
   63MOL   C34524029   0.970   1.792   2.860  0.0098  0.1607  0.0549
   63MOL   O34624030   1.067   1.800   2.757  0.5794  0.1689  0.5904
   63MOL   C34724031   1.208   1.805   2.783 -0.3046  0.2017 -0.5368
   63MOL   C34824032   1.282   1.796   2.648  0.0417  0.3413 -0.3512
   63MOL   C34924033   1.241   1.907   2.545 -0.3304  0.3006  0.6319
   63MOL   C35024034   1.310   1.893   2.414 -0.0235 -1.0187 -0.2233
   63MOL   H35124035   0.770   1.869   2.896 -0.1453  1.0862 -0.5226
   63MOL   H35224036   0.799   1.832   2.732 -1.7895  0.0572  1.3497
   63MOL   H35324037   1.000   1.852   2.946  1.3457  0.3721 -0.5453
   63MOL   H35424038   1.241   1.729   2.855  0.8860  3.7287  2.8389
   63MOL   H35524039   1.234   1.896   2.836  0.6078  0.3071 -1.1688
   63MOL   H35624040   1.271   1.700   2.599  1.1574 -0.1877  0.4214
   63MOL   H35724041   1.390   1.797   2.663 -0.1043  0.2195  0.7554
   63MOL   H35824042   1.135   1.904   2.519 -0.0342 -0.2667 -0.5394
   63MOL   H35924043   1.258   2.003   2.594  0.5270  0.8719 -0.7622
   63MOL   H36024044   1.418   1.906   2.420 -0.1558  0.1084 -0.3138
   63MOL   H36124045   1.266   1.966   2.346 -0.3214 -1.4054 -0.4494
   63MOL   H36224046   1.293   1.792   2.376  0.0183 -1.9733  2.2295
   63MOL   C36324047   0.948   1.648   2.910  0.1709  0.2598 -0.6852
   63MOL   C36424048   0.830   1.638   3.011 -0.2764 -0.1218  0.2319
   63MOL   O36524049   0.857   1.723   3.127  0.1244  0.2261 -0.1767
   63MOL   C36624050   0.746   1.742   3.210  0.3451 -0.3313 -0.3820
   63MOL   C36724051   0.760   1.855   3.307 -0.2242 -0.3191 -0.4711
   63MOL   C36824052   0.770   2.003   3.231  0.4823 -0.5311 -0.0398
   63MOL   C36924053   0.758   2.121   3.322  0.1675 -0.4727 -0.1919
   63MOL   H37024054   1.045   1.621   2.953  0.7424  3.4537  0.1541
   63MOL   H37124055   0.928   1.589   2.821 -1.6955 -1.0901  0.5788
   63MOL   H37224056   0.819   1.537   3.050  2.7703 -0.2733  0.7753
   63MOL   H37324057   0.708   1.654   3.263 -0.5926 -1.8736 -3.4423
   63MOL   H37424058   0.666   1.771   3.141  1.0350  1.3734 -0.4690
   63MOL   H37524059   0.853   1.844   3.362 -0.8392 -0.8206  0.4722
   63MOL   H37624060   0.690   1.860   3.390  0.5577  0.2461  0.1539
   63MOL   H37724061   0.687   2.011   3.160 -0.1053 -2.7943  0.3563
   63MOL   H37824062   0.858   2.004   3.167  0.5504 -0.1197  0.0610
   63MOL   H37924063   0.846   2.121   3.385  0.2071  0.5529 -0.2381
   63MOL   H38024064   0.748   2.210   3.259 -0.1311 -1.2797 -1.2988
   63MOL   H38124065   0.671   2.119   3.388  0.7392  0.9716  0.6382
   63MOL   H38224066   0.733   1.661   2.966  0.2756 -0.8318 -1.3461
   64MOL     C124067   0.593   1.548   1.092 -0.2039 -0.6563 -0.0091
   64MOL     C224068   0.727   1.599   1.022  0.4697  0.5253 -0.5531
   64MOL     O324069   0.689   1.723   0.959  0.0302  0.5771  0.0143
   64MOL     C424070   0.610   1.703   0.833  0.3252 -0.4608  0.5342
   64MOL     C524071   0.604   1.843   0.784  0.2569  0.5882  0.2046
   64MOL     C624072   0.522   1.941   0.872  0.3806 -0.9710  0.2193
   64MOL     C724073   0.492   2.069   0.799  0.1664 -0.3775 -0.4146
   64MOL     H824074   0.497   1.553   1.040  0.2890  1.9143 -0.7382
   64MOL     H924075   0.600   1.455   1.147 -0.2691 -0.0821  0.9920
   64MOL    H1024076   0.769   1.533   0.946 -2.2152 -1.6876 -0.1616
   64MOL    H1124077   0.664   1.649   0.756  1.3380  0.2695  0.7178
   64MOL    H1224078   0.508   1.664   0.838  0.1366 -0.4248 -2.1778
   64MOL    H1324079   0.560   1.840   0.684 -1.0383 -0.8096  0.8023
   64MOL    H1424080   0.703   1.875   0.752  0.7628 -2.3344 -1.2635
   64MOL    H1524081   0.578   1.972   0.960 -1.9975  0.8205  1.1598
   64MOL    H1624082   0.434   1.893   0.916 -1.4448  0.5467 -1.6548
   64MOL    H1724083   0.436   2.142   0.859 -0.2182 -0.2675 -0.8981
   64MOL    H1824084   0.422   2.033   0.723  0.5125 -1.3101 -0.2920
   64MOL    H1924085   0.583   2.116   0.762 -0.2019 -0.3122 -1.2554
   64MOL    H2024086   0.566   1.620   1.170  0.8629  0.0991 -0.3366
   64MOL    C2124087   0.839   1.621   1.121 -0.6253  0.1185  0.3712
   64MOL    C2224088   0.898   1.488   1.176 -0.1272 -0.5335  0.2967
   64MOL    O2324089   0.939   1.400   1.075 -0.1039 -0.6327 -0.3221
   64MOL    C2424090   0.922   1.262   1.108  0.9306  0.5443  0.1614
   64MOL    C2524091   0.927   1.182   0.983 -0.4608  0.0279  0.2864
   64MOL    C2624092   1.069   1.189   0.919 -0.1204 -0.2474 -0.9288
   64MOL    C2724093   1.089   1.093   0.798 -0.2124 -0.0251 -0.2172
   64MOL    H2824094   0.796   1.688   1.196  0.4034 -0.3515  1.4165
   64MOL    H2924095   0.923   1.657   1.062  0.0925 -0.6143  0.9361
   64MOL    H3024096   0.831   1.431   1.239 -1.2211 -1.1955 -1.4129
   64MOL    H3124097   0.834   1.235   1.166  1.1810  3.0816  1.7947
   64MOL    H3224098   1.005   1.227   1.170  0.0224 -2.6133 -0.3185
   64MOL    H3324099   0.904   1.078   1.005 -2.8456 -0.0610 -2.3136
   64MOL    H3424100   0.848   1.213   0.914  0.3373 -2.2139 -1.7007
   64MOL    H3524101   1.082   1.292   0.887 -2.9514  0.1847 -0.8952
   64MOL    H3624102   1.136   1.165   1.001  0.9617  0.0908 -1.7075
   64MOL    H3724103   1.003   1.077   0.733 -0.4187 -1.1601  0.3245
   64MOL    H3824104   1.178   1.114   0.739 -1.1072 -0.7355 -1.8332
   64MOL    H3924105   1.114   0.996   0.839 -0.0753  0.5301  1.0418
   64MOL    C4024106   1.019   1.522   1.260 -0.0480  0.4619  0.3032
   64MOL    C4124107   0.986   1.577   1.404 -0.9892 -0.1187  0.6440
   64MOL    O4224108   1.107   1.633   1.455  0.8013  0.1478 -0.0138
   64MOL    C4324109   1.136   1.764   1.414  0.1234 -0.0780  0.0736
   64MOL    C4424110   1.272   1.805   1.455  0.1763  0.1395 -0.0622
   64MOL    C4524111   1.266   1.805   1.609  0.4350  0.1812 -0.2122
   64MOL    C4624112   1.394   1.870   1.662  0.2601  0.4120 -0.1364
   64MOL    H4724113   1.069   1.606   1.211 -0.5317  0.8441  0.4660
   64MOL    H4824114   1.081   1.433   1.274 -0.8561  0.1009  1.6567
   64MOL    H4924115   0.901   1.645   1.403  0.4459  1.7206  0.5188
   64MOL    H5024116   1.062   1.837   1.446  0.8550  0.3092  0.9009
   64MOL    H5124117   1.144   1.774   1.306  0.3962 -0.0263  0.0979
   64MOL    H5224118   1.279   1.908   1.419  3.0927  0.1074  0.2855
   64MOL    H5324119   1.353   1.750   1.407 -0.0230  0.3236 -0.6179
   64MOL    H5424120   1.264   1.702   1.646  0.0327 -0.1686 -1.1942
   64MOL    H5524121   1.175   1.855   1.641  1.0471  0.2811  1.4010
   64MOL    H5624122   1.483   1.810   1.645 -0.9090 -1.9541  1.7196
   64MOL    H5724123   1.414   1.964   1.611  0.7468 -0.5202 -1.7225
   64MOL    H5824124   1.391   1.883   1.770  0.2519 -3.1683  0.3512
   64MOL    C5924125   0.969   1.450   1.500 -0.2493  0.3633 -0.5202
   64MOL    C6024126   0.906   1.485   1.634 -0.2590  1.0441 -0.3818
   64MOL    O6124127   0.774   1.533   1.620 -0.2610 -0.3177 -0.4715
   64MOL    C6224128   0.749   1.667   1.658  0.3045 -0.4738  0.1547
   64MOL    C6324129   0.611   1.717   1.617  0.4658 -0.6694  0.0492
   64MOL    C6424130   0.579   1.706   1.464 -0.3699 -0.2184  0.3023
   64MOL    C6524131   0.448   1.768   1.420 -0.7373  0.2365 -1.0132
   64MOL    H6624132   0.903   1.374   1.457 -0.3107 -1.3215  2.4051
   64MOL    H6724133   1.068   1.406   1.511 -0.2781  0.1981 -0.9397
   64MOL    H6824134   0.974   1.560   1.676  0.8572 -1.0355  1.6151
   64MOL    H6924135   0.825   1.735   1.620 -1.5392  0.6628 -1.5896
   64MOL    H7024136   0.765   1.667   1.766 -0.0025  1.3894  0.2200
   64MOL    H7124137   0.542   1.645   1.662 -0.0572 -1.3523 -1.7863
   64MOL    H7224138   0.582   1.812   1.662 -0.3054 -0.1521 -1.4673
   64MOL    H7324139   0.660   1.739   1.399 -2.1561  1.4245 -1.1031
   64MOL    H7424140   0.572   1.598   1.450 -0.8456 -0.3284  1.3303
   64MOL    H7524141   0.374   1.716   1.481  0.3593 -1.3334 -1.0144
   64MOL    H7624142   0.435   1.873   1.448 -0.5831 -0.3611  1.4223
   64MOL    H7724143   0.418   1.745   1.318  0.5215 -2.3329 -0.8361
   64MOL    C7824144   0.910   1.374   1.737 -0.4700  0.2994 -0.7341
   64MOL    C7924145   0.873   1.419   1.883  0.1183 -0.4160  0.5916
   64MOL    O8024146   0.965   1.514   1.935 -0.1162 -0.7479  0.1779
   64MOL    C8124147   0.928   1.603   2.045  0.7107  0.4452  0.3433
   64MOL    C8224148   1.002   1.737   2.024 -0.6884 -0.2602  0.5839
   64MOL    C8324149   1.150   1.721   2.069 -0.0786  0.4802 -0.0495
   64MOL    C8424150   1.230   1.649   1.965 -0.6906 -0.7458 -0.3084
   64MOL    H8524151   1.009   1.329   1.732 -0.3185  0.4369  0.8965
   64MOL    H8624152   0.832   1.304   1.706 -0.6860 -0.0046  0.4734
   64MOL    H8724153   0.770   1.454   1.880  2.0054  5.6161  0.4032
   64MOL    H8824154   0.951   1.553   2.139  0.2637  0.5428  0.5032
   64MOL    H8924155   0.820   1.619   2.042  1.1813  4.0531 -0.6565
   64MOL    H9024156   0.995   1.786   1.927  0.6218 -1.2418 -0.0320
   64MOL    H9124157   0.950   1.809   2.087 -1.2323  0.0129 -0.1848
   64MOL    H9224158   1.169   1.674   2.165 -2.2784 -0.1180  0.1326
   64MOL    H9324159   1.182   1.824   2.079 -0.3690  0.7500 -1.6734
   64MOL    H9424160   1.334   1.654   1.997 -0.1191  1.4302 -2.4288
   64MOL    H9524161   1.197   1.548   1.937 -1.7661 -0.5445  0.1947
   64MOL    H9624162   1.249   1.706   1.875  1.4045 -0.5663  0.2341
   64MOL    C9724163   0.876   1.308   1.985 -0.9225 -0.5636 -0.4207
   64MOL    C9824164   0.765   1.212   1.973 -0.2591  0.4034  0.0428
   64MOL    O9924165   0.805   1.087   2.026  0.2931  0.1195 -0.6193
   64MOL   C10024166   0.889   0.999   1.951  0.5974  0.3057  0.1567
   64MOL   C10124167   0.913   0.865   2.027 -0.0374  0.3594 -0.2980
   64MOL   C10224168   1.034   0.854   2.121 -0.0848 -0.3674 -0.3313
   64MOL   C10324169   1.170   0.854   2.044  0.3448 -0.0390  0.4878
   64MOL   H10424170   0.892   1.341   2.087 -1.0687 -0.0818 -0.5534
   64MOL   H10524171   0.968   1.258   1.954 -1.6384 -1.8985 -0.4401
   64MOL   H10624172   0.732   1.203   1.870 -2.8924 -1.1228  0.9678
   64MOL   H10724173   0.988   1.039   1.927  0.9137 -0.5397  0.0133
   64MOL   H10824174   0.837   0.979   1.858  2.9462 -0.0664 -1.1292
   64MOL   H10924175   0.914   0.791   1.947  2.0481 -2.4111  2.2007
   64MOL   H11024176   0.821   0.834   2.077 -1.2994 -0.1712 -2.8880
   64MOL   H11124177   1.022   0.759   2.173 -2.0615 -0.0677 -0.2017
   64MOL   H11224178   1.023   0.930   2.198  0.0103 -0.4373 -0.2490
   64MOL   H11324179   1.197   0.940   1.981  0.2366 -0.9122 -0.7810
   64MOL   H11424180   1.259   0.841   2.106  0.6433 -1.7552 -0.2783
   64MOL   H11524181   1.161   0.777   1.967 -1.5988 -1.8111  2.4364
   64MOL   C11624182   0.639   1.244   2.053  0.3025  0.2050 -0.3440
   64MOL   C11724183   0.656   1.244   2.209 -0.9007 -0.7314 -0.8612
   64MOL   O11824184   0.611   1.374   2.247  0.2458  0.1369 -0.4948
   64MOL   C11924185   0.697   1.451   2.321  0.0085 -0.2074 -0.7165
   64MOL   C12024186   0.638   1.589   2.364 -0.4430  0.3773 -0.0551
   64MOL   C12124187   0.749   1.689   2.391  0.1577  0.4957 -0.5499
   64MOL   C12224188   0.697   1.837   2.381 -0.2057 -0.0605  0.5216
   64MOL   H12324189   0.597   1.339   2.020  0.8059  0.0488 -1.4739
   64MOL   H12424190   0.561   1.172   2.026 -0.4413  0.0130  2.2402
   64MOL   H12524191   0.759   1.228   2.241 -1.1187 -0.6087 -0.0728
   64MOL   H12624192   0.794   1.459   2.273  2.6921  0.2769  4.4415
   64MOL   H12724193   0.719   1.396   2.413 -4.9264 -0.2981  0.5421
   64MOL   H12824194   0.575   1.581   2.452 -2.7192 -1.0403 -1.7639
   64MOL   H12924195   0.567   1.617   2.285  0.3948  1.3787 -0.4733
   64MOL   H13024196   0.805   1.670   2.483  0.1381 -1.5470 -0.9206
   64MOL   H13124197   0.818   1.671   2.309  0.2217  1.6790 -0.7500
   64MOL   H13224198   0.643   1.851   2.288 -1.9639 -1.8129  1.2209
   64MOL   H13324199   0.781   1.902   2.404  1.2373 -1.2297 -1.3926
   64MOL   H13424200   0.618   1.850   2.456 -2.9957 -1.7861 -2.0035
   64MOL   C13524201   0.563   1.144   2.277 -0.6383 -0.8038  0.0701
   64MOL   C13624202   0.550   1.152   2.434  0.2615 -0.2804  0.4605
   64MOL   O13724203   0.454   1.053   2.471  0.4924  0.3098 -0.7353
   64MOL   C13824204   0.328   1.065   2.421  0.4663  0.7775  0.3251
   64MOL   C13924205   0.239   1.015   2.537 -0.4481  0.1651 -0.7315
   64MOL   C14024206   0.268   1.084   2.679  0.6888  0.7099  0.0206
   64MOL   C14124207   0.207   1.015   2.793 -0.9029 -0.6818 -0.2711
   64MOL   H14224208   0.600   1.042   2.267  3.0130  0.3976  0.5703
   64MOL   H14324209   0.462   1.153   2.236 -0.1346 -0.4613 -1.0913
   64MOL   H14424210   0.520   1.249   2.474 -1.8012 -0.3243 -0.9329
   64MOL   H14524211   0.307   1.007   2.331  0.8577  0.0453  0.6990
   64MOL   H14624212   0.303   1.168   2.393  0.0655  0.0645 -2.0842
   64MOL   H14724213   0.267   0.913   2.563 -0.9101  0.5133  1.2784
   64MOL   H14824214   0.135   1.023   2.505 -0.5900 -0.8485 -0.5478
   64MOL   H14924215   0.374   1.095   2.701  0.9747 -0.7194 -0.5649
   64MOL   H15024216   0.242   1.188   2.663  0.1391  0.9451  2.2684
   64MOL   H15124217   0.239   1.059   2.888  1.5844  0.4707 -1.6031
   64MOL   H15224218   0.098   1.015   2.796 -0.9031 -2.3498  0.7970
   64MOL   H15324219   0.235   0.910   2.789  1.1270 -0.0926 -2.1514
   64MOL   C15424220   0.687   1.116   2.502 -0.3329  1.0492  0.7790
   64MOL   C15524221   0.696   1.123   2.656  0.6593  0.6584  0.1127
   64MOL   O15624222   0.691   1.259   2.694  0.1226  0.3540  0.5936
   64MOL   C15724223   0.574   1.315   2.738  0.2087  0.4422 -0.2202
   64MOL   C15824224   0.600   1.458   2.765  0.6122  0.4422 -0.3414
   64MOL   C15924225   0.468   1.542   2.762 -0.1592 -0.2861  0.0221
   64MOL   C16024226   0.492   1.693   2.782  0.8395 -0.1433 -0.4377
   64MOL   H16124227   0.763   1.179   2.456  1.1806  0.4925  2.4792
   64MOL   H16224228   0.701   1.012   2.472  1.7759  1.1436  1.3937
   64MOL   H16324229   0.607   1.073   2.696  1.1469  0.5409  1.0617
   64MOL   H16424230   0.495   1.304   2.664  1.6086  1.2369 -1.8511
   64MOL   H16524231   0.550   1.267   2.833 -0.4764 -2.1264 -1.6166
   64MOL   H16624232   0.663   1.503   2.689 -0.8904  0.8929 -1.3562
   64MOL   H16724233   0.665   1.465   2.852  2.6891 -0.1602 -1.8095
   64MOL   H16824234   0.427   1.539   2.661  1.7558  0.0410 -0.8000
   64MOL   H16924235   0.397   1.506   2.836 -0.6431 -0.7453 -0.6593
   64MOL   H17024236   0.501   1.719   2.887  1.2135  3.3158 -1.2498
   64MOL   H17124237   0.589   1.725   2.742  1.9521 -1.1247  1.4374
   64MOL   H17224238   0.410   1.759   2.754  0.2530 -0.0565  1.4107
   64MOL   C17324239   0.813   1.045   2.716  0.2849 -0.0440 -0.2263
   64MOL   C17424240   0.803   1.011   2.865  0.8039  0.1007 -1.0982
   64MOL   O17524241   0.694   0.914   2.880  0.0094 -0.0555  0.4020
   64MOL   C17624242   0.595   0.960   2.969 -0.0459 -0.4400  0.0801
   64MOL   C17724243   0.497   0.851   3.005  0.8400  0.5461  0.6558
   64MOL   C17824244   0.565   0.717   3.039 -0.1455 -0.2756  0.1782
   64MOL   C17924245   0.478   0.596   3.035  0.5444  0.0505  0.4847
   64MOL   H18024246   0.906   1.095   2.691  1.2346 -1.8539 -0.3480
   64MOL   H18124247   0.817   0.947   2.670  0.3994 -0.4151  0.5729
   64MOL   H18224248   0.781   1.108   2.909  0.1232 -0.8906  0.7957
   64MOL   H18324249   0.541   1.049   2.935 -0.0793 -1.2881 -2.1499
   64MOL   H18424250   0.650   0.991   3.058  1.3747  2.2826 -1.6828
   64MOL   H18524251   0.438   0.837   2.915  0.0696  0.9756  1.0868
   64MOL   H18624252   0.431   0.879   3.087  1.3233 -0.8828  1.5491
   64MOL   H18724253   0.651   0.704   2.973  1.5984  2.2979  1.8876
   64MOL   H18824254   0.612   0.727   3.136 -1.2397  1.7554  0.5098
   64MOL   H18924255   0.437   0.569   2.938 -0.6195  0.0736  0.9565
   64MOL   H19024256   0.527   0.507   3.075 -0.9239 -1.6159 -1.2996
   64MOL   H19124257   0.400   0.628   3.105 -0.4367  0.1510 -0.6459
   64MOL   C19224258   0.923   0.950   2.929  0.2520  0.3508  0.1300
   64MOL   C19324259   1.046   1.036   2.935 -0.6404  0.8103  0.3814
   64MOL   O19424260   1.044   1.132   3.045  0.2813 -0.0646 -0.7449
   64MOL   C19524261   1.144   1.236   3.035  0.0185 -0.4897  0.5712
   64MOL   C19624262   1.114   1.335   3.145 -0.2907 -0.0348  0.1503
   64MOL   C19724263   1.090   1.259   3.280  0.2540  0.5070 -0.8423
   64MOL   C19824264   1.073   1.354   3.406  0.2037 -0.2728 -1.0613
   64MOL   H19924265   0.941   0.855   2.877  2.5314  1.8449 -1.9071
   64MOL   H20024266   0.890   0.920   3.029  0.1127  0.3519  0.0847
   64MOL   H20124267   1.054   1.079   2.836 -1.1059  1.3722  0.5840
   64MOL   H20224268   1.154   1.288   2.939 -0.4089  2.9154  2.2833
   64MOL   H20324269   1.243   1.195   3.055  0.2871 -0.2145 -0.1473
   64MOL   H20424270   1.200   1.401   3.162  0.5431 -1.1832  0.4606
   64MOL   H20524271   1.028   1.398   3.124 -0.5412 -0.2756  0.4567
   64MOL   H20624272   1.182   1.202   3.297 -0.0806  0.0562 -0.5571
   64MOL   H20724273   0.999   1.200   3.274  0.9745 -0.7491  0.3741
   64MOL   H20824274   0.970   1.385   3.415  0.8423  1.0206  2.3659
   64MOL   H20924275   1.088   1.303   3.501  1.9372  0.4672 -0.9126
   64MOL   H21024276   1.145   1.436   3.413  1.5515 -1.3941 -1.5480
   64MOL   C21124277   1.173   0.939   2.948 -0.3048 -0.8338  0.2735
   64MOL   C21224278   1.185   0.868   3.090  0.4902  0.1979  0.2268
   64MOL   O21324279   1.146   0.733   3.065  0.0292  0.1464 -0.3398
   64MOL   C21424280   1.045   0.676   3.148 -0.0168  0.0110 -0.4544
   64MOL   C21524281   1.010   0.537   3.093 -0.0777 -0.0172 -0.0886
   64MOL   C21624282   0.946   0.545   2.947  0.1527 -0.1713 -0.0518
   64MOL   C21724283   0.903   0.407   2.898  0.0068 -0.0547 -0.0172
   64MOL   H21824284   1.258   1.004   2.928 -1.4870  0.5625 -0.3238
   64MOL   H21924285   1.176   0.869   2.864  1.7775  0.1749 -0.5133
   64MOL   H22024286   1.122   0.916   3.164  2.0560 -0.1241  1.8040
   64MOL   H22124287   1.087   0.663   3.248 -1.7956 -1.1520  0.1694
   64MOL   H22224288   0.957   0.739   3.159 -0.5177 -0.6997 -0.3174
   64MOL   H22324289   1.099   0.474   3.082 -0.1751 -0.7096  2.7754
   64MOL   H22424290   0.957   0.481   3.170 -0.4425 -2.1503 -1.8478
   64MOL   H22524291   1.018   0.589   2.878  0.4545 -0.5581  0.0132
   64MOL   H22624292   0.854   0.602   2.937 -0.5967 -1.6048 -1.7044
   64MOL   H22724293   0.838   0.402   2.811  1.6268  0.1577 -1.2593
   64MOL   H22824294   0.868   0.344   2.980 -1.4070 -0.7453 -1.1397
   64MOL   H22924295   0.999   0.372   2.861  0.5461  1.4003 -0.0541
   64MOL   C23024296   1.331   0.878   3.131 -0.2123 -0.4862 -0.3465
   64MOL   C23124297   1.362   0.801   3.264  0.0877  0.7799  0.1563
   64MOL   O23224298   1.494   0.817   3.290  0.5509  0.3380  0.3004
   64MOL   C23324299   1.593   0.736   3.217  0.7203 -0.5019  0.2314
   64MOL   C23424300   1.735   0.790   3.242  0.1184 -0.0158 -0.1575
   64MOL   C23524301   1.776   0.765   3.390  0.2209  0.1125 -0.5955
   64MOL   C23624302   1.915   0.824   3.412  0.6930 -0.1747  0.1860
   64MOL   H23724303   1.352   0.985   3.141  0.1302 -0.4335 -1.5609
   64MOL   H23824304   1.392   0.831   3.054  1.8643 -1.1258  1.6138
   64MOL   H23924305   1.339   0.695   3.253  0.0494  0.6250  1.7231
   64MOL   H24024306   1.587   0.629   3.239 -0.2386 -0.8361 -1.4985
   64MOL   H24124307   1.569   0.733   3.110 -0.8440  1.3624  0.5092
   64MOL   H24224308   1.811   0.744   3.178 -1.6012 -1.1009 -1.4651
   64MOL   H24324309   1.737   0.898   3.228 -3.4942  0.1653  0.4346
   64MOL   H24424310   1.782   0.659   3.417 -0.9562  0.9942  3.3083
   64MOL   H24524311   1.701   0.806   3.457  0.8093 -0.8086  0.6574
   64MOL   H24624312   1.910   0.926   3.376 -0.9552 -0.1854  0.3638
   64MOL   H24724313   1.994   0.762   3.369 -0.9264 -1.5893 -0.8372
   64MOL   H24824314   1.936   0.807   3.517  3.2484  0.8569 -0.1138
   64MOL   C24924315   1.279   0.857   3.387 -0.0375 -0.1965  0.1708
   64MOL   C25024316   1.304   0.788   3.524  0.4175 -0.1829  0.3528
   64MOL   O25124317   1.255   0.648   3.525 -0.2822  0.1552  0.1024
   64MOL   C25224318   1.370   0.561   3.512 -0.3003  0.2605  0.0208
   64MOL   C25324319   1.306   0.421   3.510 -0.1480  0.1878  0.1653
   64MOL   C25424320   1.270   0.366   3.644 -0.6522  0.1949 -0.9836
   64MOL   C25524321   1.155   0.273   3.648  0.1808  0.5512  0.2464
   64MOL   H25624322   1.171   0.848   3.384 -0.0424  0.4102 -2.8781
   64MOL   H25724323   1.287   0.965   3.396 -0.3313  0.0240 -1.9490
   64MOL   H25824324   1.410   0.797   3.545  0.9903 -1.0590 -2.0263
   64MOL   H25924325   1.437   0.583   3.595  0.4144  0.6595 -0.6656
   64MOL   H26024326   1.425   0.580   3.420 -0.6141  1.0635 -0.0098
   64MOL   H26124327   1.218   0.429   3.446  0.9083  1.0259 -1.2035
   64MOL   H26224328   1.360   0.340   3.461 -0.5338 -0.2586  0.4692
   64MOL   H26324329   1.347   0.307   3.694 -1.2725  0.6055  0.4985
   64MOL   H26424330   1.261   0.447   3.716  2.1772 -0.7234  0.4708
   64MOL   H26524331   1.067   0.334   3.628  0.7903  0.9020 -1.4584
   64MOL   H26624332   1.135   0.223   3.743 -1.9323 -0.9282 -0.9147
   64MOL   H26724333   1.163   0.194   3.573  0.6421  0.1711  0.6924
   64MOL   C26824334   1.228   0.852   3.642 -0.0795  0.4072 -0.0095
   64MOL   C26924335   1.251   0.796   3.780  0.4508 -0.1464  0.1025
   64MOL   O27024336   1.392   0.808   3.792  0.0502 -0.2913  0.0074
   64MOL   C27124337   1.459   0.728   3.884 -0.2300 -0.0854  0.4611
   64MOL   C27224338   1.612   0.749   3.879  0.1222 -0.4429 -0.1308
   64MOL   C27324339   1.679   0.680   3.755  0.6005 -0.4102  0.5595
   64MOL   C27424340   1.828   0.664   3.761 -0.4135  0.7552 -0.4780
   64MOL   H27524341   1.256   0.958   3.635  1.2380  0.1200  0.8030
   64MOL   H27624342   1.120   0.853   3.627  0.2459  1.1073 -2.5259
   64MOL   H27724343   1.218   0.692   3.786  1.9332 -0.5535  1.5909
   64MOL   H27824344   1.432   0.764   3.983  0.1610  0.1022  0.4986
   64MOL   H27924345   1.429   0.624   3.872  1.1552 -0.3208 -1.1813
   64MOL   H28024346   1.639   0.854   3.883 -3.7059  0.6420 -0.4011
   64MOL   H28124347   1.657   0.707   3.968 -1.4149  1.0410  1.3862
   64MOL   H28224348   1.656   0.742   3.668  0.1990 -2.7509 -1.0448
   64MOL   H28324349   1.630   0.585   3.734 -4.3235  2.6753 -3.1780
   64MOL   H28424350   1.856   0.603   3.847 -2.4858 -1.1593 -1.1042
   64MOL   H28524351   1.879   0.759   3.779 -0.0263  0.1574  1.8356
   64MOL   H28624352   1.860   0.615   3.669  2.4231 -0.3080  0.9898
   64MOL   C28724353   1.191   0.887   3.893  0.3592  1.5293 -0.4357
   64MOL   C28824354   1.036   0.897   3.903  0.0174  0.6606 -0.7332
   64MOL   O28924355   1.002   0.993   4.001  0.1525 -0.9869 -0.3566
   64MOL   C29024356   1.028   1.128   3.987  0.0390 -0.1152 -0.1719
   64MOL   C29124357   0.950   1.205   4.084 -0.2215 -0.6579 -0.3230
   64MOL   C29224358   0.983   1.359   4.094 -0.3860 -0.1151 -0.3222
   64MOL   C29324359   0.952   1.425   3.957 -0.1266  0.1252  0.5729
   64MOL   H29424360   1.251   0.978   3.887 -0.7497  2.2467 -0.9137
   64MOL   H29524361   1.211   0.849   3.993 -1.9258  0.3762 -0.3748
   64MOL   H29624362   1.005   0.929   3.803 -2.5286 -1.6241 -0.7170
   64MOL   H29724363   1.133   1.144   4.009 -0.5864  0.1202  2.8583
   64MOL   H29824364   1.013   1.145   3.880  1.5062  0.6994 -0.2647
   64MOL   H29924365   0.960   1.152   4.179  1.1593  0.6931  0.3113
   64MOL   H30024366   0.844   1.192   4.062  0.0790 -0.4867 -1.8757
   64MOL   H30124367   1.090   1.356   4.115 -0.6299 -1.9013  0.6807
   64MOL   H30224368   0.942   1.420   4.174  0.1844  1.0053 -0.8611
   64MOL   H30324369   0.991   1.526   3.960  0.1499 -0.0113  1.8448
   64MOL   H30424370   1.003   1.366   3.881 -2.1350 -0.2192 -0.5462
   64MOL   H30524371   0.847   1.421   3.927  0.0977  0.7153 -0.2874
   64MOL   C30624372   0.963   0.771   3.925  0.4225 -0.3456  0.1547
   64MOL   C30724373   0.830   0.744   3.849  0.0525 -0.4459 -0.0273
   64MOL   O30824374   0.855   0.736   3.706 -0.0278 -0.0527 -0.3391
   64MOL   C30924375   0.899   0.609   3.655 -0.6673 -0.1586  0.4301
   64MOL   C31024376   0.894   0.624   3.497 -0.3984 -0.1175 -0.2013
   64MOL   C31124377   0.755   0.634   3.432  0.2797 -0.4925 -0.5278
   64MOL   C31224378   0.696   0.490   3.412 -0.4017 -0.1366 -0.2323
   64MOL   H31324379   1.025   0.684   3.904 -0.5977 -1.8275  2.8769
   64MOL   H31424380   0.951   0.747   4.031  0.4058  0.1035  0.2529
   64MOL   H31524381   0.781   0.648   3.865 -2.2027  0.8865  1.4863
   64MOL   H31624382   0.829   0.531   3.687 -1.1278 -0.2852 -0.8446
   64MOL   H31724383   0.996   0.581   3.694  0.4950 -0.6528 -2.6171
   64MOL   H31824384   0.954   0.556   3.437 -2.9798 -1.1910 -1.6446
   64MOL   H31924385   0.951   0.712   3.468  0.6785  0.2166  2.7454
   64MOL   H32024386   0.680   0.690   3.487  0.3756  1.2250 -2.0911
   64MOL   H32124387   0.761   0.680   3.333 -2.4881  0.6372 -0.2074
   64MOL   H32224388   0.750   0.429   3.340 -2.3740 -0.4370 -1.5083
   64MOL   H32324389   0.591   0.500   3.382 -0.9392 -1.8419  1.0334
   64MOL   H32424390   0.698   0.437   3.507  0.5469  0.5505  0.1451
   64MOL   C32524391   0.726   0.859   3.864 -0.1529  0.0253 -0.5559
   64MOL   C32624392   0.569   0.836   3.853  0.0745 -0.0786  0.3370
   64MOL   O32724393   0.513   0.961   3.827  0.3793  0.0285 -0.2998
   64MOL   C32824394   0.493   1.052   3.935  0.8688  0.3743 -0.0063
   64MOL   C32924395   0.432   1.177   3.877 -0.1921  0.3647  0.0936
   64MOL   C33024396   0.540   1.257   3.803  0.0935 -0.6068  0.3228
   64MOL   C33124397   0.494   1.391   3.749 -0.4383 -0.6309 -0.0165
   64MOL   H33224398   0.768   0.948   3.816  1.3500 -0.0036  0.6556
   64MOL   H33324399   0.735   0.880   3.970  0.9421  1.6233 -0.9495
   64MOL   H33424400   0.531   0.791   3.945 -2.4184  1.1731 -0.0248
   64MOL   H33524401   0.585   1.075   3.988  2.5033 -2.8801 -1.2791
   64MOL   H33624402   0.432   1.003   4.011 -2.6446  0.6001 -2.5480
   64MOL   H33724403   0.351   1.159   3.806  0.5405 -0.2724 -0.5872
   64MOL   H33824404   0.389   1.242   3.953  0.4375  0.6300  0.2310
   64MOL   H33924405   0.573   1.201   3.716 -1.6742  1.1801 -1.5508
   64MOL   H34024406   0.631   1.276   3.860  1.7160 -1.1364 -2.0137
   64MOL   H34124407   0.450   1.451   3.829 -0.4790 -1.2692  0.4412
   64MOL   H34224408   0.413   1.377   3.677  1.1492 -0.1234 -1.9383
   64MOL   H34324409   0.569   1.456   3.704  0.8473 -1.7883  0.4076
   64MOL   C34424410   0.522   0.732   3.744 -0.2898  0.1778  0.2973
   64MOL   C34524411   0.361   0.747   3.728  0.2306  0.0625 -0.7995
   64MOL   O34624412   0.289   0.725   3.850 -0.3626  0.1399 -0.0678
   64MOL   C34724413   0.175   0.808   3.876 -0.0814 -0.3998  0.3294
   64MOL   C34824414   0.122   0.790   4.018  0.6416 -0.0341 -0.7553
   64MOL   C34924415   0.235   0.818   4.124 -0.6610  0.1195  0.6861
   64MOL   C35024416   0.195   0.770   4.264  0.1646 -0.6530 -0.1989
   64MOL   H35124417   0.568   0.766   3.651 -1.7265 -2.8716 -1.6370
   64MOL   H35224418   0.553   0.630   3.767  0.0442  0.3204  0.4884
   64MOL   H35324419   0.340   0.850   3.698  2.2217  0.3430 -1.3480
   64MOL   H35424420   0.097   0.789   3.802 -0.2935  0.0902  0.4254
   64MOL   H35524421   0.189   0.916   3.867 -0.4151 -0.3841 -0.0378
   64MOL   H35624422   0.102   0.683   4.021 -1.6170  0.2183 -4.2546
   64MOL   H35724423   0.027   0.838   4.037  0.4875 -0.2097 -1.0640
   64MOL   H35824424   0.327   0.778   4.082 -0.8716  0.0327  0.3040
   64MOL   H35924425   0.255   0.925   4.130  0.2835 -0.0133  0.0828
   64MOL   H36024426   0.158   0.668   4.272 -1.3139 -0.2893 -1.9803
   64MOL   H36124427   0.126   0.834   4.317 -1.6072 -2.0715 -0.7224
   64MOL   H36224428   0.286   0.763   4.323  0.0598 -2.4628 -0.2223
   64MOL   C36324429   0.308   0.652   3.622 -0.3457  0.3942  0.1119
   64MOL   C36424430   0.317   0.505   3.668  0.3189 -0.4797  0.5715
   64MOL   O36524431   0.253   0.421   3.567 -0.4772  0.0343  0.0025
   64MOL   C36624432   0.318   0.419   3.447  0.1393 -0.1915 -0.4383
   64MOL   C36724433   0.237   0.325   3.357 -0.0752 -0.2713 -0.1758
   64MOL   C36824434   0.310   0.265   3.227 -0.6508  0.2804  0.2113
   64MOL   C36924435   0.220   0.163   3.159 -0.4428  0.0904 -0.3375
   64MOL   H37024436   0.374   0.661   3.536 -1.4935  0.4357 -0.7663
   64MOL   H37124437   0.206   0.677   3.595 -0.7610 -1.3283  0.0372
   64MOL   H37224438   0.261   0.487   3.759  0.4934 -0.1426  0.7447
   64MOL   H37324439   0.420   0.382   3.454  0.2587  0.0400 -0.8909
   64MOL   H37424440   0.329   0.516   3.397 -0.5048  0.3417  0.4490
   64MOL   H37524441   0.138   0.365   3.339 -0.0512 -0.5081 -0.8212
   64MOL   H37624442   0.206   0.237   3.414 -0.0962 -1.3782 -1.8467
   64MOL   H37724443   0.399   0.211   3.260 -0.6519  1.2347  1.8257
   64MOL   H37824444   0.347   0.344   3.161  0.9939 -0.0598  0.7104
   64MOL   H37924445   0.234   0.157   3.052  2.0561 -1.3005  0.0408
   64MOL   H38024446   0.239   0.068   3.208 -1.8125 -0.5059 -0.9288
   64MOL   H38124447   0.114   0.189   3.171 -0.7489 -0.7464 -1.1735
   64MOL   H38224448   0.417   0.473   3.697  2.0991  4.1036 -0.0753
   65MOL     C124449   5.598   3.715   4.946  0.2273  1.1344 -0.5247
   65MOL     C224450   5.751   3.740   4.967  0.7570 -0.3365  0.5876
   65MOL     O324451   5.792   3.870   4.919 -0.0170  0.5997  0.5013
   65MOL     C424452   5.802   3.892   4.774 -0.0675  0.0214  0.7291
   65MOL     C524453   5.930   3.839   4.703 -0.3604  0.2872  0.1897
   65MOL     C624454   5.913   3.834   4.552 -0.6116 -0.1585 -0.0546
   65MOL     C724455   6.049   3.846   4.487 -0.5696  0.4683  0.6041
   65MOL     H824456   5.550   3.637   5.005  1.3637 -1.0696 -2.4536
   65MOL     H924457   5.552   3.813   4.960 -2.0104 -0.0727  0.9513
   65MOL    H1024458   5.806   3.668   4.905  0.5943 -0.3720  0.4828
   65MOL    H1124459   5.707   3.858   4.733  0.0829 -0.0804  0.4640
   65MOL    H1224460   5.804   4.001   4.773  0.0819  0.0289  1.4188
   65MOL    H1324461   5.968   3.742   4.733 -1.5315 -0.1786  0.1924
   65MOL    H1424462   6.013   3.904   4.730  0.3358 -0.3583 -0.3965
   65MOL    H1524463   5.854   3.918   4.517  0.1881  0.0751 -0.8840
   65MOL    H1624464   5.860   3.748   4.511 -0.9425  0.4965 -1.0282
   65MOL    H1724465   6.104   3.926   4.537  1.4456 -1.2914  1.2884
   65MOL    H1824466   6.041   3.863   4.379  1.2748 -1.4196  0.1357
   65MOL    H1924467   6.108   3.756   4.505 -0.0952  0.7038  0.2625
   65MOL    H2024468   5.577   3.698   4.840 -0.6780  0.1331 -0.1926
   65MOL    C2124469   5.798   3.730   5.109  0.2368 -0.3655 -0.1958
   65MOL    C2224470   5.779   3.592   5.175  0.0917 -1.1636 -0.0421
   65MOL    O2324471   5.820   3.486   5.088 -0.0516  0.0187  0.2323
   65MOL    C2424472   5.955   3.455   5.067  0.0600 -0.7409  0.8413
   65MOL    C2524473   5.965   3.342   4.969  0.2490  0.0425  0.2031
   65MOL    C2624474   6.113   3.299   4.937  0.0494  0.0899 -0.6039
   65MOL    C2724475   6.124   3.180   4.838 -0.4296 -1.0536 -0.4261
   65MOL    H2824476   5.749   3.802   5.175 -0.0391  0.2335 -1.0546
   65MOL    H2924477   5.907   3.738   5.115  0.3620 -0.1259 -2.5341
   65MOL    H3024478   5.673   3.574   5.190 -0.5093  1.7464 -0.5902
   65MOL    H3124479   6.007   3.441   5.162  1.5081  0.4418  0.2348
   65MOL    H3224480   6.010   3.535   5.017 -0.1810  0.1555  1.9951
   65MOL    H3324481   5.900   3.261   5.001 -0.1958  0.2860 -0.0785
   65MOL    H3424482   5.916   3.382   4.880  1.7156 -1.3022 -1.2517
   65MOL    H3524483   6.150   3.393   4.896 -0.1036 -0.0672 -1.0988
   65MOL    H3624484   6.156   3.292   5.037  1.1691  1.9813 -0.9301
   65MOL    H3724485   6.097   3.205   4.736 -0.9095  0.7047  0.1143
   65MOL    H3824486   6.225   3.139   4.843  1.1983  2.9427  1.8664
   65MOL    H3924487   6.057   3.099   4.869 -1.9117  0.5302  0.6097
   65MOL    C4024488   5.832   3.591   5.321 -0.1177  0.9734 -0.0043
   65MOL    C4124489   5.789   3.468   5.399 -0.3064  0.1243  0.5026
   65MOL    O4224490   5.686   3.482   5.495 -0.2239 -0.2039  0.0430
   65MOL    C4324491   5.556   3.445   5.438  0.0589  1.3518 -0.7131
   65MOL    C4424492   5.444   3.484   5.533  0.4535 -0.1959 -0.2488
   65MOL    C4524493   5.462   3.452   5.678 -0.5287  1.0419  0.0092
   65MOL    C4624494   5.335   3.477   5.757  0.2766  0.0695 -0.2037
   65MOL    H4724495   5.793   3.681   5.368 -2.5676  0.5850 -1.2141
   65MOL    H4824496   5.940   3.606   5.311  0.4823 -2.2718  1.1819
   65MOL    H4924497   5.764   3.389   5.329 -0.2238 -1.6007  2.3932
   65MOL    H5024498   5.553   3.336   5.433 -2.1839  1.3993 -0.6369
   65MOL    H5124499   5.535   3.492   5.342  1.5498  1.1906 -1.1345
   65MOL    H5224500   5.347   3.448   5.501  0.2223  1.5500 -1.5791
   65MOL    H5324501   5.434   3.593   5.527  1.9349 -0.0738 -0.6691
   65MOL    H5424502   5.540   3.517   5.717  0.4430 -0.3183  0.3495
   65MOL    H5524503   5.507   3.354   5.693 -0.6479  0.9058 -0.5023
   65MOL    H5624504   5.285   3.572   5.739 -1.2025 -0.8144 -0.9265
   65MOL    H5724505   5.264   3.402   5.722 -2.3393  2.0039  0.7917
   65MOL    H5824506   5.354   3.459   5.863 -1.8436 -1.1766  0.0135
   65MOL    C5924507   5.910   3.421   5.478  0.1448 -0.1724  0.3856
   65MOL    C6024508   5.887   3.275   5.523 -0.3459 -0.1559 -0.1350
   65MOL    O6124509   5.908   3.195   5.405  0.0446  0.0463 -0.2837
   65MOL    C6224510   5.829   3.075   5.392 -0.0745  0.0336 -0.7299
   65MOL    C6324511   5.831   3.025   5.246 -0.2579  0.1955  0.9825
   65MOL    C6424512   5.978   3.005   5.202 -0.6341  0.5050  0.3747
   65MOL    C6524513   5.987   2.924   5.071 -0.2950 -0.3554  0.2710
   65MOL    H6624514   5.999   3.430   5.416 -0.1389  2.0355  0.2814
   65MOL    H6724515   5.939   3.481   5.564  2.4858  0.5157 -0.8342
   65MOL    H6824516   5.781   3.271   5.552 -0.7372  2.6834 -1.0694
   65MOL    H6924517   5.733   3.095   5.438 -1.0721 -0.1027 -2.6977
   65MOL    H7024518   5.868   3.001   5.462 -0.7022 -1.3492 -1.8297
   65MOL    H7124519   5.772   2.934   5.236  0.6341 -0.0712 -2.2792
   65MOL    H7224520   5.788   3.094   5.174  0.2594 -0.7437 -0.2336
   65MOL    H7324521   6.029   3.101   5.199 -0.5636  0.4412 -0.9157
   65MOL    H7424522   6.034   2.955   5.281  0.2833  0.6859 -0.1586
   65MOL    H7524523   5.932   2.955   4.983  0.4301 -1.2438 -0.5067
   65MOL    H7624524   6.088   2.929   5.030 -0.1603  0.7982  0.7233
   65MOL    H7724525   5.957   2.820   5.081 -0.7083 -0.7420 -3.9954
   65MOL    C7824526   5.975   3.227   5.638  0.7838 -0.0432  0.0259
   65MOL    C7924527   5.985   3.308   5.772 -0.5824 -0.2361 -0.1471
   65MOL    O8024528   6.088   3.247   5.853 -0.0655 -0.0045  0.4496
   65MOL    C8124529   6.219   3.278   5.818  0.3287 -0.5454  0.0218
   65MOL    C8224530   6.318   3.225   5.927  0.5241 -0.1993  0.0840
   65MOL    C8324531   6.458   3.260   5.889  0.1625 -0.4330  0.7916
   65MOL    C8424532   6.557   3.191   5.983  0.7576  0.6250 -0.1491
   65MOL    H8524533   6.075   3.199   5.602  0.8901 -1.4525  1.3721
   65MOL    H8624534   5.937   3.131   5.673 -2.6039  0.6625 -1.5222
   65MOL    H8724535   6.017   3.409   5.746  0.1830 -0.7522 -1.2663
   65MOL    H8824536   6.221   3.387   5.820 -3.6944 -0.4058  3.4919
   65MOL    H8924537   6.250   3.246   5.718 -0.3709 -0.5739 -0.1841
   65MOL    H9024538   6.288   3.264   6.025  2.0571 -0.5280  0.6922
   65MOL    H9124539   6.295   3.119   5.932  0.6208 -0.2872 -1.1125
   65MOL    H9224540   6.485   3.365   5.894  0.5588 -0.3837 -1.7868
   65MOL    H9324541   6.471   3.228   5.785 -2.4813 -2.0319  0.9005
   65MOL    H9424542   6.569   3.249   6.075  0.7347  0.4060 -0.0052
   65MOL    H9524543   6.535   3.088   6.012 -2.0231  1.9720  2.9500
   65MOL    H9624544   6.655   3.199   5.937 -0.5480 -1.9461 -3.5686
   65MOL    C9724545   5.857   3.327   5.854 -0.0808  0.1314 -0.6110
   65MOL    C9824546   5.871   3.404   5.989 -0.2391  0.3661 -0.1817
   65MOL    O9924547   5.753   3.481   6.015  0.3868 -0.2469  0.3619
   65MOL   C10024548   5.753   3.612   5.966  0.0655  0.1910 -0.3310
   65MOL   C10124549   5.620   3.677   6.012  0.2593 -0.0734  1.1259
   65MOL   C10224550   5.596   3.687   6.164 -0.9981  0.2193  0.1233
   65MOL   C10324551   5.458   3.737   6.204 -0.1044  0.2659  0.1419
   65MOL   H10424552   5.815   3.230   5.880  1.9263 -1.5854 -3.4052
   65MOL   H10524553   5.776   3.372   5.796  0.3424  1.8871  0.1315
   65MOL   H10624554   5.952   3.476   5.979 -1.1059  1.2950 -0.6113
   65MOL   H10724555   5.751   3.620   5.857 -2.5073  1.0845 -0.2576
   65MOL   H10824556   5.839   3.671   5.998 -0.4119  0.4572  0.4775
   65MOL   H10924557   5.548   3.603   5.977  3.5374 -2.2568 -1.2753
   65MOL   H11024558   5.600   3.772   5.961  1.7096 -0.6676 -0.5757
   65MOL   H11124559   5.672   3.754   6.204 -0.6414 -0.3367  0.3765
   65MOL   H11224560   5.619   3.598   6.221  0.3758  0.6309  0.2185
   65MOL   H11324561   5.437   3.819   6.135 -1.3604 -0.1503  0.0121
   65MOL   H11424562   5.383   3.659   6.189 -1.2502  1.0025  1.9174
   65MOL   H11524563   5.461   3.769   6.308  1.5102 -0.7093  0.4141
   65MOL   C11624564   5.902   3.301   6.102 -0.3297  0.0997 -0.0603
   65MOL   C11724565   5.905   3.362   6.241  0.4656 -0.5709  0.5475
   65MOL   O11824566   5.911   3.264   6.344 -0.0800  0.4818 -0.4282
   65MOL   C11924567   5.784   3.234   6.401  0.1738  0.7377 -0.5934
   65MOL   C12024568   5.793   3.116   6.489  0.3733  0.4391  0.6074
   65MOL   C12124569   5.820   2.983   6.413 -0.2783 -0.2360  0.1085
   65MOL   C12224570   5.822   2.869   6.516  0.7652 -0.3329 -0.7852
   65MOL   H12324571   5.819   3.232   6.111  0.2369 -0.7014 -0.9536
   65MOL   H12424572   5.992   3.243   6.083 -0.5474 -0.1560 -0.3075
   65MOL   H12524573   5.820   3.426   6.266  1.0679 -0.1053  1.4627
   65MOL   H12624574   5.707   3.225   6.324  0.2527  1.5042 -0.7623
   65MOL   H12724575   5.757   3.310   6.474 -2.5316 -2.1642  1.5210
   65MOL   H12824576   5.695   3.112   6.537  0.1792  2.7388  0.4912
   65MOL   H12924577   5.873   3.142   6.558  2.7990 -1.7345 -1.2929
   65MOL   H13024578   5.739   2.955   6.344  0.4312  3.0432 -2.1625
   65MOL   H13124579   5.917   2.989   6.364 -1.4132 -0.3350 -2.2599
   65MOL   H13224580   5.721   2.855   6.554  0.3853  0.3771 -1.5322
   65MOL   H13324581   5.880   2.889   6.607  1.7287 -0.3165 -1.3983
   65MOL   H13424582   5.868   2.780   6.474  0.6867 -0.0359 -1.5119
   65MOL   C13524583   6.037   3.442   6.246  0.4828 -0.4660 -0.0152
   65MOL   C13624584   6.059   3.531   6.372 -0.2270  0.6304  0.7356
   65MOL   O13724585   6.191   3.594   6.364  0.4204  0.1676 -0.2511
   65MOL   C13824586   6.296   3.513   6.410 -0.1194 -0.2014  0.5589
   65MOL   C13924587   6.428   3.598   6.411  1.1950  0.3694  0.6384
   65MOL   C14024588   6.429   3.724   6.498  0.4273 -0.2990  0.1063
   65MOL   C14124589   6.485   3.689   6.635 -0.5227 -0.3401 -0.0172
   65MOL   H14224590   6.057   3.507   6.161 -0.7257  0.4460  0.3847
   65MOL   H14324591   6.121   3.373   6.246 -1.1328 -2.5291  2.4489
   65MOL   H14424592   6.045   3.456   6.450 -3.0030  1.4730  1.0966
   65MOL   H14524593   6.296   3.423   6.348 -1.3430  0.1883 -0.0378
   65MOL   H14624594   6.274   3.478   6.510 -0.4226  1.7882  1.1989
   65MOL   H14724595   6.442   3.637   6.310 -2.4707  0.1729 -0.0333
   65MOL   H14824596   6.515   3.536   6.430  0.6440 -0.9102 -0.8440
   65MOL   H14924597   6.512   3.786   6.463  1.3652 -1.6203 -0.0405
   65MOL   H15024598   6.339   3.785   6.504  0.8755  0.4387 -0.6008
   65MOL   H15124599   6.568   3.618   6.638 -0.1509  0.1153  0.6121
   65MOL   H15224600   6.521   3.773   6.693  0.1873  0.1903 -1.2181
   65MOL   H15324601   6.407   3.641   6.695  0.2161  1.4670  2.4746
   65MOL   C15424602   5.956   3.642   6.368 -0.1845  0.2991  0.2940
   65MOL   C15524603   5.973   3.734   6.486  0.3165 -0.7112 -0.2988
   65MOL   O15624604   5.962   3.664   6.610 -0.2518  0.2150  0.3440
   65MOL   C15724605   6.084   3.670   6.688 -0.5114 -0.1971  0.3583
   65MOL   C15824606   6.050   3.633   6.835  0.2688  0.4179  1.0850
   65MOL   C15924607   5.959   3.736   6.903  0.3886  0.3954  0.7739
   65MOL   C16024608   6.039   3.865   6.918  0.3480  0.5959 -0.9392
   65MOL   H16124609   5.854   3.609   6.350  0.1725 -0.2807 -0.6756
   65MOL   H16224610   5.979   3.711   6.286  1.2309 -1.0038 -0.4320
   65MOL   H16324611   6.076   3.770   6.476  1.0876 -2.7339  0.2066
   65MOL   H16424612   6.149   3.594   6.645  0.9999  1.3064 -0.0828
   65MOL   H16524613   6.125   3.768   6.663 -2.0443  0.3325 -0.1575
   65MOL   H16624614   6.144   3.611   6.885  0.5782  0.8908  0.7023
   65MOL   H16724615   6.001   3.535   6.842  1.0467 -0.0226  0.3694
   65MOL   H16824616   5.859   3.749   6.860  0.7233  0.7647  0.1004
   65MOL   H16924617   5.944   3.696   7.003  2.5741 -0.5164  0.7511
   65MOL   H17024618   6.030   3.942   6.842 -0.6026  0.2158 -1.2143
   65MOL   H17124619   5.998   3.917   7.005 -2.0121  1.3642 -2.4671
   65MOL   H17224620   6.144   3.844   6.939  0.1123 -0.1584 -0.4996
   65MOL   C17324621   5.871   3.858   6.474  0.4593  0.8915 -0.5024
   65MOL   C17424622   5.873   3.980   6.567 -0.1005  0.4654 -0.7206
   65MOL   O17524623   6.002   4.026   6.576 -0.3330 -0.2843  0.3843
   65MOL   C17624624   6.047   4.087   6.457 -0.6687  0.7757  0.0764
   65MOL   C17724625   6.195   4.125   6.471 -0.7651 -0.2983 -0.3778
   65MOL   C17824626   6.234   4.210   6.348  0.6497 -0.0171  0.2714
   65MOL   C17924627   6.169   4.350   6.326 -0.7905 -0.1127  0.2848
   65MOL   H18024628   5.778   3.804   6.493  0.4480  1.2512  0.4981
   65MOL   H18124629   5.870   3.879   6.367 -1.2185  4.0897  0.0821
   65MOL   H18224630   5.855   3.927   6.660 -3.1742 -0.4148 -1.7533
   65MOL   H18324631   5.990   4.175   6.428  1.0850  1.3005 -1.8978
   65MOL   H18424632   6.038   4.011   6.379 -0.0484  0.5492  0.2193
   65MOL   H18524633   6.249   4.030   6.476  2.2570  1.4533  0.6644
   65MOL   H18624634   6.204   4.189   6.558 -1.1532  1.4479 -1.6116
   65MOL   H18724635   6.342   4.224   6.353  0.7014 -0.4771  0.5428
   65MOL   H18824636   6.215   4.147   6.261  1.1334  1.3730 -0.8641
   65MOL   H18924637   6.205   4.427   6.394 -0.7745  0.8898 -0.8372
   65MOL   H19024638   6.199   4.390   6.229  0.9265 -0.1495  0.7732
   65MOL   H19124639   6.061   4.339   6.322 -0.5533 -2.4332 -1.2133
   65MOL   C19224640   5.760   4.088   6.546 -0.1247  0.2693  0.2164
   65MOL   C19324641   5.620   4.041   6.593  0.1979  0.0252  0.3117
   65MOL   O19424642   5.612   4.060   6.735  0.3586 -0.2509 -0.4682
   65MOL   C19524643   5.591   3.947   6.815 -0.4142  0.4192 -0.2757
   65MOL   C19624644   5.568   3.996   6.956 -0.1189  0.1966 -0.0834
   65MOL   C19724645   5.694   4.044   7.034  0.5770 -0.0168  0.1731
   65MOL   C19824646   5.669   4.081   7.182 -0.4586  0.1638 -0.4309
   65MOL   H19924647   5.747   4.122   6.444  0.8491 -1.9234 -0.6576
   65MOL   H20024648   5.794   4.177   6.599  0.1893 -0.0725  0.5887
   65MOL   H20124649   5.605   3.940   6.554 -1.5253 -0.2658  1.6349
   65MOL   H20224650   5.672   3.874   6.815  0.0796  0.9637 -0.3547
   65MOL   H20324651   5.507   3.899   6.765  0.5878 -2.6549  0.8542
   65MOL   H20424652   5.490   4.071   6.965  0.7223  0.9085  1.3993
   65MOL   H20524653   5.523   3.914   7.012  0.0118 -0.7417 -1.3246
   65MOL   H20624654   5.748   4.124   6.984 -1.4180  2.2486  1.5315
   65MOL   H20724655   5.769   3.965   7.033  0.4244 -0.1735 -2.0246
   65MOL   H20824656   5.637   3.990   7.233  3.3431 -0.3177  1.2649
   65MOL   H20924657   5.760   4.117   7.229 -0.9551  0.8643  0.0075
   65MOL   H21024658   5.592   4.158   7.186 -0.8038 -0.0870 -1.7821
   65MOL   C21124659   5.505   4.124   6.538 -0.0126  0.1434 -0.3609
   65MOL   C21224660   5.415   4.067   6.429 -0.0685  0.2862 -0.1326
   65MOL   O21324661   5.486   4.043   6.310 -0.0940  0.1081  0.2793
   65MOL   C21424662   5.524   4.149   6.226  0.3487  0.2359  0.7011
   65MOL   C21524663   5.611   4.092   6.108  0.1977 -0.4404 -0.6836
   65MOL   C21624664   5.744   4.037   6.155 -0.3796  0.8573  0.1918
   65MOL   C21724665   5.830   3.988   6.032 -0.2441 -0.3327  0.0582
   65MOL   H21824666   5.545   4.220   6.503  1.2648  0.2034  1.2115
   65MOL   H21924667   5.449   4.149   6.627  0.4990  1.4222 -0.3806
   65MOL   H22024668   5.337   4.142   6.414  0.6435  1.0995  0.2167
   65MOL   H22124669   5.430   4.191   6.190 -1.4109 -3.2718  0.9718
   65MOL   H22224670   5.590   4.215   6.283  0.1245  0.6969  0.4264
   65MOL   H22324671   5.551   4.010   6.069 -1.4478  0.4124  0.0411
   65MOL   H22424672   5.626   4.169   6.033  2.6937 -1.4827 -1.3255
   65MOL   H22524673   5.731   3.960   6.231 -1.0949  2.7838  2.0799
   65MOL   H22624674   5.798   4.114   6.209 -0.4070  1.1112 -0.1418
   65MOL   H22724675   5.792   3.903   5.976 -0.3560 -0.8906  0.9591
   65MOL   H22824676   5.933   3.966   6.061 -0.5661 -1.4364  0.3684
   65MOL   H22924677   5.835   4.059   5.949 -0.7064 -0.6320 -0.2265
   65MOL   C23024678   5.335   3.941   6.484  0.3882 -0.6033  0.2242
   65MOL   C23124679   5.227   3.964   6.589  0.4454 -0.3585  0.4175
   65MOL   O23224680   5.119   4.040   6.543 -0.0454 -0.2395 -0.1376
   65MOL   C23324681   5.113   4.174   6.597  0.6432  1.0592  0.2964
   65MOL   C23424682   4.996   4.238   6.536  0.6465  0.6304 -0.3541
   65MOL   C23524683   5.006   4.228   6.377 -0.8702 -0.0042 -1.0828
   65MOL   C23624684   4.893   4.279   6.292  0.0740 -0.1431 -0.3397
   65MOL   H23724685   5.408   3.871   6.524 -0.3233 -1.1471  0.5764
   65MOL   H23824686   5.293   3.886   6.400  2.0991  1.1947 -1.8929
   65MOL   H23924687   5.276   4.010   6.675  1.1270 -1.6229  0.7180
   65MOL   H24024688   5.100   4.163   6.705  0.7911  2.9551  0.5336
   65MOL   H24124689   5.200   4.237   6.578  0.3414  1.8083  1.3354
   65MOL   H24224690   4.894   4.206   6.561  0.0513  0.7048 -2.5811
   65MOL   H24324691   4.998   4.343   6.565 -1.0695  0.5448  0.1568
   65MOL   H24424692   5.021   4.123   6.353 -1.6472 -0.3803  0.0083
   65MOL   H24524693   5.087   4.295   6.349 -0.0687  0.0294  1.2152
   65MOL   H24624694   4.798   4.231   6.313 -0.6912  1.4997  0.0281
   65MOL   H24724695   4.929   4.246   6.194  1.5070 -0.1125  0.1684
   65MOL   H24824696   4.886   4.388   6.292 -0.3871 -0.1702 -0.0957
   65MOL   C24924697   5.159   3.835   6.627  0.3423 -0.2745 -0.2288
   65MOL   C25024698   5.244   3.716   6.686  0.0390 -0.3369 -0.2997
   65MOL   O25124699   5.325   3.662   6.585  0.3326  0.1718 -0.6819
   65MOL   C25224700   5.430   3.580   6.637 -0.1808 -0.2195  0.0667
   65MOL   C25324701   5.511   3.529   6.520 -0.2863 -0.6917  0.1699
   65MOL   C25424702   5.427   3.457   6.410 -0.2905  0.5730  0.3083
   65MOL   C25524703   5.418   3.302   6.433 -0.3022 -0.2412 -0.0056
   65MOL   H25624704   5.111   3.794   6.537 -2.2586  1.3621  0.3678
   65MOL   H25724705   5.080   3.857   6.698  1.7705  1.6177  0.7900
   65MOL   H25824706   5.304   3.769   6.760 -0.2328  0.7007 -0.8230
   65MOL   H25924707   5.387   3.485   6.669  1.2607 -1.2302 -0.9103
   65MOL   H26024708   5.491   3.638   6.706  1.3135 -2.2584  0.5203
   65MOL   H26124709   5.557   3.622   6.485  0.7515 -1.9317 -1.8389
   65MOL   H26224710   5.595   3.467   6.549  1.0519  0.7184 -0.6360
   65MOL   H26324711   5.327   3.498   6.396 -0.9231  0.4829  4.1484
   65MOL   H26424712   5.493   3.467   6.323  0.6626 -0.9641  0.8333
   65MOL   H26524713   5.362   3.249   6.355  1.1518 -0.1073 -1.1502
   65MOL   H26624714   5.356   3.285   6.521 -1.1950  1.0435 -0.3649
   65MOL   H26724715   5.518   3.259   6.440  0.3745  0.7397 -2.8701
   65MOL   C26824716   5.153   3.604   6.742  0.2691 -0.4456 -0.3406
   65MOL   C26924717   5.192   3.536   6.871  0.1796 -0.1065 -0.1020
   65MOL   O27024718   5.193   3.641   6.967 -0.4638  0.1118  0.4513
   65MOL   C27124719   5.311   3.663   7.039  0.2407 -0.3135  0.3458
   65MOL   C27224720   5.293   3.779   7.141  0.7993 -0.5216 -0.7753
   65MOL   C27324721   5.384   3.783   7.267  0.4640  0.2947  0.1684
   65MOL   C27424722   5.348   3.888   7.368 -0.6395 -0.0165 -0.4347
   65MOL   H27524723   5.048   3.636   6.749 -0.0039 -1.1717 -1.1006
   65MOL   H27624724   5.146   3.530   6.663 -0.2238  0.2385 -0.9531
   65MOL   H27724725   5.289   3.488   6.858  1.4493  2.5916 -0.8932
   65MOL   H27824726   5.331   3.578   7.104 -0.8043 -0.1542  0.8854
   65MOL   H27924727   5.390   3.682   6.966 -2.2118  0.4083 -2.1933
   65MOL   H28024728   5.303   3.870   7.083  0.0569  0.7092  0.9686
   65MOL   H28124729   5.195   3.777   7.189  1.6810  0.4551  1.1018
   65MOL   H28224730   5.487   3.778   7.233 -0.1305  1.8848 -2.0067
   65MOL   H28324731   5.372   3.683   7.308 -0.7224  1.1457  1.9623
   65MOL   H28424732   5.406   3.887   7.460  1.1346  0.0369 -1.5276
   65MOL   H28524733   5.242   3.876   7.391 -0.6788 -0.2273 -0.7254
   65MOL   H28624734   5.353   3.990   7.329 -1.0841 -0.4208 -1.5546
   65MOL   C28724735   5.094   3.418   6.920 -0.2910 -0.4475 -0.0765
   65MOL   C28824736   5.149   3.342   7.043  1.3351  0.0301  0.2055
   65MOL   O28924737   5.256   3.267   6.985 -0.3996 -0.3508 -0.6031
   65MOL   C29024738   5.334   3.194   7.075  0.0633 -0.3658 -0.4902
   65MOL   C29124739   5.452   3.158   6.984 -0.3575 -0.5218 -0.7629
   65MOL   C29224740   5.410   3.050   6.886 -0.6786  0.3653  0.9541
   65MOL   C29324741   5.532   3.034   6.793 -0.2166 -0.1655 -0.7706
   65MOL   H29424742   5.084   3.346   6.839  0.5917 -1.3761  0.6276
   65MOL   H29524743   5.000   3.470   6.940  0.2190  0.0827  0.9594
   65MOL   H29624744   5.190   3.416   7.111  0.3024 -0.2829  1.1871
   65MOL   H29724745   5.368   3.254   7.160 -0.2986 -0.8078 -0.0368
   65MOL   H29824746   5.289   3.102   7.110 -1.0425  0.4890  0.3638
   65MOL   H29924747   5.532   3.124   7.050 -0.1411 -1.8218 -1.6893
   65MOL   H30024748   5.494   3.252   6.948  1.6283  0.0217  2.6778
   65MOL   H30124749   5.318   3.060   6.828 -0.4181 -3.3884 -0.2242
   65MOL   H30224750   5.399   2.955   6.938  0.0714 -1.4243 -2.0748
   65MOL   H30324751   5.523   3.100   6.707 -0.0912  0.7206 -0.1083
   65MOL   H30424752   5.624   3.046   6.851 -1.6399 -0.8766  1.7171
   65MOL   H30524753   5.532   2.933   6.753 -1.8479 -0.8868  0.9737
   65MOL   C30624754   5.058   3.245   7.121 -0.2113 -0.0615  0.2337
   65MOL   C30724755   4.921   3.300   7.180 -0.3004 -1.1279  0.1803
   65MOL   O30824756   4.950   3.374   7.296 -0.0872  0.4522  0.8415
   65MOL   C30924757   4.889   3.501   7.306 -0.9042  0.0155  0.1239
   65MOL   C31024758   4.954   3.617   7.233 -0.3640  0.5716  0.5491
   65MOL   C31124759   4.891   3.757   7.269 -0.8783 -0.2661  0.4731
   65MOL   C31224760   4.898   3.794   7.422 -0.1003  0.5789 -0.1557
   65MOL   H31324761   5.042   3.165   7.049 -0.0870  0.0761  0.0531
   65MOL   H31424762   5.108   3.209   7.211  0.4560 -0.1142 -0.1591
   65MOL   H31524763   4.879   3.364   7.103 -0.4023  1.1566  2.0556
   65MOL   H31624764   4.863   3.530   7.407  1.0194  0.5894  0.4866
   65MOL   H31724765   4.790   3.482   7.264 -0.5770  0.6850 -0.9940
   65MOL   H31824766   4.949   3.605   7.125 -0.3056  0.3277  0.5755
   65MOL   H31924767   5.060   3.613   7.258 -0.1332  0.5757 -0.3966
   65MOL   H32024768   4.915   3.848   7.213 -4.5781  0.6779  0.3271
   65MOL   H32124769   4.787   3.750   7.237 -0.5620 -0.6486 -0.5086
   65MOL   H32224770   4.810   3.748   7.469 -0.2990  0.4581 -0.6455
   65MOL   H32324771   4.871   3.898   7.437  0.1930  0.2797  2.7242
   65MOL   H32424772   4.992   3.763   7.467 -0.4352 -0.0312  0.1423
   65MOL   C32524773   4.814   3.193   7.208  0.3106 -0.6137 -0.3401
   65MOL   C32624774   4.757   3.111   7.090 -0.3327  0.6626  0.1118
   65MOL   O32724775   4.852   3.009   7.062  0.0538 -0.2175 -0.1792
   65MOL   C32824776   4.847   2.976   6.928 -0.4717  0.2476 -0.0781
   65MOL   C32924777   4.935   2.855   6.917 -0.0822 -0.4182 -0.1243
   65MOL   C33024778   5.086   2.874   6.942 -0.1011 -0.3611  0.3887
   65MOL   C33124779   5.177   2.753   6.928 -0.2851 -0.1792  0.7606
   65MOL   H33224780   4.735   3.242   7.266  0.9495  0.2328 -0.1808
   65MOL   H33324781   4.851   3.130   7.289  2.2616  3.1428  1.7802
   65MOL   H33424782   4.757   3.183   7.008 -1.7300  0.2966 -0.2133
   65MOL   H33524783   4.884   3.064   6.876  1.7251  0.0413  1.0732
   65MOL   H33624784   4.743   2.957   6.902 -0.3685  0.9257 -1.0247
   65MOL   H33724785   4.896   2.784   6.990 -1.9316  0.1077 -0.5802
   65MOL   H33824786   4.920   2.808   6.820 -0.4928 -0.3480 -0.0962
   65MOL   H33924787   5.099   2.910   7.044  0.7839  2.1125 -0.5395
   65MOL   H34024788   5.114   2.953   6.871 -1.1597 -0.6200 -0.3262
   65MOL   H34124789   5.276   2.788   6.958 -0.2038 -0.3446  0.6866
   65MOL   H34224790   5.179   2.704   6.831  0.5344 -2.2391  1.7715
   65MOL   H34324791   5.149   2.680   7.004  0.7036 -1.9804 -0.5686
   65MOL   C34424792   4.613   3.057   7.114  0.5569  0.3294 -0.2261
   65MOL   C34524793   4.609   2.930   7.207  0.1127 -1.1133  0.3377
   65MOL   O34624794   4.495   2.856   7.163  0.4083  0.5448  0.1059
   65MOL   C34724795   4.511   2.714   7.155  0.1780 -0.2541 -0.1589
   65MOL   C34824796   4.368   2.666   7.149  0.5908 -0.3058  0.0244
   65MOL   C34924797   4.346   2.519   7.139 -0.3248  0.4687 -0.2305
   65MOL   C35024798   4.363   2.456   7.280  0.0994 -0.2618  0.5688
   65MOL   H35124799   4.558   3.142   7.153 -0.2435 -0.0531 -0.4972
   65MOL   H35224800   4.569   3.034   7.016 -0.8525  0.9255  0.2503
   65MOL   H35324801   4.707   2.883   7.196  1.3387  1.5591 -0.7541
   65MOL   H35424802   4.564   2.677   7.243  1.0312  1.1943 -0.0503
   65MOL   H35524803   4.564   2.691   7.062  0.8173 -0.5817  0.2863
   65MOL   H35624804   4.319   2.699   7.057  2.1696  0.8478 -0.4163
   65MOL   H35724805   4.310   2.718   7.225  1.4668 -0.2564  0.6576
   65MOL   H35824806   4.251   2.495   7.091  0.6449 -2.2450 -0.8612
   65MOL   H35924807   4.424   2.474   7.079  0.0333  0.6793  0.0762
   65MOL   H36024808   4.349   2.348   7.274 -1.1906 -0.0011 -2.3381
   65MOL   H36124809   4.295   2.487   7.359 -0.3369  2.7434 -0.9046
   65MOL   H36224810   4.464   2.479   7.313 -0.0977 -1.8981  2.3868
   65MOL   C36324811   4.584   2.978   7.349  0.2198 -0.1273  0.2558
   65MOL   C36424812   4.595   2.869   7.456  0.0596 -0.0540  1.4719
   65MOL   O36524813   4.614   2.913   7.592 -0.2161  0.1549  0.1433
   65MOL   C36624814   4.624   2.803   7.681 -0.1647  0.2480 -0.1084
   65MOL   C36724815   4.691   2.856   0.009  0.5666 -0.0966  0.0477
   65MOL   C36824816   4.590   2.874   0.133  0.6596 -0.3256  0.3648
   65MOL   C36924817   4.656   2.910   0.263 -0.2094 -0.0707  0.0089
   65MOL   H37024818   4.482   3.017   7.352  0.1742 -0.3453  2.1193
   65MOL   H37124819   4.656   3.058   7.368 -0.5935  1.0032 -1.3490
   65MOL   H37224820   4.677   2.804   7.428 -0.5466 -0.5256  0.7891
   65MOL   H37324821   4.696   2.730   7.644 -1.3548 -0.1537 -1.6795
   65MOL   H37424822   4.525   2.760   7.689 -0.1572  0.8472  4.8773
   65MOL   H37524823   4.751   2.945   7.798  0.0752  0.0919 -1.0114
   65MOL   H37624824   4.771   2.785   0.032  1.9353  1.3544 -0.1839
   65MOL   H37724825   4.534   2.783   0.156  1.7509 -0.8852  0.8776
   65MOL   H37824826   4.515   2.948   0.105  0.5024  1.0402  4.1022
   65MOL   H37924827   4.576   2.928   0.336  0.3654  1.5814  0.2514
   65MOL   H38024828   4.728   2.832   0.289  1.4735  0.6797 -2.2781
   65MOL   H38124829   4.709   3.002   0.240  0.7914 -0.4154  0.8600
   65MOL   H38224830   4.505   2.809   7.446  0.2532 -0.4439  2.0632
   66MOL     C124831   1.696   7.249   5.607 -0.2785  0.0173 -0.3125
   66MOL     C224832   1.697   7.398   5.584 -0.2032 -0.2330 -0.1902
   66MOL     O324833   1.773   7.455   5.684  0.1842 -0.4417 -0.0641
   66MOL     C424834   1.755   7.594   5.716  0.1317  0.5786  0.0836
   66MOL     C524835   1.859   7.642   5.811  0.0228 -0.2955  0.2667
   66MOL     C624836   1.990   7.655   5.730  0.1718 -0.6178 -0.3644
   66MOL     C724837   2.110   7.697   5.809  0.6075  0.8898  0.4515
   66MOL     H824838   1.644   7.199   5.525 -3.4803  1.1872  0.9384
   66MOL     H924839   1.801   7.217   5.609 -0.5034 -0.7013  2.6203
   66MOL    H1024840   1.592   7.429   5.591  0.3694  1.4093  1.8551
   66MOL    H1124841   1.752   7.651   5.624 -1.1853  0.1687 -0.1382
   66MOL    H1224842   1.658   7.599   5.766 -0.8183 -1.7866 -1.4480
   66MOL    H1324843   1.871   7.580   5.900  1.6249  1.0084  0.9895
   66MOL    H1424844   1.830   7.737   5.858  1.2718  0.0247  0.4326
   66MOL    H1524845   1.969   7.726   5.649  0.5497 -1.1289 -0.9114
   66MOL    H1624846   2.008   7.560   5.680  0.8020 -0.7650  0.1433
   66MOL    H1724847   2.201   7.660   5.762  0.4070 -0.2198  0.9286
   66MOL    H1824848   2.119   7.635   5.898 -1.9260  1.8821  1.4483
   66MOL    H1924849   2.109   0.001   5.837 -0.7880  1.2437 -0.8562
   66MOL    H2024850   1.660   7.234   5.709 -0.1501 -2.8859 -0.6640
   66MOL    C2124851   1.756   7.439   5.447 -0.0088  0.0416  0.0831
   66MOL    C2224852   1.676   7.390   5.321 -0.1024 -0.2232 -0.6220
   66MOL    O2324853   1.562   7.474   5.314 -0.1805  0.4042 -0.1391
   66MOL    C2424854   1.439   7.409   5.278 -0.2444 -0.0345 -0.2690
   66MOL    C2524855   1.338   7.517   5.228 -1.1624  0.3394  0.1318
   66MOL    C2624856   1.383   7.609   5.113 -0.3755 -0.3133 -0.0340
   66MOL    C2724857   1.407   7.535   4.985 -0.1750  0.1660 -0.4345
   66MOL    H2824858   1.861   7.410   5.446 -0.0728 -0.1837 -0.9665
   66MOL    H2924859   1.761   7.547   5.438 -0.3523  0.1036  0.6209
   66MOL    H3024860   1.641   7.288   5.337  0.0735 -0.0804  0.7618
   66MOL    H3124861   1.400   7.349   5.360 -1.0059  0.4616 -0.2642
   66MOL    H3224862   1.452   7.345   5.191  1.9953  1.0151 -0.7345
   66MOL    H3324863   1.248   7.469   5.191  0.1265 -0.5820 -1.9310
   66MOL    H3424864   1.323   7.579   5.316  0.5965  0.5302  0.3191
   66MOL    H3524865   1.302   7.681   5.105  0.1662  0.3369  0.2818
   66MOL    H3624866   1.469   7.667   5.145 -0.9108  0.7007 -0.4013
   66MOL    H3724867   1.466   7.447   5.006 -0.7865 -0.3594 -0.8874
   66MOL    H3824868   1.321   7.493   4.932  1.3797 -0.6809 -2.3572
   66MOL    H3924869   1.459   7.596   4.911 -0.8879  0.3170 -0.8191
   66MOL    C4024870   1.752   7.407   5.181 -0.1490 -0.6327 -0.1937
   66MOL    C4124871   1.842   7.288   5.146 -1.1099  0.0272 -0.4342
   66MOL    O4224872   1.952   7.284   5.234 -0.6436 -0.1955  0.0311
   66MOL    C4324873   1.969   7.153   5.290  0.6525 -0.0479 -0.4643
   66MOL    C4424874   2.085   7.170   5.394  0.0369  0.2074 -0.5353
   66MOL    C4524875   2.220   7.165   5.327  0.9052  0.3127  0.7761
   66MOL    C4624876   2.341   7.173   5.421  0.2828 -0.6388  0.0882
   66MOL    H4724877   1.797   7.506   5.169  1.1943 -1.4451 -1.9243
   66MOL    H4824878   1.671   7.403   5.108 -1.4847  1.6516  1.0853
   66MOL    H4924879   1.775   7.202   5.144  0.3076 -1.1342  0.7908
   66MOL    H5024880   1.987   7.084   5.208  0.5117 -1.4335  0.6597
   66MOL    H5124881   1.878   7.133   5.346 -1.4449  2.9006 -2.6082
   66MOL    H5224882   2.069   7.098   5.474 -0.1809  0.0523 -0.7164
   66MOL    H5324883   2.072   7.267   5.441 -1.0256  0.3531 -1.1161
   66MOL    H5424884   2.234   7.236   5.246  0.4974 -1.2239 -0.6513
   66MOL    H5524885   2.229   7.068   5.279  2.3436  1.6205 -1.6718
   66MOL    H5624886   2.353   7.272   5.464 -1.3128  0.7596 -2.5972
   66MOL    H5724887   2.335   7.116   5.514 -2.2115 -0.8791 -0.1661
   66MOL    H5824888   2.437   7.152   5.375 -0.5352 -1.3257 -1.3329
   66MOL    C5924889   1.907   7.317   5.007 -0.0952 -0.5748  0.4582
   66MOL    C6024890   1.986   7.205   4.952 -0.4217  0.2589  0.5661
   66MOL    O6124891   1.885   7.111   4.913 -0.0674  0.2459  0.6215
   66MOL    C6224892   1.909   6.975   4.937  0.1500 -0.0278  0.2800
   66MOL    C6324893   1.782   6.898   4.892  0.0565  0.0205 -1.2521
   66MOL    C6424894   1.659   6.956   4.963 -0.3990 -0.1622  0.0474
   66MOL    C6524895   1.523   6.881   4.941 -0.1514 -0.5312  0.6035
   66MOL    H6624896   1.831   7.324   4.929  3.6785  3.6704 -3.0789
   66MOL    H6724897   1.963   7.410   5.003 -0.6850 -0.2234  0.3424
   66MOL    H6824898   2.057   7.151   5.015  0.6470 -1.1242 -1.7308
   66MOL    H6924899   1.938   6.955   5.040 -1.6337 -2.1752  0.3946
   66MOL    H7024900   1.984   6.927   4.875  0.1015 -0.6028  0.6615
   66MOL    H7124901   1.765   6.901   4.785 -3.7297 -1.7453 -0.8024
   66MOL    H7224902   1.794   6.791   4.911  1.8852  0.0052 -2.4176
   66MOL    H7324903   1.675   6.966   5.070 -1.3479  0.5147  0.1347
   66MOL    H7424904   1.647   7.061   4.935  1.4017  0.1707  0.4643
   66MOL    H7524905   1.539   6.777   4.913 -0.3480 -0.0278 -1.4438
   66MOL    H7624906   1.449   6.880   5.021 -0.4157 -1.0812  0.3581
   66MOL    H7724907   1.466   6.924   4.859  0.2516  1.2395  1.2221
   66MOL    C7824908   2.066   7.238   4.828  0.4520 -0.3700 -0.5636
   66MOL    C7924909   2.160   7.136   4.771  0.3050  0.4359 -0.1760
   66MOL    O8024910   2.274   7.124   4.857 -0.6262 -0.2028 -0.3497
   66MOL    C8124911   2.339   6.997   4.873  0.2838 -0.5358  0.5604
   66MOL    C8224912   2.378   6.991   5.021  0.3724  0.0779 -0.3613
   66MOL    C8324913   2.478   6.875   5.046  0.0183  0.6806 -0.5594
   66MOL    C8424914   2.535   6.872   5.191  0.8977  0.1204  0.7106
   66MOL    H8524915   2.125   7.328   4.845  2.3067 -1.0322 -3.2231
   66MOL    H8624916   1.998   7.267   4.747  0.5097 -1.3129 -0.9540
   66MOL    H8724917   2.110   7.041   4.755  1.1472 -0.1467  0.5854
   66MOL    H8824918   2.429   6.981   4.812  1.0944  3.6064  0.5030
   66MOL    H8924919   2.266   6.923   4.842  0.8880 -0.7338 -0.4152
   66MOL    H9024920   2.406   7.093   5.047  1.1170  0.0084 -0.8944
   66MOL    H9124921   2.283   6.975   5.072 -0.3326 -3.1389 -2.5324
   66MOL    H9224922   2.558   6.903   4.977 -1.9655  0.5278 -2.9740
   66MOL    H9324923   2.438   6.778   5.017 -1.6088  1.1152  0.1546
   66MOL    H9424924   2.564   6.973   5.221 -1.0998  0.5822  1.1749
   66MOL    H9524925   2.468   6.829   5.266 -0.8361  1.1906 -0.1830
   66MOL    H9624926   2.622   6.807   5.189  0.1727 -0.8352 -1.6300
   66MOL    C9724927   2.232   7.192   4.645  0.0544 -0.4212  0.1400
   66MOL    C9824928   2.287   7.097   4.537  0.2997 -0.5218 -0.1707
   66MOL    O9924929   2.192   6.998   4.499  0.0751  0.2034 -0.1043
   66MOL   C10024930   2.247   6.867   4.514 -0.1339 -0.0561  0.0005
   66MOL   C10124931   2.141   6.773   4.467 -0.0159  0.4003  0.5561
   66MOL   C10224932   2.015   6.766   4.544 -0.3299  0.6190 -0.3048
   66MOL   C10324933   1.923   6.657   4.491 -0.2624 -1.0205  0.0726
   66MOL   H10424934   2.308   7.264   4.674 -1.3151  0.9361  0.3909
   66MOL   H10524935   2.157   7.252   4.594  0.6148  0.2127  0.0558
   66MOL   H10624936   2.373   7.059   4.592  0.1546 -0.1545  0.3169
   66MOL   H10724937   2.260   6.846   4.620 -2.3320 -2.6327 -0.1836
   66MOL   H10824938   2.337   6.852   4.453  0.4014  0.4133  0.6747
   66MOL   H10924939   2.183   6.673   4.482  0.1467  0.7759  2.6440
   66MOL   H11024940   2.120   6.774   4.360  0.8692  2.2376  0.3843
   66MOL   H11124941   1.968   6.864   4.534 -4.2981 -0.9927  1.4572
   66MOL   H11224942   2.027   6.750   4.651  0.5628  0.8528 -0.3685
   66MOL   H11324943   1.981   6.568   4.514  1.1175  0.0238  0.7845
   66MOL   H11424944   1.834   6.656   4.554  0.6132  0.1979  1.3744
   66MOL   H11524945   1.901   6.664   4.385  1.0227  4.3835 -0.0011
   66MOL   C11624946   2.327   7.152   4.399 -0.7550 -0.1798  0.4892
   66MOL   C11724947   2.452   7.235   4.399 -0.7390 -0.1219 -0.4456
   66MOL   O11824948   2.559   7.151   4.349  0.0699 -0.1681  0.7158
   66MOL   C11924949   2.603   7.033   4.422  0.1683 -0.5383  0.4329
   66MOL   C12024950   2.712   6.959   4.347 -0.0483  0.1361 -0.0865
   66MOL   C12124951   2.844   7.042   4.338  0.6837 -0.5829  0.4535
   66MOL   C12224952   2.966   6.971   4.284 -0.4784 -0.3774 -0.2937
   66MOL   H12324953   2.346   7.072   4.328 -1.1656 -0.9643  1.2533
   66MOL   H12424954   2.244   7.210   4.359  0.4086  0.9172 -0.3691
   66MOL   H12524955   2.488   7.270   4.495  2.2855 -5.5221  0.5835
   66MOL   H12624956   2.521   6.965   4.447 -0.6387  1.2738  2.8656
   66MOL   H12724957   2.628   7.061   4.524  0.8907 -0.0920  0.1350
   66MOL   H12824958   2.678   6.930   4.248  1.8674 -2.0662 -0.1466
   66MOL   H12924959   2.733   6.867   4.402 -0.6588  0.6617  1.0373
   66MOL   H13024960   2.807   7.114   4.265 -2.8872 -1.3502  1.4225
   66MOL   H13124961   2.869   7.089   4.433  0.1242 -2.4585  1.5393
   66MOL   H13224962   3.024   7.037   4.220 -1.1799 -0.7051 -1.2701
   66MOL   H13324963   2.947   6.881   4.227 -0.5813 -1.1922  0.9953
   66MOL   H13424964   3.034   6.934   4.360  0.0765 -0.3505 -0.7768
   66MOL   C13524965   2.451   7.348   4.297  0.3093  0.3575 -0.1362
   66MOL   C13624966   2.556   7.464   4.317  0.9490 -0.5928  0.0539
   66MOL   O13724967   2.679   7.442   4.264 -0.4534 -0.7251  0.2029
   66MOL   C13824968   2.792   7.413   4.348  0.1154  0.7365 -0.4372
   66MOL   C13924969   2.924   7.405   4.267 -0.2927  0.8811 -0.2047
   66MOL   C14024970   3.032   7.364   4.368 -0.1151 -0.2242 -0.6007
   66MOL   C14124971   3.173   7.385   4.309  0.0599 -0.1285 -0.4743
   66MOL   H14224972   2.353   7.395   4.302  0.4585  0.4952  2.1209
   66MOL   H14324973   2.449   7.324   4.190 -1.8527  0.0422 -0.0508
   66MOL   H14424974   2.567   7.482   4.424  0.5182 -1.7847  0.3093
   66MOL   H14524975   2.768   7.322   4.403 -0.7609  0.6033 -1.0187
   66MOL   H14624976   2.805   7.493   4.421 -0.7035 -0.0716  0.6130
   66MOL   H14724977   2.956   7.501   4.226  0.8806  0.0482 -1.2757
   66MOL   H14824978   2.909   7.337   4.184  0.7554 -0.7406  0.8996
   66MOL   H14924979   3.018   7.417   4.462  0.0167  2.7850 -2.2216
   66MOL   H15024980   3.021   7.263   4.406  2.3562 -0.1492  0.4427
   66MOL   H15124981   3.209   7.321   4.229 -0.1337  0.7462 -1.2654
   66MOL   H15224982   3.186   7.490   4.282 -1.3419  0.3698  0.7101
   66MOL   H15324983   3.242   7.369   4.393 -2.8204 -1.1089  1.7840
   66MOL   C15424984   2.510   7.608   4.275 -0.1979 -0.0653 -0.0951
   66MOL   C15524985   2.522   7.657   4.121  0.3129  0.7504 -0.5748
   66MOL   O15624986   2.503   7.799   4.129 -0.4621 -0.1862 -0.4960
   66MOL   C15724987   2.630   0.068   4.129  0.2903  0.7299 -0.7726
   66MOL   C15824988   2.617   0.219   4.104 -0.3205 -0.9365  0.5180
   66MOL   C15924989   2.564   0.255   3.968 -0.3246 -0.1481  0.0293
   66MOL   C16024990   2.520   0.403   3.956 -1.3629  0.3986 -0.1818
   66MOL   H16124991   2.563   7.681   4.337  0.0830 -0.2833 -0.0770
   66MOL   H16224992   2.405   7.626   4.299 -0.2749 -2.8215  1.8984
   66MOL   H16324993   2.623   7.627   4.092  0.9998  0.6550  1.7534
   66MOL   H16424994   2.674   0.047   4.227  1.0195  1.1795 -1.0006
   66MOL   H16524995   2.697   0.037   4.049 -2.1758 -0.4843 -2.4167
   66MOL   H16624996   2.717   0.262   4.110 -1.4003  1.6350  0.7245
   66MOL   H16724997   2.563   0.261   4.189 -0.1826 -1.1216  0.6979
   66MOL   H16824998   2.633   0.229   3.887 -0.3645  0.6439 -0.2640
   66MOL   H16924999   2.483   0.182   3.955 -0.2953 -0.3726  1.1132
   66MOL   H17025000   2.465   0.440   4.043  0.0034  1.2398  0.3400
   66MOL   H17125001   2.597   0.478   3.936  0.2141 -1.4392 -1.0498
   66MOL   H17225002   2.455   0.412   3.868  0.0263  1.1025 -1.1573
   66MOL   C17325003   2.410   7.593   4.025 -0.5624  0.3412 -0.4040
   66MOL   C17425004   2.414   7.660   3.887 -0.6942  1.0069  0.6508
   66MOL   O17525005   2.544   7.614   3.845 -0.0670 -0.2481 -0.1165
   66MOL   C17625006   2.592   7.673   3.725  0.3443 -0.3262  0.3319
   66MOL   C17725007   2.697   7.593   3.644  0.0275  0.0847  0.2504
   66MOL   C17825008   2.743   7.679   3.530 -0.0882 -0.0816 -0.3625
   66MOL   C17925009   2.872   7.610   3.470  0.0376  0.2373 -0.4225
   66MOL   H18025010   2.310   7.608   4.067 -1.6110  0.3769 -2.8205
   66MOL   H18125011   2.416   7.484   4.016  0.8412  0.4211 -0.5016
   66MOL   H18225012   2.416   7.769   3.889  0.5580  1.0098  0.0341
   66MOL   H18325013   2.633   7.764   3.768  1.9093 -0.0148 -1.7863
   66MOL   H18425014   2.510   7.717   3.668 -0.3851 -1.2153  0.6786
   66MOL   H18525015   2.665   7.496   3.606 -0.4550  0.6254 -0.7460
   66MOL   H18625016   2.775   7.575   3.717  2.3285  0.3468 -2.0964
   66MOL   H18725017   2.662   7.696   3.458 -0.6874 -2.2329 -0.2235
   66MOL   H18825018   2.772   7.774   3.575 -1.1080 -0.4998  1.2008
   66MOL   H18925019   2.920   7.660   3.387 -2.0277  0.1825 -1.6885
   66MOL   H19025020   2.939   7.610   3.556 -1.9024 -0.4478  1.1532
   66MOL   H19125021   2.848   7.506   3.447 -1.3345  0.6364 -0.8706
   66MOL   C19225022   2.304   7.593   3.794  0.5021 -0.2321 -0.2491
   66MOL   C19325023   2.158   7.639   3.827  0.1491  0.0437  0.2862
   66MOL   O19425024   2.151   7.771   3.772 -0.0031  0.4929 -0.2401
   66MOL   C19525025   2.136   0.076   3.860  1.1588 -0.4472 -0.4695
   66MOL   C19625026   2.194   0.202   3.795 -0.4899  0.8811 -0.3695
   66MOL   C19725027   2.130   0.341   3.848  0.9301  0.3740  0.5286
   66MOL   C19825028   2.126   0.437   3.729 -0.0140  0.1344 -0.0177
   66MOL   H19925029   2.308   7.485   3.812  2.6133  0.0361  0.9942
   66MOL   H20025030   2.324   7.619   3.690 -0.5869  0.4383 -0.3021
   66MOL   H20125031   2.130   7.629   3.931 -0.1176 -1.0523  0.1168
   66MOL   H20225032   2.194   0.087   3.951  2.3008  1.2801 -1.3507
   66MOL   H20325033   2.030   0.096   3.876  0.6499 -2.4248 -1.2382
   66MOL   H20425034   2.302   0.200   3.811 -1.0849 -0.4588  3.9836
   66MOL   H20525035   2.175   0.186   3.689  2.0231  2.7300 -1.1690
   66MOL   H20625036   2.191   0.387   3.926 -1.3923  3.1994  0.7639
   66MOL   H20725037   2.032   0.325   3.895  1.5211 -0.7381  1.3904
   66MOL   H20825038   2.231   0.455   3.705 -0.1658  0.9813 -0.0427
   66MOL   H20925039   2.085   0.391   3.639 -0.3815  1.4414 -0.5256
   66MOL   H21025040   2.080   0.533   3.752  1.4177  0.8924 -0.2343
   66MOL   C21125041   2.055   7.537   3.772 -0.0242  0.5899  0.2561
   66MOL   C21225042   2.045   7.406   3.863 -0.0344 -0.2509  0.0436
   66MOL   O21325043   1.966   7.442   3.971 -0.8038  0.3309  0.3133
   66MOL   C21425044   2.009   7.414   4.106  0.2237  0.5093  0.1094
   66MOL   C21525045   1.920   7.481   4.201  0.1112 -0.4911  0.2774
   66MOL   C21625046   1.923   7.633   4.191  0.4106 -0.4020 -0.2079
   66MOL   C21725047   1.847   7.707   4.304  0.5469  0.0595  0.2679
   66MOL   H21825048   2.054   7.512   3.666 -1.4968 -3.1597  1.0796
   66MOL   H21925049   1.960   7.589   3.789 -0.0379  0.2040  1.3901
   66MOL   H22025050   2.142   7.370   3.898  0.7032  1.2236 -0.4201
   66MOL   H22125051   2.000   7.307   4.123 -3.0504  0.7993  0.4228
   66MOL   H22225052   2.108   7.443   4.139  0.1808  3.3152 -1.9895
   66MOL   H22325053   1.818   7.444   4.190  0.8136 -2.6329  0.8798
   66MOL   H22425054   1.951   7.449   4.300 -2.0155 -1.8684  0.5128
   66MOL   H22525055   1.894   7.653   4.088 -1.2758  0.0421  0.3474
   66MOL   H22625056   2.029   7.658   4.197  0.3179 -0.0058 -0.2111
   66MOL   H22725057   1.740   7.707   4.284  0.6014  1.7883 -0.0913
   66MOL   H22825058   1.884   0.008   4.310  1.3731 -0.2477  0.4834
   66MOL   H22925059   1.874   7.664   4.401  1.1615  0.6808  0.3721
   66MOL   C23025060   1.963   7.297   3.798 -0.1030  0.1409 -0.1261
   66MOL   C23125061   2.031   7.233   3.676 -0.3686  0.0519  0.1121
   66MOL   O23225062   2.182   7.232   3.685 -0.1346  0.1280  0.3532
   66MOL   C23325063   2.254   7.214   3.563  0.3419  0.2286  0.0915
   66MOL   C23425064   2.407   7.217   3.585 -0.4007  0.2674  0.2628
   66MOL   C23525065   2.473   7.179   3.455  0.3400 -0.3832 -0.7229
   66MOL   C23625066   2.613   7.238   3.437  0.5745  0.6348  0.2725
   66MOL   H23725067   1.862   7.331   3.779 -0.7490 -1.8812 -0.3927
   66MOL   H23825068   1.956   7.209   3.863 -2.5707  0.1005 -0.4223
   66MOL   H23925069   1.998   7.290   3.590 -0.7058  0.5495  0.5673
   66MOL   H24025070   2.233   7.122   3.508  0.0920 -0.9284  2.0433
   66MOL   H24125071   2.219   7.295   3.500 -4.1555 -1.2006  0.5180
   66MOL   H24225072   2.435   7.318   3.614  0.3623 -0.0537  0.6463
   66MOL   H24325073   2.440   7.151   3.665  0.6010  0.8862  0.3740
   66MOL   H24425074   2.419   7.220   3.369  3.0832 -0.1707 -2.4193
   66MOL   H24525075   2.465   7.072   3.442 -3.0231 -0.1624 -0.9847
   66MOL   H24625076   2.688   7.194   3.503 -0.6276 -0.1617  1.1296
   66MOL   H24725077   2.609   7.346   3.453  0.5748  0.3831  2.1360
   66MOL   H24825078   2.636   7.204   3.336  0.7891  0.8252  0.2572
   66MOL   C24925079   1.982   7.094   3.656  0.5003  0.6597  0.1074
   66MOL   C25025080   1.835   7.060   3.686  0.0667 -0.1709 -1.1246
   66MOL   O25125081   1.814   6.917   3.679  0.0130  0.4122  0.2245
   66MOL   C25225082   1.817   6.832   3.794 -0.0575 -0.3966 -0.2270
   66MOL   C25325083   1.801   6.686   3.748  0.1244 -0.3691 -0.3172
   66MOL   C25425084   1.923   6.653   3.656  0.7256  0.1520  0.5371
   66MOL   C25525085   1.913   6.513   3.592 -0.1230 -0.1045  0.4372
   66MOL   H25625086   2.032   7.035   3.734  0.5329  2.5608  1.5770
   66MOL   H25725087   2.006   7.071   3.553  0.3321  1.3425 -0.0847
   66MOL   H25825088   1.800   7.084   3.787 -0.9576 -0.8436 -1.3115
   66MOL   H25925089   1.743   6.848   3.872  0.0265 -1.5332  0.0922
   66MOL   H26025090   1.912   6.846   3.845 -0.2637 -1.6434  0.5011
   66MOL   H26125091   1.802   6.622   3.837  2.6358 -0.2177 -0.1813
   66MOL   H26225092   1.707   6.668   3.697 -0.2429 -1.6355  0.7901
   66MOL   H26325093   1.948   6.728   3.582 -3.1362  1.2699  0.2374
   66MOL   H26425094   2.000   6.657   3.732 -0.2306 -0.0950  1.5307
   66MOL   H26525095   1.822   6.517   3.533  0.5633  3.1880 -0.5033
   66MOL   H26625096   1.907   6.428   3.661  0.5248 -0.8279 -0.3914
   66MOL   H26725097   1.996   6.489   3.526 -0.5798 -1.2064  0.2524
   66MOL   C26825098   1.739   7.115   3.582  0.2930  1.0459 -0.5279
   66MOL   C26925099   1.584   7.093   3.614  0.3811  0.2112 -0.3748
   66MOL   O27025100   1.550   7.189   3.717  0.3989  0.0076 -0.1633
   66MOL   C27125101   1.459   7.131   3.816 -0.6291 -0.2979  0.1060
   66MOL   C27225102   1.445   7.221   3.935 -0.0202 -0.4552  0.0241
   66MOL   C27325103   1.551   7.193   4.044 -0.1902  0.0559  0.2603
   66MOL   C27425104   1.510   7.252   4.180  0.1968 -0.9985 -0.0140
   66MOL   H27525105   1.754   7.222   3.594 -0.6627  1.1533 -0.2615
   66MOL   H27625106   1.770   7.090   3.480  3.2481  1.9268  0.1248
   66MOL   H27725107   1.552   6.993   3.643 -0.7553  0.4080 -0.9378
   66MOL   H27825108   1.359   7.127   3.774 -1.6395 -0.7838  2.4923
   66MOL   H27925109   1.481   7.030   3.851 -0.8951 -0.7426 -0.9910
   66MOL   H28025110   1.423   7.325   3.907  2.9394 -0.5044 -2.7659
   66MOL   H28125111   1.347   7.206   3.982  0.5223  1.4210  1.8425
   66MOL   H28225112   1.647   7.238   4.016  0.4307 -1.7134 -0.5185
   66MOL   H28325113   1.572   7.086   4.036 -0.9337  0.1463 -4.1812
   66MOL   H28425114   1.416   7.210   4.215  0.4327 -2.0237 -0.5805
   66MOL   H28525115   1.506   7.360   4.170 -1.7828 -1.1306 -0.9455
   66MOL   H28625116   1.592   7.235   4.250  1.3028 -1.1274 -1.3226
   66MOL   C28725117   1.509   7.144   3.495 -0.1880  0.4392  0.2938
   66MOL   C28825118   1.495   7.042   3.384 -0.7143  0.3337 -0.1725
   66MOL   O28925119   1.619   7.014   3.320  0.3861 -0.2119 -0.0640
   66MOL   C29025120   1.650   6.877   3.320 -0.6316 -0.0280 -0.3405
   66MOL   C29125121   1.796   6.856   3.272 -0.3434  0.4443  0.1425
   66MOL   C29225122   1.819   6.914   3.132 -0.0733  0.4391 -0.1598
   66MOL   C29325123   1.947   6.866   3.067  0.3121 -0.0452  0.3234
   66MOL   H29425124   1.554   7.240   3.466  2.1448 -0.3116  1.2847
   66MOL   H29525125   1.410   7.156   3.538  0.6329  2.0429  1.8470
   66MOL   H29625126   1.446   6.949   3.411 -0.1188  0.9125  3.1351
   66MOL   H29725127   1.629   6.838   3.419 -1.5188  2.1608  0.3535
   66MOL   H29825128   1.583   6.826   3.250  0.7370  0.3465 -1.9487
   66MOL   H29925129   1.816   6.749   3.266 -0.0827  0.5835 -1.5108
   66MOL   H30025130   1.863   6.907   3.342 -0.5397  0.3285  0.4203
   66MOL   H30125131   1.832   7.022   3.135  3.5632  0.0568  1.5605
   66MOL   H30225132   1.733   6.880   3.074 -0.5415  3.0596 -1.0391
   66MOL   H30325133   2.039   6.907   3.111 -0.3192  0.4126  1.2443
   66MOL   H30425134   1.956   6.760   3.047 -0.9750  0.0318 -0.6675
   66MOL   H30525135   1.939   6.908   2.967 -0.5873  0.4576  0.5991
   66MOL   C30625136   1.409   7.088   3.270 -0.4611  0.3705  0.0188
   66MOL   C30725137   1.270   7.122   3.311 -0.5707  0.1828 -0.4014
   66MOL   O30825138   1.179   7.099   3.199 -0.1057  0.0792 -0.8873
   66MOL   C30925139   1.110   6.973   3.209  0.6571  0.8389 -0.0398
   66MOL   C31025140   1.033   6.947   3.078  1.1365  0.8032  0.6161
   66MOL   C31125141   1.129   6.929   2.957  0.3561 -0.6717  0.9638
   66MOL   C31225142   1.159   6.779   2.932  0.5845 -0.0013 -0.4134
   66MOL   H31325143   1.467   7.162   3.215 -2.4306  1.7248 -0.2746
   66MOL   H31425144   1.383   7.006   3.203  0.5672  0.4173 -0.4561
   66MOL   H31525145   1.241   7.056   3.392  0.3087 -1.8002 -1.6680
   66MOL   H31625146   1.043   6.984   3.295  1.0119  2.7484  0.0287
   66MOL   H31725147   1.181   6.892   3.223  0.0505  0.3955  0.5112
   66MOL   H31825148   0.978   7.041   3.073 -1.3260 -0.4791  2.7284
   66MOL   H31925149   0.959   6.871   3.103  2.5081 -0.2448  1.5638
   66MOL   H32025150   1.082   6.969   2.868 -0.1786 -2.7820  0.2657
   66MOL   H32125151   1.217   6.990   2.978  0.0746  0.0713 -0.0018
   66MOL   H32225152   1.062   6.738   2.903 -0.1662  1.9954 -0.8426
   66MOL   H32325153   1.190   6.735   3.027 -0.6376 -1.3768 -0.6423
   66MOL   H32425154   1.225   6.766   2.846 -0.5320 -0.3019 -1.2279
   66MOL   C32525155   1.255   7.276   3.349  1.0027  0.2815 -0.6572
   66MOL   C32625156   1.133   7.308   3.444 -0.1469  0.9421 -0.1692
   66MOL   O32725157   1.152   7.441   3.499 -0.1525 -0.0626 -0.4314
   66MOL   C32825158   1.240   7.433   3.607 -0.3955 -0.0738 -0.0398
   66MOL   C32925159   1.346   7.545   3.581 -0.4652  0.2256 -0.1073
   66MOL   C33025160   1.293   7.683   3.606  0.0511 -0.7228  0.2225
   66MOL   C33125161   1.392   7.789   3.556 -0.0640 -0.2160  0.0813
   66MOL   H33225162   1.232   7.330   3.257 -0.0204  0.0977 -0.5069
   66MOL   H33325163   1.340   7.326   3.397  1.0416 -0.6586  0.2606
   66MOL   H33425164   1.132   7.237   3.527  0.3472  0.2512 -0.7521
   66MOL   H33525165   1.294   7.340   3.624 -0.2793 -0.0712 -0.4061
   66MOL   H33625166   1.177   7.449   3.695  1.4335 -0.1787  1.3179
   66MOL   H33725167   1.439   7.526   3.635 -2.3411 -0.0267  3.1458
   66MOL   H33825168   1.367   7.525   3.476 -0.7096 -1.0761  0.0867
   66MOL   H33925169   1.271   7.698   3.712 -0.2811 -0.1054  0.0664
   66MOL   H34025170   1.195   7.694   3.560  0.9688 -0.7425 -1.7583
   66MOL   H34125171   1.376   0.092   3.583  0.9365  0.5566 -2.1582
   66MOL   H34225172   1.427   7.782   3.453 -2.2381 -0.1513 -0.6811
   66MOL   H34325173   1.480   7.769   3.617 -0.1655  0.7267  0.5501
   66MOL   C34425174   0.999   7.300   3.366 -0.5951  0.3646 -0.4860
   66MOL   C34525175   0.874   7.302   3.463 -0.6468  0.0551  0.1290
   66MOL   O34625176   0.899   7.185   3.538 -0.6065 -0.3176 -0.4611
   66MOL   C34725177   0.838   7.189   3.669  0.2744  0.0500 -0.2989
   66MOL   C34825178   0.897   7.065   3.743  0.7582  0.1304  0.5423
   66MOL   C34925179   0.819   7.049   3.877 -0.0379 -0.6369  1.3502
   66MOL   C35025180   0.857   6.916   3.949 -0.5325  0.0399 -0.7904
   66MOL   H35125181   0.995   7.381   3.294  0.4167  2.2574  1.5341
   66MOL   H35225182   0.981   7.211   3.305  3.6672 -1.1248  0.2327
   66MOL   H35325183   0.877   7.396   3.518  2.1272 -0.6252  1.2574
   66MOL   H35425184   0.732   7.180   3.649  0.2099  0.2274 -0.0347
   66MOL   H35525185   0.853   7.277   3.731 -0.3771  0.3833 -0.6136
   66MOL   H35625186   1.001   7.078   3.774 -0.3714  0.8345  4.2787
   66MOL   H35725187   0.871   6.976   3.686 -0.6888 -0.3343  1.8746
   66MOL   H35825188   0.834   7.142   3.933 -0.3136  0.1258  0.1799
   66MOL   H35925189   0.716   7.044   3.844  0.1667  1.2613  0.3404
   66MOL   H36025190   0.963   6.898   3.933 -0.3259  2.3170 -2.1477
   66MOL   H36125191   0.813   6.830   3.899  0.9900 -0.3373 -1.4980
   66MOL   H36225192   0.842   6.906   4.057 -0.3706  2.7760 -0.4660
   66MOL   C36325193   0.750   7.278   3.381 -0.3360 -0.7412 -0.2260
   66MOL   C36425194   0.714   7.391   3.299  0.4654  0.3379  0.9247
   66MOL   O36525195   0.672   7.504   3.374  0.0349 -0.4577 -0.0733
   66MOL   C36625196   0.666   7.618   3.295 -0.3788 -0.0131  0.2509
   66MOL   C36725197   0.582   7.729   3.361  0.9106  0.0767  0.2171
   66MOL   C36825198   0.637   7.794   3.486  0.3885  0.1936  0.2788
   66MOL   C36925199   0.766   0.076   3.471  0.6117 -0.0275 -0.2354
   66MOL   H37025200   0.669   7.246   3.447 -0.1660 -0.8013 -0.0475
   66MOL   H37125201   0.779   7.188   3.328  0.0287 -0.3258 -0.7310
   66MOL   H37225202   0.619   7.367   3.252  1.1198 -0.4190 -0.0268
   66MOL   H37325203   0.623   7.595   3.197  0.7695 -0.0089 -0.2699
   66MOL   H37425204   0.768   7.651   3.272 -0.0202  0.7284  2.8323
   66MOL   H37525205   0.484   7.684   3.379  0.5289  0.3308 -1.1444
   66MOL   H37625206   0.556   0.002   3.285  4.9014  1.2004 -0.1470
   66MOL   H37725207   0.667   7.720   3.561  1.4485 -0.7470 -1.0439
   66MOL   H37825208   0.558   0.054   3.530  1.1801  0.9437  0.6648
   66MOL   H37925209   0.769   0.126   3.374  0.9741  3.2479  1.3833
   66MOL   H38025210   0.769   0.150   3.551  0.3467  0.4768 -0.6916
   66MOL   H38125211   0.861   0.022   3.472 -0.5386 -2.0718  0.4023
   66MOL   H38225212   0.789   7.414   3.224  2.4313 -1.8856  2.1465
   67MOL     C125213   3.802   5.650   0.292  0.0495  0.2271 -0.4462
   67MOL     C225214   3.816   5.525   0.208  0.2397  0.1957 -0.0317
   67MOL     O325215   3.950   5.502   0.197 -0.4835 -0.0209  0.0973
   67MOL     C425216   4.011   5.563   0.080  0.1652  0.1342  0.1184
   67MOL     C525217   4.166   5.548   0.080 -0.2055 -0.4463  0.2678
   67MOL     C625218   4.202   5.400   0.056 -0.0358  1.0261 -0.2361
   67MOL     C725219   4.357   5.368   0.046 -0.6097  0.0953  0.1746
   67MOL     H825220   3.875   5.660   0.372 -1.8574  0.0415  1.3596
   67MOL     H925221   3.822   5.733   0.225  0.8811  1.1413  0.9143
   67MOL    H1025222   3.774   5.552   0.111  0.3992 -1.8100 -0.6900
   67MOL    H1125223   3.969   5.538   7.785 -2.7861 -0.9672  1.6306
   67MOL    H1225224   3.983   5.668   0.077  0.7707  0.3254  0.8884
   67MOL    H1325225   4.215   5.583   0.171 -0.7769  0.0479  0.3916
   67MOL    H1425226   4.210   5.609   0.001  1.8911  0.0048  1.7473
   67MOL    H1525227   4.150   5.360   7.771 -1.0375  1.8009 -0.0011
   67MOL    H1625228   4.154   5.347   0.138  1.1485  1.0947  0.5107
   67MOL    H1725229   4.402   5.439   7.779 -2.1167  0.9505  0.0289
   67MOL    H1825230   4.364   5.271   7.799  2.3559 -0.5472  1.7879
   67MOL    H1925231   4.399   5.382   0.146  0.0657  0.8834 -0.2145
   67MOL    H2025232   3.703   5.662   0.337 -0.0382 -2.3027  0.1078
   67MOL    C2125233   3.753   5.398   0.269 -0.4840 -0.6383  0.0621
   67MOL    C2225234   3.813   5.349   0.405 -0.4394  0.0256 -0.4188
   67MOL    O2325235   3.716   5.293   0.482 -0.1259  0.3212  0.0339
   67MOL    C2425236   3.644   5.379   0.567  0.3590  0.9352 -0.7222
   67MOL    C2525237   3.518   5.306   0.617 -0.5161 -0.4830  1.0354
   67MOL    C2625238   3.414   5.284   0.504  0.5889  0.7679  0.5479
   67MOL    C2725239   3.322   5.157   0.521 -0.1847 -0.0998 -0.3195
   67MOL    H2825240   3.756   5.314   0.200 -0.5364 -1.1548  0.6803
   67MOL    H2925241   3.647   5.422   0.278 -0.6657 -1.0454 -0.8971
   67MOL    H3025242   3.855   5.437   0.453 -0.3660 -1.2763  1.9457
   67MOL    H3125243   3.628   5.474   0.516 -0.5789  1.8113  1.1477
   67MOL    H3225244   3.705   5.403   0.654 -1.3111 -1.3923  1.1823
   67MOL    H3325245   3.545   5.212   0.665  2.4533 -0.5359 -0.6336
   67MOL    H3425246   3.473   5.370   0.693  1.0235  1.8308  0.0838
   67MOL    H3525247   3.355   5.375   0.492  0.1405  0.6679  1.9077
   67MOL    H3625248   3.458   5.277   0.404 -0.9039 -0.4047 -0.0534
   67MOL    H3725249   3.281   5.139   0.621  0.4172  0.6255  0.0687
   67MOL    H3825250   3.237   5.167   0.453 -0.7833  0.2965  0.4750
   67MOL    H3925251   3.375   5.063   0.507  0.9651  0.3168  1.0828
   67MOL    C4025252   3.933   5.250   0.380  0.2129  0.2985  0.0651
   67MOL    C4125253   4.000   5.195   0.514 -0.1132  0.4549 -0.0724
   67MOL    O4225254   4.086   5.302   0.560  0.2408  0.0850  0.9812
   67MOL    C4325255   4.039   5.377   0.671 -0.0729  0.1646  0.2346
   67MOL    C4425256   4.106   5.517   0.666 -0.1731  0.6872  0.2106
   67MOL    C4525257   4.255   5.519   0.670 -0.2640 -0.3719 -0.1825
   67MOL    C4625258   4.316   5.648   0.640  0.5349 -0.1479 -0.2493
   67MOL    H4725259   4.001   5.291   0.305 -0.3198 -0.4898 -0.8665
   67MOL    H4825260   3.896   5.168   0.319  1.3118 -1.0414  1.1541
   67MOL    H4925261   3.920   5.169   0.582 -0.0858  1.8896  0.5225
   67MOL    H5025262   4.075   5.323   0.758  0.9816  0.4970  0.0150
   67MOL    H5125263   3.931   5.363   0.675  0.2865 -2.3986  1.7094
   67MOL    H5225264   4.075   5.577   0.752 -0.3010 -1.6273  1.8202
   67MOL    H5325265   4.066   5.565   0.577  0.1466 -1.3790 -1.0633
   67MOL    H5425266   4.290   5.449   0.595  2.5679 -2.2176  2.7119
   67MOL    H5525267   4.296   5.480   0.763  3.4179  1.8381 -0.7704
   67MOL    H5625268   4.264   5.704   0.562  1.6598  1.7865  0.3504
   67MOL    H5725269   4.312   5.713   0.727  0.0825 -0.6302  0.0923
   67MOL    H5825270   4.422   5.642   0.617  0.7167 -0.6006  0.6910
   67MOL    C5925271   4.088   5.066   0.488 -0.7634 -0.0067 -0.5799
   67MOL    C6025272   4.145   4.996   0.618  0.0256 -0.4939 -0.3459
   67MOL    O6125273   4.043   4.969   0.715  0.4192  0.1965 -0.4779
   67MOL    C6225274   4.037   5.037   0.838 -0.6218  0.1662 -0.2271
   67MOL    C6325275   3.921   4.976   0.919 -0.0272  0.1781  0.4504
   67MOL    C6425276   3.948   4.835   0.966 -0.1182  0.0682 -0.3817
   67MOL    C6525277   3.838   4.776   1.056 -0.6530  0.4050 -0.6192
   67MOL    H6625278   4.026   4.995   0.433 -1.8960  1.1799 -0.8521
   67MOL    H6725279   4.170   5.092   0.421 -1.1351  1.4342 -0.5036
   67MOL    H6825280   4.212   5.065   0.670  0.7485  0.0655 -1.9957
   67MOL    H6925281   4.015   5.143   0.829 -1.6924 -0.0735 -0.5767
   67MOL    H7025282   4.131   5.000   0.879  0.2694  0.6423 -1.7918
   67MOL    H7125283   3.914   5.051   0.998 -1.3248 -1.1765  1.6618
   67MOL    H7225284   3.823   4.981   0.872  0.1449 -1.9969 -0.2184
   67MOL    H7325285   3.964   4.773   0.878 -0.0442  2.5870 -2.2029
   67MOL    H7425286   4.038   4.837   1.029 -0.2828  2.6514 -0.1886
   67MOL    H7525287   3.764   4.733   0.989  0.7670  0.6802 -2.4165
   67MOL    H7625288   3.872   4.699   1.124  1.0176  1.1142 -0.6157
   67MOL    H7725289   3.781   4.855   1.106  1.3757  0.9120  0.9574
   67MOL    C7825290   4.225   4.868   0.584  0.4408 -0.4986 -0.6016
   67MOL    C7925291   4.354   4.882   0.505  0.2530  0.5785  0.0994
   67MOL    O8025292   4.312   4.894   0.362 -0.1771  0.2063  0.0016
   67MOL    C8125293   4.410   4.955   0.283  1.1224 -0.0734  0.3842
   67MOL    C8225294   4.374   4.952   0.129 -0.6768  0.6658 -0.6353
   67MOL    C8325295   4.232   5.002   0.102 -0.0909  0.6053 -0.6844
   67MOL    C8425296   4.201   4.988   7.754  1.1194  0.7040 -0.4605
   67MOL    H8525297   4.164   4.799   0.525  0.4545 -0.3587 -0.7796
   67MOL    H8625298   4.242   4.807   0.673 -1.3110 -0.9895 -0.5890
   67MOL    H8725299   4.391   4.979   0.541  0.4439  0.6559 -0.3046
   67MOL    H8825300   4.506   4.906   0.293  1.0723 -0.0576  0.9442
   67MOL    H8925301   4.415   5.056   0.322  1.0687 -0.0495  0.3322
   67MOL    H9025302   4.448   5.018   0.084 -0.0870 -0.1757 -0.9176
   67MOL    H9125303   4.386   4.850   0.093  0.7815  0.7596 -0.4336
   67MOL    H9225304   4.211   5.105   0.128 -0.2142  0.0520  1.4464
   67MOL    H9325305   4.160   4.948   0.162 -1.6361  2.0656 -1.1958
   67MOL    H9425306   4.104   5.034   7.738  0.4084 -0.5523  0.1761
   67MOL    H9525307   4.274   5.035   7.688  0.9965 -1.8047 -2.4666
   67MOL    H9625308   4.194   4.885   7.720  0.6390  0.4130  0.5086
   67MOL    C9725309   4.443   4.751   0.525 -0.4045 -0.5229 -0.8878
   67MOL    C9825310   4.533   4.739   0.651 -0.3953  0.8815  0.8755
   67MOL    O9925311   4.446   4.719   0.761  0.4878 -0.2306 -0.6190
   67MOL   C10025312   4.490   4.772   0.886  0.3248  0.0059 -0.9103
   67MOL   C10125313   4.389   4.727   1.002 -0.7280  0.6064  0.0954
   67MOL   C10225314   4.378   4.576   1.005  0.1716 -0.2653  0.5664
   67MOL   C10325315   4.278   4.524   1.108  0.5357  0.0938 -0.3795
   67MOL   H10425316   4.509   4.745   0.439 -1.1431  0.7442 -1.5725
   67MOL   H10525317   4.377   4.664   0.519 -0.2169 -0.5862 -2.1209
   67MOL   H10625318   4.593   4.830   0.658 -0.1994  0.8787 -0.6634
   67MOL   H10725319   4.491   4.881   0.885  0.0030  0.0057 -0.9507
   67MOL   H10825320   4.595   4.757   0.911  0.2731  1.5869  0.3148
   67MOL   H10925321   4.291   4.773   0.986 -1.8404 -2.0805 -1.2777
   67MOL   H11025322   4.423   4.771   1.095 -1.2368  2.3632 -0.5286
   67MOL   H11125323   4.472   4.523   1.017  0.6279  0.1697 -0.9791
   67MOL   H11225324   4.340   4.541   0.909 -0.1364 -0.8584  0.9039
   67MOL   H11325325   4.307   4.568   1.203  0.4775  0.7062 -0.6419
   67MOL   H11425326   4.172   4.537   1.085  0.1534 -0.0079  1.2522
   67MOL   H11525327   4.296   4.417   1.115 -1.3209 -0.1354  1.3490
   67MOL   C11625328   4.643   4.634   0.650 -0.0024  0.1833 -0.2831
   67MOL   C11725329   4.604   4.485   0.655  0.4354 -0.0801 -0.7040
   67MOL   O11825330   4.550   4.450   0.531  0.2773  0.3387  0.1869
   67MOL   C11925331   4.444   4.351   0.551 -0.3445  0.0512  0.4999
   67MOL   C12025332   4.367   4.336   0.422  0.0588  0.6188 -0.0341
   67MOL   C12125333   4.239   4.256   0.438  0.1473 -0.0104 -0.3676
   67MOL   C12225334   4.187   4.180   0.319  0.1846 -0.0357  0.2050
   67MOL   H12325335   4.708   4.653   0.565  2.4947 -2.5005  0.9048
   67MOL   H12425336   4.699   4.662   0.740 -1.1682  2.2712 -0.1911
   67MOL   H12525337   4.545   4.465   0.745 -0.7503  0.7421 -1.2828
   67MOL   H12625338   4.370   4.390   0.621 -0.1189  3.8121 -1.2533
   67MOL   H12725339   4.467   4.255   0.596 -0.2683 -0.3434 -0.3698
   67MOL   H12825340   4.445   4.288   0.362  0.6697  1.5226  0.0367
   67MOL   H12925341   4.358   4.436   0.380  0.1743  1.3963  1.7627
   67MOL   H13025342   4.263   4.186   0.518  0.1083 -0.3768 -0.6748
   67MOL   H13125343   4.154   4.317   0.467 -0.5297  0.6263 -3.5518
   67MOL   H13225344   4.261   4.108   0.283  0.8077  1.3713 -1.3825
   67MOL   H13325345   4.155   4.240   0.234  0.5579  1.1729  0.9078
   67MOL   H13425346   4.099   4.125   0.352  1.2249 -3.0329 -1.8055
   67MOL   C13525347   4.740   4.402   0.671 -0.4872  0.6986  0.3114
   67MOL   C13625348   4.795   4.403   0.812  0.2484  0.7093  0.0522
   67MOL   O13725349   4.759   4.277   0.872 -0.0319  0.4960  0.8941
   67MOL   C13825350   4.630   4.274   0.933  0.1775 -0.4229  0.0883
   67MOL   C13925351   4.599   4.140   1.003 -0.3321  0.5500  0.3182
   67MOL   C14025352   4.554   4.027   0.902  0.0638  0.4582 -0.8175
   67MOL   C14125353   4.529   3.898   0.980  0.3442 -0.0746 -1.1030
   67MOL   H14225354   4.815   4.433   0.598  0.3590  0.9609  1.2782
   67MOL   H14325355   4.718   4.301   0.638 -1.5992 -0.0719  3.3129
   67MOL   H14425356   4.746   4.489   0.859 -0.0038  0.4559  0.2507
   67MOL   H14525357   4.556   4.286   0.854 -0.7153  0.2686  1.0156
   67MOL   H14625358   4.617   4.353   1.007 -0.0172 -1.6735  1.4146
   67MOL   H14725359   4.521   4.155   1.077 -0.5024 -2.2439  0.7599
   67MOL   H14825360   4.687   4.111   1.059 -0.1672  1.5384  0.5743
   67MOL   H14925361   4.457   4.058   0.862  0.4235  3.3362  0.4439
   67MOL   H15025362   4.623   4.011   0.819  0.2490  0.3454 -0.6450
   67MOL   H15125363   4.622   3.842   0.997  0.2644  0.4311  1.1482
   67MOL   H15225364   4.482   3.919   1.076 -0.0493  0.4288 -1.4049
   67MOL   H15325365   4.469   3.830   0.919 -0.4108  0.5249 -1.0256
   67MOL   C15425366   4.951   4.418   0.828  0.1514 -0.1420 -0.0058
   67MOL   C15525367   5.010   4.552   0.779 -0.2912 -1.4788  0.1307
   67MOL   O15625368   5.150   4.534   0.808  0.1053  0.5351 -0.1476
   67MOL   C15725369   5.229   4.486   0.707  0.2055  0.0300  0.3457
   67MOL   C15825370   5.377   4.526   0.738  0.4068  0.0060 -0.3694
   67MOL   C15925371   5.436   4.458   0.861 -0.0801  0.0205  0.0426
   67MOL   C16025372   5.572   4.504   0.899 -0.6653  0.5010  0.1411
   67MOL   H16125373   4.992   4.337   0.768  0.0323 -0.9677  1.0177
   67MOL   H16225374   4.993   4.394   0.926  0.0996  1.7340  0.4942
   67MOL   H16325375   4.988   4.559   0.673 -1.4792 -0.7701  0.4215
   67MOL   H16425376   5.213   4.379   0.710 -2.6115  0.3549 -0.9737
   67MOL   H16525377   5.197   4.508   0.605 -0.1568 -1.0824  0.2179
   67MOL   H16625378   5.371   4.633   0.760  0.9112  0.3702 -1.9807
   67MOL   H16725379   5.428   4.513   0.643  0.4088 -0.8850 -0.2445
   67MOL   H16825380   5.365   4.474   0.942 -0.7339 -1.5247 -0.2142
   67MOL   H16925381   5.447   4.350   0.850 -0.0379  0.0807 -0.4739
   67MOL   H17025382   5.637   4.472   0.818 -1.5491  0.1323 -0.4310
   67MOL   H17125383   5.591   4.611   0.909  3.6762 -0.0472 -1.1684
   67MOL   H17225384   5.617   4.460   0.987 -1.1279  1.6192  0.9509
   67MOL   C17325385   4.966   4.667   0.867 -0.4294 -0.4006  0.4002
   67MOL   C17425386   4.988   4.800   0.792  0.6366  0.2220 -0.0709
   67MOL   O17525387   4.927   4.794   0.663 -0.1628 -0.1245  0.0329
   67MOL   C17625388   5.016   4.834   0.555  0.4712 -0.8136 -0.1287
   67MOL   C17725389   4.942   4.805   0.426 -0.0358  0.3281  0.2701
   67MOL   C17825390   4.834   4.906   0.390  0.5887 -0.3440 -0.5963
   67MOL   C17925391   4.790   4.878   0.249 -0.6133 -0.4486  0.3418
   67MOL   H18025392   5.014   4.654   0.964  1.3140 -0.0179 -0.3918
   67MOL   H18125393   4.861   4.658   0.892 -0.2861 -0.4090  1.0202
   67MOL   H18225394   5.095   4.821   0.787  0.8631 -0.8432  0.1006
   67MOL   H18325395   5.110   4.781   0.572  1.1383  0.4038 -0.0100
   67MOL   H18425396   5.037   4.940   0.563 -1.2012 -0.4768 -0.0837
   67MOL   H18525397   4.898   4.705   0.426 -0.9545  0.7283  0.4281
   67MOL   H18625398   5.013   4.811   0.344 -1.5292  0.0576 -1.0708
   67MOL   H18725399   4.756   4.900   0.466 -0.1124  1.3349 -1.1556
   67MOL   H18825400   4.865   5.010   0.401  0.8070 -0.3518 -1.0983
   67MOL   H18925401   4.874   4.885   0.179 -1.3961 -1.1739 -0.6953
   67MOL   H19025402   4.730   4.786   0.251 -0.9088 -0.2503  0.6487
   67MOL   H19125403   4.736   4.966   0.216 -1.4740 -0.9347  0.4211
   67MOL   C19225404   4.922   4.918   0.863  0.1050  0.0449  0.4209
   67MOL   C19325405   4.977   4.957   1.001  0.3642 -0.4409 -0.3458
   67MOL   O19425406   5.114   4.978   0.995  0.3811  0.3959 -0.4343
   67MOL   C19525407   5.184   4.935   1.106  0.0701  0.2208  0.2182
   67MOL   C19625408   5.334   4.967   1.098  0.0082  0.8975  0.3691
   67MOL   C19725409   5.424   4.874   1.002  0.2415  0.0390 -0.0895
   67MOL   C19825410   5.569   4.917   1.008 -0.0348  0.1871  0.2743
   67MOL   H19925411   4.813   4.920   0.857  0.1879  1.7963 -1.4015
   67MOL   H20025412   4.939   4.995   0.788 -0.0024 -1.2181 -0.9162
   67MOL   H20125413   4.942   4.878   1.067  2.6928 -1.7962 -0.7032
   67MOL   H20225414   5.188   4.826   1.107  0.3179  0.2056 -1.7367
   67MOL   H20325415   5.145   4.981   1.197 -0.0150 -1.8029  1.2182
   67MOL   H20425416   5.344   5.071   1.069 -0.0958  0.0873 -2.7226
   67MOL   H20525417   5.375   4.951   1.198 -3.7451 -1.4401  1.6499
   67MOL   H20625418   5.386   4.866   0.900  0.6232 -0.3578 -0.2022
   67MOL   H20725419   5.414   4.770   1.035  0.2080  0.5142  1.4269
   67MOL   H20825420   5.613   4.929   1.108  3.0531  0.5298 -1.0588
   67MOL   H20925421   5.634   4.839   0.968 -0.5457  0.0320 -0.2578
   67MOL   H21025422   5.573   5.015   0.961 -3.8753 -0.8233 -2.3732
   67MOL   C21125423   4.893   5.083   1.052  0.2721 -0.6134 -0.9962
   67MOL   C21225424   4.745   5.047   1.103 -0.3126 -0.3259  0.1084
   67MOL   O21325425   4.770   4.960   1.218  0.4117 -0.2674  0.2564
   67MOL   C21425426   4.658   4.909   1.285  0.2680  0.0312 -0.0830
   67MOL   C21525427   4.712   4.829   1.400 -0.0126  0.3196 -0.1871
   67MOL   C21625428   4.771   4.699   1.355 -0.3424  0.0493  0.1745
   67MOL   C21725429   4.678   4.606   1.284  0.3777  0.1453  0.8392
   67MOL   H21825430   4.910   5.160   0.977  3.2989  1.7635  1.9303
   67MOL   H21925431   4.949   5.129   1.134 -1.3060  0.1314 -0.3084
   67MOL   H22025432   4.697   4.982   1.030 -0.0834 -1.2615  0.7950
   67MOL   H22125433   4.599   4.991   1.325 -1.0582 -2.0145  2.3071
   67MOL   H22225434   4.589   4.857   1.218 -1.3584  0.6267  1.0818
   67MOL   H22325435   4.789   4.880   1.458 -1.1497  1.3098  0.4830
   67MOL   H22425436   4.638   4.816   1.479  1.0682 -1.8728  0.5178
   67MOL   H22525437   4.815   4.648   1.440  0.7418  1.7073  0.6281
   67MOL   H22625438   4.855   4.726   1.291  1.0898  1.2773  2.4972
   67MOL   H22725439   4.664   4.632   1.179 -2.2429 -0.1554  1.0877
   67MOL   H22825440   4.580   4.594   1.331  0.4608 -0.2596  0.9118
   67MOL   H22925441   4.729   4.510   1.276  1.0241  0.4892  0.7761
   67MOL   C23025442   4.663   5.179   1.131 -0.0299  0.7369 -0.9047
   67MOL   C23125443   4.627   5.256   1.005 -0.7496 -0.8288  0.2327
   67MOL   O23225444   4.569   5.148   0.924  0.2999 -0.2310 -0.6356
   67MOL   C23325445   4.623   5.147   0.793 -0.0863  0.3698  0.5804
   67MOL   C23425446   4.559   5.261   0.705 -0.0559 -0.5007 -0.2225
   67MOL   C23525447   4.600   5.243   0.558  0.7661  0.2339  0.1885
   67MOL   C23625448   4.533   5.340   0.456  0.4485 -0.6625  0.0102
   67MOL   H23725449   4.717   5.246   1.197 -1.7967  1.1576  0.1304
   67MOL   H23825450   4.571   5.161   1.187  0.5788 -0.0419 -0.1575
   67MOL   H23925451   4.723   5.287   0.964 -1.5512  0.8581 -0.4303
   67MOL   H24025452   4.732   5.155   0.788 -0.1557  0.3495 -1.7692
   67MOL   H24125453   4.605   5.047   0.752 -0.1202 -1.0867  4.0238
   67MOL   H24225454   4.451   5.273   0.714  0.1719 -0.1386  2.4584
   67MOL   H24325455   4.601   5.353   0.744  0.5350 -0.7286 -0.3285
   67MOL   H24425456   4.573   5.144   0.522  0.8536  0.0255  0.6934
   67MOL   H24525457   4.708   5.254   0.548  0.6870  0.3272 -0.5598
   67MOL   H24625458   4.566   5.442   0.473  0.3213 -0.1848 -2.4682
   67MOL   H24725459   4.426   5.332   0.440  0.6040  0.3659 -1.6004
   67MOL   H24825460   4.562   5.321   0.353  0.6946  1.3041 -0.3029
   67MOL   C24925461   4.529   5.368   1.036  0.1778 -0.4430  0.1587
   67MOL   C25025462   4.593   5.507   1.058 -0.6347  0.7163 -0.1769
   67MOL   O25125463   4.674   5.501   1.173 -0.4458 -0.1176 -0.4881
   67MOL   C25225464   4.801   5.561   1.161 -0.0335  0.4518 -0.4632
   67MOL   C25325465   4.889   5.490   1.260  0.1645  0.2255  0.0933
   67MOL   C25425466   4.858   5.512   1.410  0.4428  0.5008  0.0022
   67MOL   C25525467   4.865   5.662   1.452  0.0188  0.1480  0.1440
   67MOL   H25625468   4.468   5.346   1.123  0.4964 -0.3602  0.4024
   67MOL   H25725469   4.456   5.370   0.955 -0.6975  1.1478  0.9657
   67MOL   H25825470   4.655   5.521   0.970  0.8116 -1.1178  0.5137
   67MOL   H25925471   4.792   5.667   1.185 -2.6195  0.1726  0.0164
   67MOL   H26025472   4.841   5.559   1.060  0.0316 -0.4757 -0.4189
   67MOL   H26125473   4.893   5.385   1.229  0.7119  0.7127 -1.5378
   67MOL   H26225474   4.992   5.525   1.252  0.9419 -2.0334 -0.2005
   67MOL   H26325475   4.760   5.471   1.434  0.8910 -0.4957  0.1720
   67MOL   H26425476   4.919   5.443   1.468 -2.8069 -0.7735  2.0318
   67MOL   H26525477   4.839   5.684   1.556  2.1774  3.0179  0.1594
   67MOL   H26625478   4.813   5.729   1.383  2.8420  2.0008 -0.2723
   67MOL   H26725479   4.967   5.700   1.449 -0.3017  1.1043  0.9152
   67MOL   C26825480   4.487   5.622   1.071 -0.9096 -0.2128 -0.0484
   67MOL   C26925481   4.534   5.758   1.029 -0.4596 -0.2310  0.4625
   67MOL   O27025482   4.544   5.748   0.887  0.0238 -0.0364 -0.5360
   67MOL   C27125483   4.615   5.846   0.817 -0.8235 -0.1958  0.6678
   67MOL   C27225484   4.642   5.815   0.667  0.0974 -0.0272 -0.4378
   67MOL   C27325485   4.726   5.684   0.638  0.1865 -0.2395 -0.1191
   67MOL   C27425486   4.767   5.676   0.484  0.2828 -0.1042  0.1085
   67MOL   H27525487   4.402   5.589   1.012 -0.3898  0.9665 -1.4763
   67MOL   H27625488   4.454   5.615   1.174 -0.2438 -2.8522  0.0231
   67MOL   H27725489   4.630   5.790   1.068 -0.7158  2.0043 -0.6641
   67MOL   H27825490   4.560   5.940   0.830 -0.2814  0.2662 -0.3194
   67MOL   H27925491   4.713   5.864   0.860  0.0565  0.1529 -1.4417
   67MOL   H28025492   4.549   5.813   0.610 -1.5338 -1.1318  2.1946
   67MOL   H28125493   4.701   5.896   0.625 -0.7392  1.4595  1.2086
   67MOL   H28225494   4.678   5.599   0.685 -0.7237  1.1097  1.4507
   67MOL   H28325495   4.813   5.694   0.702 -1.6623  1.8887  2.1976
   67MOL   H28425496   4.801   5.574   0.469  0.9273  0.2311 -0.7673
   67MOL   H28525497   4.841   5.745   0.442 -1.3347 -0.0713 -2.7615
   67MOL   H28625498   4.684   5.698   0.417 -0.5129  0.1741  1.1608
   67MOL   C28725499   4.428   5.856   1.076 -0.1471  0.3146 -0.0635
   67MOL   C28825500   4.408   5.869   1.234  0.7406  0.4309 -0.7152
   67MOL   O28925501   4.338   5.989   1.254  0.1714  0.6114 -0.4972
   67MOL   C29025502   4.238   6.005   1.349  0.7023 -0.6454 -0.6544
   67MOL   C29125503   4.222   6.153   1.371 -0.5285 -0.0954 -0.2553
   67MOL   C29225504   4.108   6.185   1.471 -0.2560 -0.5277  0.0629
   67MOL   C29325505   4.062   6.332   1.462  0.1123 -0.1764  0.2111
   67MOL   H29425506   4.326   5.830   1.047  0.5733 -2.7757 -0.0003
   67MOL   H29525507   4.446   5.953   1.030 -0.8493  0.0891 -0.8082
   67MOL   H29625508   4.351   5.785   1.273 -0.0644  1.1389 -0.3595
   67MOL   H29725509   4.141   5.975   1.309  0.5251 -1.0098  0.0388
   67MOL   H29825510   4.251   5.960   1.447 -2.0871 -1.3563 -0.5720
   67MOL   H29925511   4.214   6.205   1.275 -0.1277  1.4658  0.5513
   67MOL   H30025512   4.304   6.192   1.430 -0.4911  0.4067 -0.6374
   67MOL   H30125513   4.143   6.162   1.571 -1.0051  0.5079  0.5611
   67MOL   H30225514   4.017   6.129   1.449  0.3613 -0.3828 -3.1451
   67MOL   H30325515   4.144   6.399   1.489  2.5280 -3.3212  0.9179
   67MOL   H30425516   4.051   6.363   1.358  0.0219 -0.2554  0.1978
   67MOL   H30525517   3.974   6.360   1.520 -0.7304  0.4421 -1.3367
   67MOL   C30625518   4.550   5.874   1.310  0.1889  0.3078 -0.5528
   67MOL   C30725519   4.539   5.904   1.461  0.6903 -0.1085  0.2108
   67MOL   O30825520   4.669   5.936   1.516  0.6626  0.9681  0.2865
   67MOL   C30925521   4.690   6.073   1.498  0.5688 -0.4068  0.5379
   67MOL   C31025522   4.832   6.083   1.560 -0.3056 -0.1336  0.0992
   67MOL   C31125523   4.833   6.095   1.714  0.0572  0.0886 -0.0398
   67MOL   C31225524   4.981   6.120   1.759 -0.3518 -0.8610 -0.1029
   67MOL   H31325525   4.613   5.786   1.296  0.3858  0.3760 -0.1217
   67MOL   H31425526   4.612   5.956   1.272  0.4097 -0.2241 -1.3257
   67MOL   H31525527   4.467   5.985   1.454  3.0797  2.0639 -0.0385
   67MOL   H31625528   4.620   6.142   1.546  0.3355  0.4822 -1.0434
   67MOL   H31725529   4.690   6.113   1.397 -2.0747 -1.5854  0.0119
   67MOL   H31825530   4.860   6.183   1.526  0.5675 -0.9427 -1.6240
   67MOL   H31925531   4.907   6.021   1.512  0.4532  0.4516  0.5080
   67MOL   H32025532   4.769   6.179   1.741  1.2108  0.7704  0.6259
   67MOL   H32125533   4.774   6.014   1.756  0.2912  0.4966  1.0708
   67MOL   H32225534   4.996   6.138   1.865  0.6629 -1.1320 -0.1964
   67MOL   H32325535   5.040   6.185   1.695 -1.5588  0.1989 -0.1501
   67MOL   H32425536   5.030   6.023   1.748  0.8472 -0.2668 -0.1402
   67MOL   C32525537   4.484   5.783   1.543 -0.7081 -0.1634 -0.6375
   67MOL   C32625538   4.452   5.812   1.692 -0.2937 -0.3248  0.3407
   67MOL   O32725539   4.379   5.941   1.700  0.3481 -0.7207 -0.1785
   67MOL   C32825540   4.431   6.021   1.807 -0.4969 -0.1986  0.8262
   67MOL   C32925541   4.319   6.096   1.877 -0.6216  0.0476 -0.2825
   67MOL   C33025542   4.369   6.167   2.003 -0.0212  1.0002  0.9660
   67MOL   C33125543   4.267   6.268   2.048  0.4262  0.1092 -0.4121
   67MOL   H33225544   4.549   5.695   1.545  1.1255  1.1907  1.3451
   67MOL   H33325545   4.392   5.750   1.494 -0.4602  1.7546 -2.4596
   67MOL   H33425546   4.542   5.821   1.753  1.5877  0.3966 -2.4619
   67MOL   H33525547   4.494   6.100   1.766 -1.3523  0.4328  0.7029
   67MOL   H33625548   4.479   5.960   1.883  2.1951  1.3641  0.4347
   67MOL   H33725549   4.286   6.174   1.808 -2.3027  0.0703  0.5263
   67MOL   H33825550   4.236   6.029   1.901 -1.0877  1.0879  1.0551
   67MOL   H33925551   4.460   6.221   1.975 -0.4698  1.5638  0.5967
   67MOL   H34025552   4.387   6.093   2.081  1.4020  0.7854  0.4563
   67MOL   H34125553   4.298   6.336   2.127  0.2814  1.7076 -1.7004
   67MOL   H34225554   4.168   6.230   2.070  1.0733 -1.2534  0.1578
   67MOL   H34325555   4.253   6.343   1.970  1.0105 -0.7089 -1.3040
   67MOL   C34425556   4.377   5.695   1.757 -0.9241 -0.4390  0.0339
   67MOL   C34525557   4.350   5.710   1.905 -0.0302 -0.4940 -0.5375
   67MOL   O34625558   4.468   5.700   1.981 -0.0650 -0.4247  0.0273
   67MOL   C34725559   4.450   5.737   2.123  0.1189  0.4672  0.6561
   67MOL   C34825560   4.563   5.687   2.216 -0.0298  0.5143 -0.2076
   67MOL   C34925561   4.579   5.778   2.344 -0.0094  0.1836 -0.2308
   67MOL   C35025562   4.700   5.752   2.427  0.2064 -0.0522  0.4977
   67MOL   H35125563   4.288   5.679   1.695  0.2082 -0.6258 -1.5776
   67MOL   H35225564   4.427   5.600   1.737  0.7625  0.7295 -1.5203
   67MOL   H35325565   4.310   5.809   1.923  0.1177 -0.4309 -0.5613
   67MOL   H35425566   4.358   5.696   2.166  0.4679 -0.4207  0.5553
   67MOL   H35525567   4.449   5.846   2.125 -0.1046  0.4566  1.3000
   67MOL   H35625568   4.652   5.687   2.153 -0.7785  1.3852 -1.2834
   67MOL   H35725569   4.555   5.581   2.241 -0.4859  0.3314 -1.1305
   67MOL   H35825570   4.572   5.882   2.313 -3.3139 -0.2664 -1.2497
   67MOL   H35925571   4.486   5.767   2.401 -0.4905 -1.2171 -1.2656
   67MOL   H36025572   4.716   5.646   2.441  1.0163  0.3798  3.1397
   67MOL   H36125573   4.680   5.787   2.529  3.1348  1.1680  0.6992
   67MOL   H36225574   4.789   5.809   2.400 -0.4412  0.8356  0.2001
   67MOL   C36325575   4.240   5.608   1.958  0.4350  0.1717  0.8957
   67MOL   C36425576   4.293   5.459   1.971  0.6438 -0.4941  0.3051
   67MOL   O36525577   4.179   5.367   1.977 -0.0207  0.0511  0.0090
   67MOL   C36625578   4.232   5.244   2.032  0.4458 -0.0022  0.2551
   67MOL   C36725579   4.157   5.126   1.974  0.4645 -0.6957  0.3181
   67MOL   C36825580   4.185   5.123   1.820  0.6804  0.1990  0.5862
   67MOL   C36925581   4.096   5.026   1.745 -0.1385 -0.0483  0.1625
   67MOL   H37025582   4.158   5.600   1.886  1.8039 -0.2419 -0.6488
   67MOL   H37125583   4.190   5.651   2.045  1.2925  0.4112  1.2739
   67MOL   H37225584   4.354   5.463   2.062 -0.4729  0.2888  1.0305
   67MOL   H37325585   4.220   5.244   2.141  1.1600  2.2832  0.3703
   67MOL   H37425586   4.338   5.232   2.012  0.8995  2.5135  0.8827
   67MOL   H37525587   4.052   5.140   2.002  0.4174 -0.5681  0.0825
   67MOL   H37625588   4.192   5.031   2.012 -0.6918 -0.4997  1.8850
   67MOL   H37725589   4.289   5.101   1.795 -0.1018 -2.3899 -0.5130
   67MOL   H37825590   4.167   5.223   1.779  2.3542  0.2623 -0.0330
   67MOL   H37925591   4.131   4.928   1.777 -1.0634 -0.3734  0.1897
   67MOL   H38025592   3.989   5.029   1.763 -0.5806 -0.3492 -2.1875
   67MOL   H38125593   4.118   5.024   1.638  1.2983  0.1540  0.4417
   67MOL   H38225594   4.355   5.423   1.888 -1.0251 -2.2424 -0.2126
   68MOL     C125595   3.955   0.590   0.543  0.8866 -0.1757 -0.4651
   68MOL     C225596   4.002   0.730   0.561  0.5601 -0.4938 -0.1940
   68MOL     O325597   4.141   0.746   0.540 -0.4701 -0.7782  0.0282
   68MOL     C425598   4.192   0.687   0.424 -0.0187  0.1092  0.4263
   68MOL     C525599   4.316   0.765   0.382  0.2541 -0.0355 -0.1851
   68MOL     C625600   4.270   0.908   0.334  0.0718 -0.5194  0.4719
   68MOL     C725601   4.383   0.985   0.270 -0.4739  0.1102  0.1423
   68MOL     H825602   3.848   0.602   0.556  0.9958 -0.6928  0.9918
   68MOL     H925603   3.981   0.551   0.444  2.5369 -1.7039  0.5348
   68MOL    H1025604   3.991   0.754   0.667 -1.5608 -0.4675 -0.4004
   68MOL    H1125605   4.211   0.580   0.437 -1.8874 -0.4909 -1.5253
   68MOL    H1225606   4.125   0.695   0.338  1.9189 -0.1179 -1.1275
   68MOL    H1325607   4.353   0.711   0.294 -0.8794  0.7091 -1.1254
   68MOL    H1425608   4.398   0.762   0.455 -1.2340 -0.2424  1.5021
   68MOL    H1525609   4.225   0.964   0.416  0.9283  0.2430  0.4210
   68MOL    H1625610   4.189   0.902   0.262  1.2332 -0.2682 -0.8630
   68MOL    H1725611   4.361   1.091   0.261 -2.4171 -0.3376 -0.4840
   68MOL    H1825612   4.388   0.940   0.171 -2.2786 -0.1054  0.1336
   68MOL    H1925613   4.478   0.978   0.324 -0.4027 -0.5597 -0.0680
   68MOL    H2025614   3.994   0.530   0.625  1.4544  0.1921 -0.4609
   68MOL    C2125615   3.922   0.837   0.481  0.4470 -0.1890 -0.5278
   68MOL    C2225616   3.904   0.979   0.547 -0.2976 -1.0872 -1.1470
   68MOL    O2325617   4.027   1.050   0.559  0.0938 -0.1235  0.2475
   68MOL    C2425618   4.097   1.046   0.684  0.6634 -0.1580  0.1758
   68MOL    C2525619   4.232   1.105   0.671 -0.6538  0.5225  0.2672
   68MOL    C2625620   4.219   1.248   0.616 -0.5198 -0.3081  0.5136
   68MOL    C2725621   4.351   1.331   0.626  0.2243  0.3919  0.6646
   68MOL    H2825622   3.822   0.806   0.450  0.6165 -2.2238  0.8765
   68MOL    H2925623   3.972   0.846   0.385  1.8039  0.0315  0.1989
   68MOL    H3025624   3.857   0.966   0.645 -0.9936 -0.2385 -1.3679
   68MOL    H3125625   4.112   0.947   0.726  0.2158  0.1357  1.0357
   68MOL    H3225626   4.045   1.108   0.757 -0.2684 -0.1575 -0.4658
   68MOL    H3325627   4.279   1.108   0.769  0.1617 -1.0022 -0.0723
   68MOL    H3425628   4.297   1.035   0.620  0.0941  0.6839  0.9972
   68MOL    H3525629   4.192   1.233   0.511  0.5102 -1.8208  0.4528
   68MOL    H3625630   4.146   1.313   0.666  0.3031 -0.1123  1.4647
   68MOL    H3725631   4.410   1.332   0.535  1.9642 -0.2640  1.7614
   68MOL    H3825632   4.331   1.438   0.630  0.4451  0.6013 -2.7747
   68MOL    H3925633   4.416   1.309   0.711  0.7734  0.3186  0.2241
   68MOL    C4025634   3.819   1.070   0.464  0.9445  0.3919  0.1612
   68MOL    C4125635   3.798   1.214   0.522 -0.2034  0.2135  0.6613
   68MOL    O4225636   3.684   1.206   0.605  0.1501 -0.3856 -0.3924
   68MOL    C4325637   3.673   1.293   0.719 -0.3113  0.6123  0.6428
   68MOL    C4425638   3.543   1.275   0.794  0.1594 -0.0602 -0.1423
   68MOL    C4525639   3.552   1.334   0.942 -0.4511 -0.4068 -0.5839
   68MOL    C4625640   3.427   1.317   1.031 -0.4515 -0.0493  0.1310
   68MOL    H4725641   3.726   1.015   0.448  0.7671  0.8592 -0.4185
   68MOL    H4825642   3.859   1.082   0.364  1.3171 -1.4522  0.0719
   68MOL    H4925643   3.887   1.241   0.580 -0.4097  1.1402  0.5508
   68MOL    H5025644   3.667   1.398   0.690  0.7232  1.1121  2.1511
   68MOL    H5125645   3.758   1.268   0.783  0.1710 -1.7612 -0.8549
   68MOL    H5225646   3.515   1.169   0.799 -0.5329  0.1375  0.1823
   68MOL    H5325647   3.455   1.318   0.746  0.2916 -0.4580 -0.7411
   68MOL    H5425648   3.552   1.443   0.929  0.0413 -0.3202  0.1446
   68MOL    H5525649   3.640   1.298   0.995 -0.1017 -2.0779 -2.2580
   68MOL    H5625650   3.450   1.359   1.129 -2.3841  0.2572  0.4650
   68MOL    H5725651   3.342   1.359   0.977  0.4191  1.7029  0.0936
   68MOL    H5825652   3.410   1.210   1.043  3.8872 -1.1737 -2.4072
   68MOL    C5925653   3.771   1.322   0.418 -0.2479  0.3407  0.1725
   68MOL    C6025654   3.883   1.347   0.314  0.4242  0.2591 -0.0357
   68MOL    O6125655   3.883   1.263   0.201  0.1598  0.6841  0.0758
   68MOL    C6225656   4.011   1.215   0.176  0.3628  0.6164 -0.3542
   68MOL    C6325657   4.035   1.189   0.020 -0.2596 -0.7672 -0.7899
   68MOL    C6425658   4.182   1.141   0.003  0.0989  0.3908  0.3626
   68MOL    C6525659   4.218   1.101   7.661  0.2507 -0.2839  0.9983
   68MOL    H6625660   3.685   1.286   0.361 -0.0993 -1.0186  0.7933
   68MOL    H6725661   3.749   1.422   0.455  2.1275  1.5429 -1.5171
   68MOL    H6825662   3.967   1.316   0.376  0.3103 -1.1828 -0.5864
   68MOL    H6925663   4.031   1.127   0.238 -0.9897  1.9641  2.1120
   68MOL    H7025664   4.086   1.289   0.204 -0.2380  0.8959  0.5419
   68MOL    H7125665   3.970   1.114   7.777  1.5557 -1.6650 -1.9999
   68MOL    H7225666   4.028   1.281   7.765  0.2159 -1.9202 -2.7700
   68MOL    H7325667   4.258   1.211   0.038  3.0634 -2.3777 -0.3284
   68MOL    H7425668   4.184   1.054   0.069 -0.3659  0.6560  0.7349
   68MOL    H7525669   4.154   1.023   7.618 -1.9645  1.3285  1.2363
   68MOL    H7625670   4.210   1.186   7.592 -0.1554  0.1130  1.5309
   68MOL    H7725671   4.323   1.074   7.654  0.5173 -0.3073  4.5588
   68MOL    C7825672   3.887   1.488   0.240  0.1336 -0.7809  0.5822
   68MOL    C7925673   3.930   1.610   0.324  0.2652 -0.4788  0.0978
   68MOL    O8025674   3.888   1.724   0.255  0.2886 -0.5801 -0.1161
   68MOL    C8125675   3.752   1.768   0.264  0.4730 -0.1284 -0.4753
   68MOL    C8225676   3.730   1.905   0.190  0.3608 -0.6287 -0.8216
   68MOL    C8325677   3.752   1.893   0.031  0.2373 -0.2252  0.3735
   68MOL    C8425678   3.705   2.017   7.759  0.9023  0.0224 -0.0957
   68MOL    H8525679   3.790   1.512   0.196  0.6363  1.0142  0.4230
   68MOL    H8625680   3.958   1.489   0.158  0.3584 -1.3526  0.7683
   68MOL    H8725681   3.881   1.606   0.422 -0.2202 -1.5527 -0.1799
   68MOL    H8825682   3.733   1.780   0.371 -0.5644  1.3807 -0.8101
   68MOL    H8925683   3.676   1.698   0.231  0.1745  0.7511 -1.6674
   68MOL    H9025684   3.626   1.934   0.211  0.2453 -1.5497 -0.0797
   68MOL    H9125685   3.788   1.989   0.228 -0.8267 -1.1941  2.4650
   68MOL    H9225686   3.697   1.803   0.005  0.3897 -0.3162  0.3654
   68MOL    H9325687   3.858   1.877   0.015  0.3934  2.3671 -1.4663
   68MOL    H9425688   3.744   2.018   7.657 -3.4922  1.5949 -1.8636
   68MOL    H9525689   3.598   2.001   7.748  1.1453 -2.0745  0.4558
   68MOL    H9625690   3.724   2.106   0.016  0.1465 -0.3155  0.6596
   68MOL    C9725691   4.079   1.613   0.361 -0.6444 -0.2111 -0.0605
   68MOL    C9825692   4.125   1.741   0.448 -1.3130  0.3025  0.0743
   68MOL    O9925693   4.091   1.720   0.580  0.1696 -0.3927  0.4515
   68MOL   C10025694   4.024   1.824   0.648 -0.4009  0.1767 -0.1563
   68MOL   C10125695   3.957   1.763   0.775 -0.2393  0.4156  0.1696
   68MOL   C10225696   3.886   1.627   0.759  0.5095  0.6312 -0.5124
   68MOL   C10325697   3.867   1.565   0.899 -0.1682 -0.0992  0.1546
   68MOL   H10425698   4.134   1.600   0.268 -0.3927 -3.9336  0.5361
   68MOL   H10525699   4.102   1.524   0.419  1.5743  1.0791  1.0950
   68MOL   H10625700   4.083   1.833   0.407 -1.0042  0.6810  0.6054
   68MOL   H10725701   3.958   1.874   0.578  1.2180  0.7704 -1.2812
   68MOL   H10825702   4.093   1.900   0.683  0.6893  0.6120 -3.1913
   68MOL   H10925703   3.885   1.840   0.804 -1.1194 -0.3905  0.1835
   68MOL   H11025704   4.031   1.769   0.855  0.2413  3.6025 -0.4596
   68MOL   H11125705   3.951   1.558   0.706  2.3950  3.3784 -1.9362
   68MOL   H11225706   3.793   1.649   0.707  0.9269 -0.6121 -1.7963
   68MOL   H11325707   3.819   1.640   0.961 -0.4810  1.6410 -2.1367
   68MOL   H11425708   3.804   1.476   0.895 -1.5931  0.9196 -0.2729
   68MOL   H11525709   3.966   1.540   0.937 -0.1614 -0.4653 -0.1029
   68MOL   C11625710   4.274   1.769   0.441 -0.0475 -0.0174 -0.4397
   68MOL   C11725711   4.346   1.812   0.312 -1.4167  0.2356 -0.0238
   68MOL   O11825712   4.284   1.921   0.260  0.3288  0.0285 -0.1259
   68MOL   C11925713   4.266   1.936   0.117 -0.2048  0.0645  0.2266
   68MOL   C12025714   4.220   2.079   0.090  0.2857  0.6472 -0.1333
   68MOL   C12125715   4.141   2.096   7.761  0.5423  0.0101 -0.3111
   68MOL   C12225716   4.114   2.249   7.733  0.0818 -0.2398 -0.4976
   68MOL   H12325717   4.270   1.847   0.517  0.2123 -0.4539  0.0298
   68MOL   H12425718   4.329   1.687   0.488  0.4065  0.3456 -0.3328
   68MOL   H12525719   4.357   1.734   0.237 -1.8773 -0.2926  0.4572
   68MOL   H12625720   4.183   1.865   0.107 -2.8645  2.8484  1.6179
   68MOL   H12725721   4.355   1.909   0.060  0.2743  1.2620  0.3835
   68MOL   H12825722   4.306   2.145   0.101  1.6351 -1.0081 -0.4870
   68MOL   H12925723   4.152   2.090   0.175  0.0533  3.6350 -0.6476
   68MOL   H13025724   4.205   2.055   7.682 -1.3094 -0.8043 -1.4032
   68MOL   H13125725   4.047   2.043   7.747  0.5718 -0.2799  0.5412
   68MOL   H13225726   4.054   2.286   7.649  1.7754 -0.6861 -1.9313
   68MOL   H13325727   4.204   2.304   7.706  0.0459  0.0966  0.0407
   68MOL   H13425728   4.083   2.299   0.024 -1.0428 -1.5230 -0.1664
   68MOL   C13525729   4.487   1.851   0.344 -0.1399 -0.3016  0.1812
   68MOL   C13625730   4.585   1.738   0.387  0.6349  0.1638 -0.3302
   68MOL   O13725731   4.555   1.706   0.522  0.1959  0.0898  0.4299
   68MOL   C13825732   4.647   1.774   0.611  0.6202 -0.6522 -0.8668
   68MOL   C13925733   4.612   1.764   0.764 -0.4024 -0.3482 -0.1391
   68MOL   C14025734   4.464   1.802   0.794  0.6864 -0.2076 -0.1194
   68MOL   C14125735   4.404   1.792   0.938 -0.1350 -0.1069 -0.1436
   68MOL   H14225736   4.501   1.931   0.417 -0.7184 -0.9902  1.0548
   68MOL   H14325737   4.526   1.884   0.248  0.5947 -2.5273 -0.3308
   68MOL   H14425738   4.692   1.755   0.372  0.8407  1.5224  2.3211
   68MOL   H14525739   4.648   1.879   0.585 -1.6381  0.2070  2.2028
   68MOL   H14625740   4.749   1.736   0.598  1.8498  1.0737  2.8633
   68MOL   H14725741   4.672   1.834   0.822 -0.8868  0.8640 -1.0892
   68MOL   H14825742   4.641   1.662   0.790  1.2264  0.0876 -0.2420
   68MOL   H14925743   4.444   1.906   0.766 -1.0599 -0.5539 -0.2213
   68MOL   H15025744   4.401   1.734   0.736  0.5417  0.6142 -0.9460
   68MOL   H15125745   4.455   1.850   1.014  0.8361  0.2924 -1.0844
   68MOL   H15225746   4.299   1.822   0.936  0.2357  1.2057 -0.0667
   68MOL   H15325747   4.427   1.693   0.979  2.8222  0.6887  0.2071
   68MOL   C15425748   4.575   1.612   0.299 -0.5297 -0.3887 -0.0364
   68MOL   C15525749   4.698   1.529   0.320 -0.5041 -0.4795 -0.5219
   68MOL   O15625750   4.813   1.582   0.255 -0.1663 -0.0526 -0.1736
   68MOL   C15725751   4.930   1.592   0.338 -0.3512 -0.0832  0.2448
   68MOL   C15825752   5.053   1.632   0.257 -0.2809 -0.0507  1.0801
   68MOL   C15925753   5.034   1.774   0.194 -0.2542 -0.1680  0.1048
   68MOL   C16025754   5.147   1.829   0.108 -0.2424 -0.3457  0.5509
   68MOL   H16125755   4.565   1.643   0.195 -0.5240 -0.2707 -0.0019
   68MOL   H16225756   4.493   1.542   0.314  1.3514 -2.0670  3.0160
   68MOL   H16325757   4.705   1.534   0.428 -1.4239  0.0413 -0.4720
   68MOL   H16425758   4.914   1.663   0.420  2.8373 -0.1905  1.0060
   68MOL   H16525759   4.950   1.504   0.400 -1.0315 -1.3203 -1.2312
   68MOL   H16625760   5.054   1.562   0.174  0.9888  0.6433  0.4946
   68MOL   H16725761   5.144   1.625   0.316  0.3229 -0.0846  0.1581
   68MOL   H16825762   4.945   1.778   0.131 -1.2009  1.1082  1.4645
   68MOL   H16925763   5.019   1.837   0.282  1.0922 -0.0919  0.2773
   68MOL   H17025764   5.235   1.850   0.169 -0.8942  2.9839  0.4090
   68MOL   H17125765   5.167   1.766   0.021  2.6639 -0.0316  0.9444
   68MOL   H17225766   5.127   1.926   0.064  0.9246 -0.1354  0.4610
   68MOL   C17325767   4.678   1.384   0.275 -0.2844  0.3692 -0.3189
   68MOL   C17425768   4.763   1.283   0.353 -0.1272  0.1822 -0.9438
   68MOL   O17525769   4.732   1.281   0.495 -0.0405 -0.0466 -0.0025
   68MOL   C17625770   4.826   1.233   0.590 -0.2658  1.0594 -0.0450
   68MOL   C17725771   4.754   1.197   0.714  0.3700 -0.0165  0.0563
   68MOL   C17825772   4.714   1.318   0.800  0.2183 -0.5390  0.1428
   68MOL   C17925773   4.660   1.279   0.953 -1.1687  0.2382 -0.2580
   68MOL   H18025774   4.704   1.376   0.169 -1.3196 -1.5212 -0.4510
   68MOL   H18125775   4.573   1.358   0.287 -0.5812  1.3224 -0.7807
   68MOL   H18225776   4.870   1.302   0.346 -0.6828  4.2017 -0.0254
   68MOL   H18325777   4.907   1.299   0.623  1.1059  0.0528 -1.3651
   68MOL   H18425778   4.865   1.142   0.546  0.1060  1.3364 -0.3009
   68MOL   H18525779   4.818   1.129   0.769 -0.1347  0.3873  1.1687
   68MOL   H18625780   4.669   1.133   0.691 -1.7294  2.7004 -0.1429
   68MOL   H18725781   4.792   1.394   0.810 -0.0201 -0.0873 -1.1895
   68MOL   H18825782   4.631   1.368   0.749  0.8972 -0.3829 -0.8193
   68MOL   H18925783   4.576   1.209   0.955  0.7055 -2.0930 -0.2946
   68MOL   H19025784   4.745   1.220   0.986  0.8858  2.9572 -0.5768
   68MOL   H19125785   4.636   1.356   1.026  2.0176  1.3525 -0.3233
   68MOL   C19225786   4.744   1.140   0.304 -0.1377  0.1338 -0.4672
   68MOL   C19325787   4.777   1.117   0.154 -0.0401 -0.1623 -0.1953
   68MOL   O19425788   4.911   1.164   0.114  0.5283 -0.4065  0.1663
   68MOL   C19525789   4.914   1.263   0.009 -0.8619 -0.8711 -0.1758
   68MOL   C19625790   5.029   1.253   7.706 -0.4888 -0.5017  0.4484
   68MOL   C19725791   5.041   1.385   7.620 -0.2638 -0.2190 -0.3311
   68MOL   C19825792   5.104   1.364   7.478  0.1892 -0.7133  0.2634
   68MOL   H19925793   4.638   1.120   0.323 -0.0203  0.9491  1.1311
   68MOL   H20025794   4.791   1.066   0.369 -0.7055 -0.7586 -1.0487
   68MOL   H20125795   4.704   1.176   0.098  0.0082  0.3227  0.2463
   68MOL   H20225796   4.907   1.361   0.057 -1.5186 -0.8372 -0.3350
   68MOL   H20325797   4.823   1.257   7.752 -0.9872 -2.9434  0.1884
   68MOL   H20425798   5.126   1.243   7.754  0.7612 -3.0327 -2.4474
   68MOL   H20525799   5.038   1.154   7.660  1.8020 -0.1114 -0.0223
   68MOL   H20625800   5.102   1.451   7.681  1.4030  0.0696 -2.2405
   68MOL   H20725801   4.944   1.433   7.617 -0.2011 -0.1101 -0.6169
   68MOL   H20825802   5.051   1.288   7.420  0.0621  0.2427 -0.8853
   68MOL   H20925803   5.103   1.445   7.406  0.4667 -1.1728 -0.2587
   68MOL   H21025804   5.202   1.319   7.490  0.2685 -0.7095 -0.3806
   68MOL   C21125805   4.752   0.977   0.098 -0.0421  0.3830  0.1001
   68MOL   C21225806   4.828   0.854   0.161 -0.1764  0.1580  0.4186
   68MOL   O21325807   4.753   0.820   0.277 -0.3739 -0.1510  0.6057
   68MOL   C21425808   4.823   0.749   0.380  0.0046 -0.0384  0.6833
   68MOL   C21525809   4.721   0.716   0.491  0.0333 -0.0323 -0.2046
   68MOL   C21625810   4.678   0.847   0.560 -0.3519  0.3198  0.4305
   68MOL   C21725811   4.604   0.829   0.691  0.2612  0.1309 -0.1399
   68MOL   H21825812   4.755   0.986   7.791 -3.5727  0.1546 -0.0708
   68MOL   H21925813   4.646   0.961   0.116  0.1621  0.0331  0.9794
   68MOL   H22025814   4.927   0.893   0.187 -0.7669  2.2684 -0.4770
   68MOL   H22125815   4.856   0.653   0.339  0.1997  1.0792 -1.8507
   68MOL   H22225816   4.893   0.818   0.429 -2.6789  2.3703  1.2651
   68MOL   H22325817   4.639   0.654   0.454 -0.1404  1.9475 -3.3574
   68MOL   H22425818   4.773   0.654   0.564  2.0135  2.9418  0.9833
   68MOL   H22525819   4.613   0.895   0.487  1.2689  2.3236  0.2543
   68MOL   H22625820   4.767   0.910   0.570 -0.9863  1.5774 -1.5775
   68MOL   H22725821   4.669   0.791   0.770 -1.1444 -1.4382  0.2893
   68MOL   H22825822   4.529   0.749   0.690  0.7756 -0.3565 -0.2425
   68MOL   H22925823   4.554   0.921   0.720 -1.5809 -0.7474 -0.4794
   68MOL   C23025824   4.830   0.732   0.078  0.4091 -0.0888  0.9645
   68MOL   C23125825   4.917   0.743   7.750 -0.5973 -0.1414 -0.1200
   68MOL   O23225826   5.054   0.725   7.785  0.5257 -0.3746 -0.6028
   68MOL   C23325827   5.133   0.840   7.792 -0.1061 -0.2081  0.4916
   68MOL   C23425828   5.278   0.797   0.003  0.4894 -0.1712 -0.0768
   68MOL   C23525829   5.323   0.704   0.122  0.3833 -0.2634 -0.0697
   68MOL   C23625830   5.477   0.687   0.133 -0.5513 -0.2115 -0.2053
   68MOL   H23725831   4.728   0.708   0.048  1.6550 -2.0452 -1.8976
   68MOL   H23825832   4.873   0.642   0.121 -0.1949 -0.3632  1.0061
   68MOL   H23925833   4.903   0.843   7.708 -0.4757 -0.6152 -1.3095
   68MOL   H24025834   5.106   0.910   7.713  1.6732 -0.4558 -0.3686
   68MOL   H24125835   5.109   0.895   0.081  1.1461 -0.8698  1.2298
   68MOL   H24225836   5.301   0.741   7.714 -1.7081 -2.0918  0.5074
   68MOL   H24325837   5.344   0.883   0.012 -3.0108  2.6302 -0.2933
   68MOL   H24425838   5.259   0.616   0.114 -0.8063  0.6263 -0.4657
   68MOL   H24525839   5.286   0.753   0.212  0.3404  1.7387 -1.1671
   68MOL   H24625840   5.527   0.783   0.121 -1.5012  0.6156  2.2063
   68MOL   H24725841   5.510   0.613   0.061 -0.2833  1.2622 -1.6371
   68MOL   H24825842   5.488   0.655   0.236  3.8832  1.9079  0.0551
   68MOL   C24925843   4.879   0.634   7.646 -0.3384 -0.6366  0.2811
   68MOL   C25025844   4.758   0.661   7.554 -0.9269 -0.0054 -0.5402
   68MOL   O25125845   4.644   0.626   7.629 -0.3212 -0.5937  0.2799
   68MOL   C25225846   4.521   0.659   7.573 -0.1275 -0.4422  0.2659
   68MOL   C25325847   4.413   0.638   7.683 -0.8800  0.4230 -0.3576
   68MOL   C25425848   4.294   0.733   7.672 -0.8122  0.2402  0.3550
   68MOL   C25525849   4.176   0.692   7.760  0.4054 -0.2783  0.6844
   68MOL   H25625850   4.902   0.533   7.682 -0.5797  0.1605  2.7863
   68MOL   H25725851   4.954   0.650   7.569 -1.9763 -0.8876 -1.3737
   68MOL   H25825852   4.759   0.769   7.538  0.5941  0.3748  1.9199
   68MOL   H25925853   4.493   0.617   7.476 -1.6143  0.7551  0.1538
   68MOL   H26025854   4.533   0.765   7.548  2.0976 -0.3783  1.4988
   68MOL   H26125855   4.374   0.537   7.665  1.6039 -0.8570  1.0988
   68MOL   H26225856   4.452   0.637   7.785 -1.5425  1.9823 -0.0750
   68MOL   H26325857   4.307   0.840   7.687 -0.8615  0.1362  1.1678
   68MOL   H26425858   4.268   0.725   7.566  1.5259  1.0928 -0.3115
   68MOL   H26525859   4.118   0.603   7.735  0.6442 -0.4622  0.7866
   68MOL   H26625860   4.107   0.772   7.731  1.6595  1.2045  1.7242
   68MOL   H26725861   4.193   0.693   0.066 -2.5852  0.2159  1.1977
   68MOL   C26825862   4.753   0.593   7.418  0.6226  0.5301 -0.4695
   68MOL   C26925863   4.871   0.598   7.324  0.0483 -0.4872  0.3045
   68MOL   O27025864   4.833   0.528   7.209 -0.3499  0.0760 -0.1372
   68MOL   C27125865   4.846   0.384   7.216  0.3411  0.0280  0.1957
   68MOL   C27225866   4.770   0.330   7.092  0.0556 -0.3702 -0.6492
   68MOL   C27325867   4.612   0.355   7.108  0.2240  0.0608 -0.2130
   68MOL   C27425868   4.535   0.321   6.983  0.1208  0.2413 -0.9113
   68MOL   H27525869   4.715   0.492   7.436  1.2062  0.3432 -0.2682
   68MOL   H27625870   4.674   0.635   7.356 -1.6321  0.8318  2.5026
   68MOL   H27725871   4.961   0.554   7.365  1.1947 -0.5411 -2.2084
   68MOL   H27825872   4.952   0.357   7.213  0.3057  0.0206 -1.6713
   68MOL   H27925873   4.790   0.340   7.298 -1.1559  1.7558  0.1234
   68MOL   H28025874   4.820   0.367   7.002  0.6708  0.7198  0.1215
   68MOL   H28125875   4.772   0.221   7.090  1.0862 -0.3561 -0.6173
   68MOL   H28225876   4.592   0.443   7.169 -0.4678 -0.6928  0.6596
   68MOL   H28325877   4.575   0.275   7.172 -0.6823  0.6464  0.0112
   68MOL   H28425878   4.594   0.255   6.919 -1.6604 -1.3164 -0.9883
   68MOL   H28525879   4.528   0.409   6.919  1.4591  1.2963  0.3450
   68MOL   H28625880   4.439   0.273   7.001  1.4604 -2.2320  0.0153
   68MOL   C28725881   4.897   0.746   7.291 -0.5504 -0.6528 -0.7949
   68MOL   C28825882   5.006   0.779   7.191 -0.4752  0.4284  0.1221
   68MOL   O28925883   5.130   0.735   7.246  0.2549  0.1580  0.2613
   68MOL   C29025884   5.209   0.641   7.182  0.8888  0.2642  0.2638
   68MOL   C29125885   5.339   0.617   7.247 -0.1962  0.1787  0.0712
   68MOL   C29225886   5.323   0.573   7.392 -0.3540  0.1086 -0.0186
   68MOL   C29325887   5.451   0.570   7.467  0.3375 -0.2732  0.0947
   68MOL   H29425888   4.935   0.790   7.383  1.2586  1.1476 -2.3393
   68MOL   H29525889   4.806   0.796   7.256 -0.0462  0.9962  0.1647
   68MOL   H29625890   4.988   0.716   7.104  1.5592  1.3521 -1.0165
   68MOL   H29725891   5.155   0.548   7.172  0.0046  0.9060 -1.0601
   68MOL   H29825892   5.236   0.670   7.080  1.6457 -1.7123 -0.1124
   68MOL   H29925893   5.402   0.706   7.244 -1.3706  1.0216 -0.0730
   68MOL   H30025894   5.391   0.536   7.196  0.7287 -0.0433  1.3558
   68MOL   H30125895   5.269   0.479   7.379  0.2324 -0.2229 -0.1071
   68MOL   H30225896   5.252   0.627   7.453 -1.4615 -0.5501 -0.7076
   68MOL   H30325897   5.521   0.505   7.413  1.0668 -0.7428  1.5691
   68MOL   H30425898   5.484   0.674   7.470 -0.4642 -0.0566  1.8686
   68MOL   H30525899   5.439   0.532   7.569  0.0320 -0.7872 -0.1327
   68MOL   C30625900   5.012   0.930   7.144  0.0881  0.0071  0.6482
   68MOL   C30725901   5.122   0.946   7.037  0.0486 -0.1247  0.2675
   68MOL   O30825902   5.129   1.092   7.015 -0.0339  0.0017  0.5324
   68MOL   C30925903   5.232   1.151   7.099 -0.0385  0.5587  0.1667
   68MOL   C31025904   5.244   1.297   7.055  0.6676  1.0133 -0.1626
   68MOL   C31125905   5.255   1.325   6.902  0.1207 -0.1060 -0.2582
   68MOL   C31225906   5.282   1.473   6.874 -0.1976  0.3868 -0.3155
   68MOL   H31325907   4.919   0.973   7.105  0.4743  2.2799  2.1459
   68MOL   H31425908   5.028   0.995   7.231  2.3041 -1.2836  1.2245
   68MOL   H31525909   5.222   0.916   7.069 -0.2980 -0.8624  0.6599
   68MOL   H31625910   5.330   1.105   7.087 -0.3559  0.2904 -1.5213
   68MOL   H31725911   5.206   1.157   7.204  0.2181 -2.2241  0.4223
   68MOL   H31825912   5.327   1.342   7.110 -1.5896  1.0752  3.4121
   68MOL   H31925913   5.155   1.352   7.088  0.6715  0.2498  1.1619
   68MOL   H32025914   5.341   1.266   6.872 -0.5568 -1.5643  0.6269
   68MOL   H32125915   5.169   1.293   6.843 -1.0465  0.2100  1.2299
   68MOL   H32225916   5.379   1.504   6.912 -0.1935 -0.8123  0.7017
   68MOL   H32325917   5.205   1.543   6.908  0.0721  0.4683  0.1287
   68MOL   H32425918   5.283   1.491   6.767  0.5236  1.7624 -0.0903
   68MOL   C32525919   5.098   0.866   6.907  0.7192  1.1379  0.5730
   68MOL   C32625920   5.200   0.889   6.796  0.0579  0.1649 -0.0406
   68MOL   O32725921   5.302   0.795   6.832  0.5754  0.3484 -0.0189
   68MOL   C32825922   5.425   0.859   6.853 -0.1647  0.3702  0.0935
   68MOL   C32925923   5.513   0.765   6.927 -0.0326  0.4724  0.1141
   68MOL   C33025924   5.638   0.830   6.988  0.0244  0.0872 -0.7142
   68MOL   C33125925   5.685   0.761   7.117 -0.0109  0.4120 -0.2224
   68MOL   H33225926   5.006   0.908   6.866  0.8070  0.1484 -0.6555
   68MOL   H33325927   5.082   0.762   6.934  0.4834  0.8015 -0.8292
   68MOL   H33425928   5.241   0.989   6.787 -1.4190  0.6959 -0.9552
   68MOL   H33525929   5.404   0.944   6.918  0.1200  0.0104  0.6598
   68MOL   H33625930   5.469   0.886   6.757 -0.1347 -1.2139 -0.3457
   68MOL   H33725931   5.452   0.729   7.010  0.3022  0.1798  0.2358
   68MOL   H33825932   5.536   0.673   6.872  1.7895  1.0684 -0.1511
   68MOL   H33925933   5.612   0.932   7.018  0.2070  0.5721 -2.1638
   68MOL   H34025934   5.715   0.856   6.915  0.2978  1.4410  0.0376
   68MOL   H34125935   5.788   0.790   7.139  0.0688 -0.1744  0.2023
   68MOL   H34225936   5.678   0.652   7.113 -0.3143  0.4758 -1.7055
   68MOL   H34325937   5.620   0.783   7.201  0.7567  0.6520  0.3127
   68MOL   C34425938   5.141   0.856   6.656  0.1248 -0.4761 -0.2240
   68MOL   C34525939   5.250   0.864   6.549 -0.7794 -0.1680  0.0889
   68MOL   O34625940   5.305   0.998   6.541  0.1537  0.3396 -0.2538
   68MOL   C34725941   5.439   1.012   6.494 -0.5638 -0.0564 -0.9698
   68MOL   C34825942   5.488   1.158   6.499 -0.2095 -0.3794 -0.0258
   68MOL   C34925943   5.633   1.176   6.461 -0.5938 -0.2728  0.6741
   68MOL   C35025944   5.652   1.320   6.421  0.3538  0.0924  0.6536
   68MOL   H35125945   5.104   0.755   6.672 -1.0052 -0.1728 -0.8278
   68MOL   H35225946   5.061   0.923   6.625 -0.2051 -1.2434 -1.0547
   68MOL   H35325947   5.321   0.789   6.583  0.0887  1.0300  0.9810
   68MOL   H35425948   5.447   0.979   6.391  0.3619 -2.8494 -0.0385
   68MOL   H35525949   5.508   0.947   6.548  1.5777 -0.0468 -3.6088
   68MOL   H35625950   5.467   1.194   6.600  0.2385  1.3440 -0.5354
   68MOL   H35725951   5.427   1.217   6.431 -2.1604 -0.4081  1.6238
   68MOL   H35825952   5.710   1.141   6.529 -0.7825 -1.0434  0.4939
   68MOL   H35925953   5.651   1.119   6.370  0.1816 -1.2243  1.4200
   68MOL   H36025954   5.585   1.336   6.335  2.4346 -0.8920 -1.1984
   68MOL   H36125955   5.754   1.328   6.384  0.2108 -1.8347 -0.2770
   68MOL   H36225956   5.624   1.384   6.504 -0.5214  0.1655  0.3165
   68MOL   C36325957   5.209   0.818   6.405 -0.6570  0.2744 -0.4882
   68MOL   C36425958   5.142   0.684   6.404  0.0398  0.5327 -0.3930
   68MOL   O36525959   5.131   0.640   6.268 -0.3466  0.0614 -0.0293
   68MOL   C36625960   5.011   0.681   6.203  0.2581  0.6407 -0.5116
   68MOL   C36725961   4.990   0.616   6.060 -0.2914 -0.3625 -0.0941
   68MOL   C36825962   4.847   0.623   5.994 -0.2949  0.2112 -0.0650
   68MOL   C36925963   4.824   0.754   5.928 -0.1007  0.0740  0.1776
   68MOL   H37025964   5.303   0.806   6.351  1.1786  1.1761  2.4129
   68MOL   H37125965   5.152   0.897   6.357 -0.0657  0.4513 -0.9018
   68MOL   H37225966   5.045   0.693   6.454  0.6328 -1.7887  1.2458
   68MOL   H37325967   4.988   0.787   6.213 -1.4659  0.0091  2.5444
   68MOL   H37425968   4.936   0.636   6.267  0.8465  2.8532  1.8166
   68MOL   H37525969   5.017   0.511   6.052 -0.1485 -0.3187 -0.1787
   68MOL   H37625970   5.056   0.675   5.997 -1.9685  1.2888 -0.3251
   68MOL   H37725971   4.775   0.607   6.074 -0.8891  1.0475 -0.4310
   68MOL   H37825972   4.845   0.544   5.919 -1.3198 -0.4868  0.6869
   68MOL   H37925973   4.856   0.834   5.994  2.4205 -1.7910  1.3093
   68MOL   H38025974   4.875   0.758   5.832  0.2771 -0.6853  0.3479
   68MOL   H38125975   4.722   0.767   5.891  0.1062  0.1643 -0.3753
   68MOL   H38225976   5.202   0.613   6.461 -0.9162 -1.0004 -1.2697
   69MOL     C125977   5.407   3.959   2.626  0.0395 -0.1459 -0.2726
   69MOL     C225978   5.269   3.934   2.570 -0.1197 -0.2006 -0.2432
   69MOL     O325979   5.261   4.024   2.460  0.1388  0.7554  0.4532
   69MOL     C425980   5.211   4.155   2.493 -0.2098 -0.3764  0.6180
   69MOL     C525981   5.142   4.221   2.372  0.3137  0.3376  0.1844
   69MOL     C625982   5.219   4.213   2.240  0.5634 -0.0387 -0.8931
   69MOL     C725983   5.142   4.287   2.132 -0.2387  1.2585  0.2909
   69MOL     H825984   5.405   3.904   2.720 -1.6673  0.1034 -0.1408
   69MOL     H925985   5.498   3.927   2.576  1.1652 -0.7177  2.0846
   69MOL    H1025986   5.193   3.953   2.646 -0.4237  0.9751 -0.8202
   69MOL    H1125987   5.129   4.157   2.566 -0.7654  0.5262 -0.0325
   69MOL    H1225988   5.290   4.218   2.534 -1.2983  0.8209  0.9060
   69MOL    H1325989   5.126   4.326   2.395  0.9822  0.3652  0.5381
   69MOL    H1425990   5.039   4.186   2.358  0.2117  0.9518 -0.6817
   69MOL    H1525991   5.229   4.109   2.209  0.9932  0.0554 -1.0772
   69MOL    H1625992   5.316   4.261   2.255 -0.4983  2.1398 -0.7890
   69MOL    H1725993   5.037   4.261   2.144 -0.2654 -0.8017 -3.6580
   69MOL    H1825994   5.167   4.253   2.031 -0.9050 -1.0869  0.8834
   69MOL    H1925995   5.139   4.396   2.141 -2.7943  1.4394 -2.0289
   69MOL    H2025996   5.417   4.066   2.643  0.3505  0.0594 -1.6921
   69MOL    C2125997   5.271   3.786   2.512  0.0500  0.4722  0.1531
   69MOL    C2225998   5.133   3.720   2.511  0.3113  0.5060  0.0050
   69MOL    O2325999   5.098   3.691   2.373  0.2355 -0.1916  0.7507
   69MOL    C2426000   5.040   3.803   2.305 -0.2290  0.6565 -0.0281
   69MOL    C2526001   5.012   3.773   2.155 -1.0793 -0.5803 -0.6646
   69MOL    C2626002   4.908   3.674   2.116  0.2787  0.3574  0.2130
   69MOL    C2726003   4.895   3.673   1.965  0.2304 -0.5212 -0.3006
   69MOL    H2826004   5.348   3.723   2.555  1.3145  1.0595 -1.1959
   69MOL    H2926005   5.317   3.788   2.413 -0.7222 -1.8427 -0.2893
   69MOL    H3026006   5.055   3.783   2.555 -2.0311 -1.6212 -0.9288
   69MOL    H3126007   5.093   3.897   2.320  0.2420  0.5336 -0.8894
   69MOL    H3226008   4.946   3.819   2.357  0.4779  0.8637  1.2148
   69MOL    H3326009   4.983   3.871   2.117  1.0864  0.3756  0.0748
   69MOL    H3426010   5.104   3.750   2.100 -0.9412 -2.0079  0.1503
   69MOL    H3526011   4.919   3.571   2.150  0.5889 -0.4650 -2.2594
   69MOL    H3626012   4.814   3.709   2.159 -0.4141 -0.8819 -0.2680
   69MOL    H3726013   4.828   3.592   1.937 -0.7991  0.8912 -1.9902
   69MOL    H3826014   4.849   3.769   1.943 -1.2740 -0.8706  1.2559
   69MOL    H3926015   4.992   3.667   1.916  0.2496 -1.1864 -0.1787
   69MOL    C4026016   5.144   3.578   2.572  0.2747  0.3000 -0.3698
   69MOL    C4126017   5.030   3.482   2.547 -0.4270  0.2150  0.3923
   69MOL    O4226018   4.918   3.544   2.602  0.2117 -0.1618  0.6990
   69MOL    C4326019   4.804   3.541   2.510  0.1024  0.0072 -0.0591
   69MOL    C4426020   4.704   3.630   2.579  0.1824 -0.2459 -0.0596
   69MOL    C4526021   4.574   3.638   2.492  0.3653  0.3115  0.3317
   69MOL    C4626022   4.461   3.729   2.557  0.2494  0.1096 -0.5264
   69MOL    H4726023   5.147   3.597   2.680  0.8346  0.7061 -0.4523
   69MOL    H4826024   5.240   3.535   2.543 -0.3531 -1.9082  0.7242
   69MOL    H4926025   5.029   3.457   2.440 -2.3872 -2.8067  1.0438
   69MOL    H5026026   4.774   3.437   2.498  2.6343 -0.7014 -0.5805
   69MOL    H5126027   4.828   3.577   2.410 -1.6689 -0.8901 -0.8296
   69MOL    H5226028   4.747   3.729   2.590 -1.6454  0.5366  0.1718
   69MOL    H5326029   4.679   3.601   2.681  0.8188 -1.5373 -0.2590
   69MOL    H5426030   4.538   3.542   2.457 -0.2400  0.7232 -0.1813
   69MOL    H5526031   4.597   3.674   2.392 -1.8981 -0.2100 -0.3926
   69MOL    H5626032   4.440   3.689   2.657  1.0148  0.1550 -0.3460
   69MOL    H5726033   4.484   3.836   2.561 -1.9292  0.5522  1.8561
   69MOL    H5826034   4.364   3.737   2.508  0.4994  1.2090 -0.8665
   69MOL    C5926035   5.057   3.347   2.613  0.3243  0.4461  0.4929
   69MOL    C6026036   4.960   3.223   2.609 -0.0545  0.1217 -0.5660
   69MOL    O6126037   4.832   3.272   2.653  0.0302 -0.2023 -0.0296
   69MOL    C6226038   4.819   3.302   2.789 -0.1929 -0.9160 -0.1315
   69MOL    C6326039   4.670   3.309   2.817  0.4223 -0.1067  0.0109
   69MOL    C6426040   4.641   3.335   2.968  0.7220 -0.0281  0.0526
   69MOL    C6526041   4.703   3.232   3.066 -0.3146 -0.4135 -0.0841
   69MOL    H6626042   5.154   3.303   2.589 -0.0359  0.2755 -0.6752
   69MOL    H6726043   5.077   3.364   2.719  2.2238 -2.1571  0.6054
   69MOL    H6826044   4.999   3.153   2.683 -3.8884  0.4028  1.8526
   69MOL    H6926045   4.882   3.389   2.810 -1.5697  0.4784 -1.5327
   69MOL    H7026046   4.858   3.222   2.851 -3.2663 -2.5331 -0.1720
   69MOL    H7126047   4.629   3.391   2.759  2.6910  0.3062 -1.0693
   69MOL    H7226048   4.615   3.218   2.793 -1.2760  1.5160 -2.4254
   69MOL    H7326049   4.670   3.435   3.003  1.2462  0.3686 -1.4915
   69MOL    H7426050   4.537   3.332   2.997  1.1793 -2.8747  1.6110
   69MOL    H7526051   4.673   3.236   3.171  1.9109  1.7872  0.5285
   69MOL    H7626052   4.673   3.132   3.035 -0.9062 -0.8482  1.8331
   69MOL    H7726053   4.811   3.248   3.074 -0.5160 -0.1643  2.9176
   69MOL    C7826054   4.944   3.163   2.468 -0.5174 -0.3779  0.2822
   69MOL    C7926055   4.890   3.021   2.435  0.1230  0.0214 -0.3192
   69MOL    O8026056   4.932   2.971   2.311  0.5745  0.0313 -0.2355
   69MOL    C8126057   5.005   2.853   2.320  0.7628  0.6745 -0.0368
   69MOL    C8226058   5.043   2.812   2.183 -0.3161 -0.6708  1.0836
   69MOL    C8326059   5.123   2.682   2.160  0.3480  0.3374 -0.3716
   69MOL    C8426060   5.031   2.565   2.129 -0.0148  0.0532  0.2083
   69MOL    H8526061   5.050   3.149   2.445  0.2111  2.5325  1.6609
   69MOL    H8626062   4.923   3.233   2.387 -0.0904  0.2341  0.6927
   69MOL    H8726063   4.916   2.958   2.520 -2.0585 -1.2300 -0.5448
   69MOL    H8826064   4.965   2.766   2.372 -0.8329  0.3676 -1.7585
   69MOL    H8926065   5.095   2.882   2.376  0.4600 -0.3990  1.0189
   69MOL    H9026066   4.963   2.825   2.110  0.3225 -0.3625  0.4257
   69MOL    H9126067   5.107   2.887   2.136 -0.1288  0.5174  3.1804
   69MOL    H9226068   5.172   2.673   2.257  1.5292  0.9961 -0.8973
   69MOL    H9326069   5.201   2.693   2.085  0.5550 -0.5814 -0.2903
   69MOL    H9426070   4.941   2.573   2.192  0.6518  1.6690  0.9984
   69MOL    H9526071   5.004   2.578   2.024  0.1817 -1.0448  0.0202
   69MOL    H9626072   5.071   2.468   2.157 -0.4429  0.0359  0.7826
   69MOL    C9726073   4.739   3.018   2.433  0.0509  0.2144  0.0445
   69MOL    C9826074   4.683   2.879   2.463  0.8777  0.4416  0.4421
   69MOL    O9926075   4.696   2.849   2.607 -0.0185  0.1032  0.3679
   69MOL   C10026076   4.795   2.754   2.643  0.2414 -0.4222  0.2705
   69MOL   C10126077   4.823   2.754   2.795 -0.7539 -0.1132  0.7609
   69MOL   C10226078   4.881   2.891   2.839 -0.3079 -0.0149  0.4595
   69MOL   C10326079   4.883   2.918   2.988  0.9361 -0.0323  0.2490
   69MOL   H10426080   4.704   3.057   2.337 -0.3791 -3.1238 -1.2062
   69MOL   H10526081   4.703   3.087   2.510  1.3767  1.4611 -0.4282
   69MOL   H10626082   4.735   2.805   2.402 -0.3572 -0.9498  1.0351
   69MOL   H10726083   4.893   2.780   2.605  0.1639 -1.5553 -0.7527
   69MOL   H10826084   4.773   2.656   2.599 -2.7596  0.0537  0.6109
   69MOL   H10926085   4.873   2.663   2.829 -0.5815 -0.8849 -1.5099
   69MOL   H11026086   4.726   2.737   2.842 -1.2442  1.4962  0.3709
   69MOL   H11126087   4.819   2.969   2.796  1.0480  0.9359  0.1930
   69MOL   H11226088   4.981   2.912   2.801  0.4047 -0.1674  2.1769
   69MOL   H11326089   4.949   2.847   3.039  2.7331 -1.4301 -3.7863
   69MOL   H11426090   4.924   3.017   3.008 -0.7933  0.5492  0.9627
   69MOL   H11526091   4.781   2.927   3.024  0.3119  1.3631 -1.8507
   69MOL   C11626092   4.531   2.865   2.434 -0.0356  0.1889  0.4837
   69MOL   C11726093   4.489   2.873   2.284  0.4326 -0.6277  0.5851
   69MOL   O11826094   4.575   2.789   2.205 -0.4721  0.1466 -0.6630
   69MOL   C11926095   4.613   2.846   2.077  0.2093 -0.6921  0.2548
   69MOL   C12026096   4.662   2.731   1.992 -0.2934  0.0761 -0.0444
   69MOL   C12126097   4.547   2.660   1.919  0.8989 -0.0346  0.1780
   69MOL   C12226098   4.600   2.555   1.815 -0.1133  0.0501  0.1192
   69MOL   H12326099   4.490   2.781   2.490  0.1229  0.7492  1.4554
   69MOL   H12426100   4.481   2.947   2.486  0.2752  0.5503  0.2110
   69MOL   H12526101   4.506   2.975   2.251 -1.3402 -0.7304 -0.6892
   69MOL   H12626102   4.691   2.918   2.103 -0.6514 -0.1801  1.4792
   69MOL   H12726103   4.528   2.903   2.038  1.7157  0.0625 -2.0483
   69MOL   H12826104   4.714   2.660   2.057  1.1362  2.0858  1.0488
   69MOL   H12926105   4.735   2.777   1.925  0.2013 -2.0654 -1.0247
   69MOL   H13026106   4.483   2.607   1.990  0.6933 -1.4449 -1.0393
   69MOL   H13126107   4.474   2.731   1.881 -0.9928 -0.7359  2.3738
   69MOL   H13226108   4.665   2.593   1.736 -1.3652  2.1352  0.0838
   69MOL   H13326109   4.509   2.510   1.775 -0.3537  1.4699 -0.9654
   69MOL   H13426110   4.663   2.480   1.864  1.3795  0.2162 -1.4973
   69MOL   C13526111   4.349   2.833   2.241 -0.6556 -0.0844 -0.4595
   69MOL   C13626112   4.254   2.931   2.289 -0.6724 -0.8714  0.4255
   69MOL   O13726113   4.258   2.952   2.431  0.4956 -0.2847  0.2482
   69MOL   C13826114   4.213   2.856   2.523 -0.4505 -0.0887  0.0048
   69MOL   C13926115   4.069   2.889   2.551 -0.8275 -0.5642  0.7044
   69MOL   C14026116   4.001   2.797   2.655 -0.1168  0.8428  0.8269
   69MOL   C14126117   3.850   2.819   2.672  0.1399  0.0262  0.1973
   69MOL   H14226118   4.330   2.730   2.272  0.6456  0.0822  0.9188
   69MOL   H14326119   4.343   2.832   2.132 -0.7890  1.0858 -0.4610
   69MOL   H14426120   4.154   2.891   2.273 -0.0076 -2.1439 -0.6896
   69MOL   H14526121   4.270   2.869   2.615 -1.7501 -0.0578  0.8112
   69MOL   H14626122   4.222   2.756   2.482  0.9103  0.0417 -0.0463
   69MOL   H14726123   4.009   2.860   2.464 -0.5826  0.0949  0.3158
   69MOL   H14826124   4.047   2.993   2.574 -0.5163 -0.3231 -0.0709
   69MOL   H14926125   4.032   2.701   2.614  0.5457  0.6814  1.6636
   69MOL   H15026126   4.058   2.794   2.748  2.3055  2.5661 -0.5467
   69MOL   H15126127   3.798   2.728   2.702  0.8245 -0.7530 -0.9185
   69MOL   H15226128   3.843   2.897   2.748 -1.0664  0.1292 -0.0224
   69MOL   H15326129   3.811   2.849   2.575 -0.7995 -3.7049 -0.6429
   69MOL   C15426130   4.270   3.065   2.213  0.2481  0.2225  0.2686
   69MOL   C15526131   4.143   3.158   2.230 -0.1905  0.2362  0.7075
   69MOL   O15626132   4.025   3.089   2.176 -0.2726 -0.4056 -0.2721
   69MOL   C15726133   3.909   3.102   2.253 -0.0828 -0.1825  0.6786
   69MOL   C15826134   3.811   2.984   2.216  0.5961  0.1648  0.3792
   69MOL   C15926135   3.672   2.979   2.269  0.4378 -0.3178  0.0212
   69MOL   C16026136   3.567   3.047   2.174  0.4729 -0.0889 -0.5046
   69MOL   H16126137   4.282   3.050   2.105 -1.8160  2.6182 -0.3487
   69MOL   H16226138   4.360   3.116   2.246  2.0345 -1.7291 -1.4531
   69MOL   H16326139   4.139   3.189   2.334  0.5544  0.7630  0.5880
   69MOL   H16426140   3.921   3.115   2.360  0.5667  3.0348  0.2600
   69MOL   H16526141   3.866   3.200   2.236  0.7300  0.1340  0.4685
   69MOL   H16626142   3.877   2.902   2.244  2.8454  1.7179 -0.2139
   69MOL   H16726143   3.805   2.966   2.108  1.6294  2.8244 -0.1477
   69MOL   H16826144   3.648   2.873   2.276  0.2329 -0.0950  4.4781
   69MOL   H16926145   3.660   3.021   2.369 -1.0798  3.3774 -1.6498
   69MOL   H17026146   3.462   3.032   2.201  0.5090 -0.4831 -0.5787
   69MOL   H17126147   3.586   3.154   2.173  2.1336 -0.3768 -0.6686
   69MOL   H17226148   3.582   3.017   2.070 -2.2266 -0.4111 -0.8460
   69MOL   C17326149   4.142   3.287   2.138 -0.5087 -0.1972 -0.2789
   69MOL   C17426150   4.251   3.383   2.173 -0.1319 -0.5366  0.0101
   69MOL   O17526151   4.372   3.322   2.121  0.2975  0.2656 -0.1925
   69MOL   C17626152   4.492   3.377   2.162  0.7377  0.0713  0.5777
   69MOL   C17726153   4.603   3.283   2.135 -0.3151  0.0296 -0.6466
   69MOL   C17826154   4.751   3.329   2.133  0.1060 -1.0111 -0.6039
   69MOL   C17926155   4.852   3.231   2.076  0.1337  0.3191  0.0253
   69MOL   H18026156   4.042   3.326   2.156 -0.4045 -0.4598  0.9369
   69MOL   H18126157   4.144   3.245   2.038  2.5565  1.1801 -0.8557
   69MOL   H18226158   4.261   3.410   2.278 -2.3700  1.7377 -0.2994
   69MOL   H18326159   4.489   3.400   2.268  1.8907  0.5921  0.5081
   69MOL   H18426160   4.508   3.465   2.099 -1.2730 -0.7353 -1.1090
   69MOL   H18526161   4.588   3.258   2.030  0.8175 -0.3850 -0.7145
   69MOL   H18626162   4.608   3.197   2.202 -1.6194  0.3028 -0.1789
   69MOL   H18726163   4.752   3.419   2.072 -2.1208  0.0455  0.8444
   69MOL   H18826164   4.780   3.361   2.234 -2.2224  0.1556 -0.2831
   69MOL   H18926165   4.954   3.266   2.091  1.0589 -1.1891 -2.5862
   69MOL   H19026166   4.846   3.130   2.115  2.8295 -0.2984 -1.0499
   69MOL   H19126167   4.841   3.237   1.968 -0.6690 -1.2981  0.0163
   69MOL   C19226168   4.234   3.522   2.104 -0.2111  0.2575 -0.7177
   69MOL   C19326169   4.115   3.609   2.153  0.2463  0.4162 -0.3102
   69MOL   O19426170   4.142   3.642   2.292 -0.8180 -0.7912  0.3048
   69MOL   C19526171   4.030   3.607   2.369 -0.6322  0.3310 -0.4815
   69MOL   C19626172   4.048   3.653   2.507  0.2121 -0.9491 -0.1431
   69MOL   C19726173   4.065   3.809   2.504  0.6287  0.0365  0.8259
   69MOL   C19826174   4.037   3.881   2.633 -0.4144 -0.1652  0.4085
   69MOL   H19926175   4.217   3.500   1.999  0.3746  0.3197 -0.8287
   69MOL   H20026176   4.325   3.575   2.132  0.0526 -0.6622  0.2212
   69MOL   H20126177   4.024   3.552   2.140 -0.7719  0.9910  3.4895
   69MOL   H20226178   4.019   3.498   2.375  1.0374  0.1231 -1.0270
   69MOL   H20326179   3.939   3.645   2.322 -0.4319  1.6745  0.2082
   69MOL   H20426180   3.958   3.635   2.566 -2.1325 -0.1286 -3.3354
   69MOL   H20526181   4.139   3.607   2.545 -0.6416 -1.7024  0.9936
   69MOL   H20626182   3.993   3.851   2.435  0.8672 -0.5668  0.2074
   69MOL   H20726183   4.163   3.833   2.464  1.4926 -4.1131  0.2441
   69MOL   H20826184   3.938   3.860   2.674 -0.9218  0.4059 -0.5204
   69MOL   H20926185   4.105   3.863   2.717 -1.4655  1.4953  1.6537
   69MOL   H21026186   4.018   3.988   2.623 -3.3553 -0.7670 -0.8055
   69MOL   C21126187   4.102   3.749   2.084  0.2803 -0.5744 -1.1530
   69MOL   C21226188   4.079   3.748   1.927 -0.3544  0.5731 -0.6826
   69MOL   O21326189   3.947   3.697   1.898  0.2188  0.5087 -0.2457
   69MOL   C21426190   3.944   3.597   1.796 -0.9394 -0.2106 -0.4179
   69MOL   C21526191   3.814   3.524   1.789 -0.7746  0.4857  0.0547
   69MOL   C21626192   3.789   3.428   1.911  0.4769 -0.2577 -0.3936
   69MOL   C21726193   3.672   3.335   1.891  0.5053  0.2016  0.0503
   69MOL   H21826194   4.193   3.802   2.112  0.9609 -1.8853 -0.8513
   69MOL   H21926195   4.028   3.808   2.139  0.9144 -0.4213 -0.4672
   69MOL   H22026196   4.153   3.684   1.880  1.0384  1.2546  0.5632
   69MOL   H22126197   3.966   3.646   1.701 -1.0116 -0.1664 -0.4119
   69MOL   H22226198   4.022   3.522   1.804  0.3409  0.9003 -2.0962
   69MOL   H22326199   3.738   3.603   1.783 -1.2858  0.0535  0.7464
   69MOL   H22426200   3.804   3.461   1.701  1.6355  1.8896 -1.2514
   69MOL   H22526201   3.771   3.488   2.000  2.3601  0.4590 -0.4686
   69MOL   H22626202   3.878   3.367   1.925  0.6695  0.5924  2.5052
   69MOL   H22726203   3.697   3.245   1.835 -0.5960  0.4575 -0.8544
   69MOL   H22826204   3.583   3.392   1.866  0.5784 -0.5668 -2.0794
   69MOL   H22926205   3.636   3.292   1.985  0.6079 -0.9522 -0.4226
   69MOL   C23026206   4.073   3.884   1.857  0.3451 -0.1082 -0.1668
   69MOL   C23126207   4.205   3.948   1.857  0.3656  0.5620 -0.2334
   69MOL   O23226208   4.294   3.858   1.800  0.9795  0.3909  0.2302
   69MOL   C23326209   4.411   3.838   1.871 -0.1151  0.2231 -0.8139
   69MOL   C23426210   4.495   3.716   1.815 -0.4970  0.3360 -0.3622
   69MOL   C23526211   4.420   3.589   1.792 -0.0445  0.4949  0.4136
   69MOL   C23626212   4.488   3.480   1.713  0.7445  0.2728 -0.2222
   69MOL   H23726213   4.010   3.945   1.921  0.1258  1.7793 -2.1358
   69MOL   H23826214   4.034   3.871   1.756  1.4710 -3.5188 -0.2347
   69MOL   H23926215   4.224   3.977   1.961  1.2530  1.9931 -0.7824
   69MOL   H24026216   4.469   3.929   1.865  0.3675 -0.0865 -0.8804
   69MOL   H24126217   4.385   3.817   1.974  0.6501 -1.8941 -1.0134
   69MOL   H24226218   4.532   3.762   1.724 -1.7063 -0.1838 -1.1283
   69MOL   H24326219   4.569   3.682   1.887  0.9191  0.1636 -1.8681
   69MOL   H24426220   4.319   3.606   1.754 -0.2894 -1.8804 -0.0724
   69MOL   H24526221   4.404   3.540   1.888 -4.1946 -1.5446 -1.1902
   69MOL   H24626222   4.439   3.383   1.704  1.5296 -0.1091 -0.3745
   69MOL   H24726223   4.593   3.466   1.740  0.2355 -2.0514  0.6254
   69MOL   H24826224   4.492   3.507   1.608  1.7259 -1.0884 -0.5439
   69MOL   C24926225   4.205   4.082   1.781  0.0219 -0.2798  1.1753
   69MOL   C25026226   4.330   4.167   1.807  0.3436  1.2813  0.5285
   69MOL   O25126227   4.336   4.191   1.953  0.1304  0.1499 -0.0140
   69MOL   C25226228   4.232   4.260   2.028  0.1764  0.2062 -0.6056
   69MOL   C25326229   4.286   4.251   2.168 -0.8874 -0.1706  0.8501
   69MOL   C25426230   4.267   4.122   2.235  0.3154  0.4581 -0.5701
   69MOL   C25526231   4.293   4.106   2.381 -0.6783  0.4768  0.2971
   69MOL   H25626232   4.118   4.132   1.823 -0.0307 -0.1788  0.9437
   69MOL   H25726233   4.200   4.058   1.675  1.0558  1.6726  0.6650
   69MOL   H25826234   4.408   4.099   1.773 -0.0306  1.9720 -1.7902
   69MOL   H25926235   4.134   4.216   2.009  0.7430 -0.2996 -2.4304
   69MOL   H26026236   4.233   4.367   2.007  0.7909  0.1012 -1.1159
   69MOL   H26126237   4.389   4.286   2.176 -0.0431 -2.0359 -1.4490
   69MOL   H26226238   4.235   4.337   2.212 -1.1095 -0.3500  0.9462
   69MOL   H26326239   4.165   4.090   2.217  0.2644  0.3085 -0.0095
   69MOL   H26426240   4.318   4.039   2.185 -0.0892 -1.1216  1.5675
   69MOL   H26526241   4.392   4.150   2.389  0.0255 -0.5067 -2.6123
   69MOL   H26626242   4.289   4.000   2.407  1.2444  0.2047 -0.4311
   69MOL   H26726243   4.230   4.162   2.451 -2.3141 -0.7830 -0.1326
   69MOL   C26826244   4.332   4.290   1.720 -0.1099  0.8689 -0.0929
   69MOL   C26926245   4.464   4.365   1.737  0.5180  0.2620  0.1003
   69MOL   O27026246   4.577   4.280   1.725  0.7674  0.2242  0.6983
   69MOL   C27126247   4.640   4.248   1.843 -0.5304  0.2489 -0.7220
   69MOL   C27226248   4.774   4.184   1.815  0.5311 -0.5725  0.0528
   69MOL   C27326249   4.854   4.119   1.935 -0.0532 -0.5966 -0.8339
   69MOL   C27426250   4.994   4.089   1.886 -0.8441  1.2565 -0.1514
   69MOL   H27526251   4.318   4.254   1.617 -1.0515 -1.4533  0.8052
   69MOL   H27626252   4.254   4.363   1.737 -1.2594 -0.4363  0.3574
   69MOL   H27726253   4.451   4.403   1.838  2.1596  1.3920 -0.0991
   69MOL   H27826254   4.655   4.332   1.910 -1.4582  0.8317 -1.2385
   69MOL   H27926255   4.590   4.172   1.902 -0.3053  0.3043 -0.4616
   69MOL   H28026256   4.754   4.102   1.746 -1.4952 -0.4368  0.4604
   69MOL   H28126257   4.830   4.266   1.769  1.1667 -1.3145 -0.5034
   69MOL   H28226258   4.801   4.034   1.978 -0.7091 -0.1782 -0.8084
   69MOL   H28326259   4.860   4.197   2.011  1.2036 -1.3029 -0.1910
   69MOL   H28426260   4.976   4.032   1.795  0.5846  0.5749 -0.0240
   69MOL   H28526261   5.063   4.049   1.961 -0.6528 -0.3689 -1.1670
   69MOL   H28626262   5.034   4.180   1.842  0.6270  1.3041  1.2122
   69MOL   C28726263   4.486   4.490   1.642 -0.0712 -0.2989  0.8722
   69MOL   C28826264   4.387   4.604   1.658 -0.0811 -0.9082  0.2647
   69MOL   O28926265   4.409   4.696   1.549 -0.0139 -0.4904  0.4331
   69MOL   C29026266   4.286   4.747   1.485 -0.2669  0.1056 -0.7701
   69MOL   C29126267   4.319   4.854   1.387  0.1681  0.2150  0.0740
   69MOL   C29226268   4.194   4.908   1.317 -0.3801  0.1736  0.3453
   69MOL   C29326269   4.212   5.040   1.244 -0.6840  1.0548 -0.2429
   69MOL   H29426270   4.492   4.465   1.536  0.2144 -3.2906  1.5489
   69MOL   H29526271   4.586   4.530   1.658  0.4446 -1.9831  1.9214
   69MOL   H29626272   4.286   4.563   1.648  0.0277 -0.7632 -1.5930
   69MOL   H29726273   4.237   4.664   1.433  1.7714 -0.8126 -1.2782
   69MOL   H29826274   4.212   4.784   1.555  1.7455  1.2289  0.8232
   69MOL   H29926275   4.391   4.805   1.320 -2.0584 -2.3807 -0.5217
   69MOL   H30026276   4.363   4.933   1.448  3.3883 -2.1329  0.9570
   69MOL   H30126277   4.117   4.915   1.394  0.2830  2.9179  0.8047
   69MOL   H30226278   4.161   4.825   1.254  0.3633 -1.1886  1.7002
   69MOL   H30326279   4.274   5.021   1.157  2.2654  1.7971  1.6371
   69MOL   H30426280   4.116   5.083   1.216 -0.3686  1.1781 -1.1737
   69MOL   H30526281   4.263   5.115   1.303  2.7144 -2.0625  0.9618
   69MOL   C30626282   4.393   4.676   1.792 -0.2271 -0.6570  0.0671
   69MOL   C30726283   4.521   4.759   1.817 -0.2061  0.2204  0.2643
   69MOL   O30826284   4.565   4.721   1.946 -0.3038 -0.4771  0.4873
   69MOL   C30926285   4.669   4.629   1.959 -0.3259 -0.3420  0.3105
   69MOL   C31026286   4.691   4.600   2.113  1.0426 -0.5622  0.1116
   69MOL   C31126287   4.818   4.514   2.128  0.3985 -0.2844  0.8421
   69MOL   C31226288   4.847   4.483   2.272  1.1278 -0.1969  0.5196
   69MOL   H31326289   4.309   4.743   1.812  0.2275 -0.3043  0.8127
   69MOL   H31426290   4.376   4.609   1.877 -0.0571 -0.7133  0.0566
   69MOL   H31526291   4.597   4.734   1.743 -0.5387 -3.0645  0.9227
   69MOL   H31626292   4.759   4.671   1.913 -0.7946  0.6759  0.3130
   69MOL   H31726293   4.642   4.539   1.904 -3.3438 -0.0512  1.2290
   69MOL   H31826294   4.602   4.549   2.150 -0.4711  1.2226 -1.0142
   69MOL   H31926295   4.709   4.687   2.176  1.8875  1.2498 -2.5429
   69MOL   H32026296   4.793   4.423   2.073  0.4520  0.2190 -0.0389
   69MOL   H32126297   4.903   4.554   2.072  0.0380  2.6342  2.3073
   69MOL   H32226298   4.843   4.577   2.327  1.3683  0.6949 -0.9609
   69MOL   H32326299   4.951   4.448   2.278  2.7551  4.1153 -0.6898
   69MOL   H32426300   4.779   4.410   2.316  1.4501 -0.5959  0.3676
   69MOL   C32526301   4.492   4.916   1.814  0.3746 -0.3499  0.6504
   69MOL   C32626302   4.610   5.014   1.791  0.3786 -0.4564 -0.2441
   69MOL   O32726303   4.558   5.138   1.750  0.3684  0.1010  0.8905
   69MOL   C32826304   4.585   5.178   1.618  0.1487  0.3089 -0.2532
   69MOL   C32926305   4.496   5.300   1.590  0.9652 -0.5079  0.1188
   69MOL   C33026306   4.482   5.347   1.442 -0.0959 -0.6821 -0.0140
   69MOL   C33126307   4.369   5.439   1.398 -0.6073 -0.4459 -0.4300
   69MOL   H33226308   4.439   4.948   1.904  1.5817  1.5949  0.6874
   69MOL   H33326309   4.426   4.933   1.730 -0.2671 -1.0226  1.0075
   69MOL   H33426310   4.665   4.968   1.709 -0.9792 -1.7644 -0.4484
   69MOL   H33526311   4.549   5.100   1.551 -1.7535 -0.7865  1.9803
   69MOL   H33626312   4.689   5.209   1.604 -0.0347  0.4814 -1.3177
   69MOL   H33726313   4.392   5.291   1.620  0.9720 -1.4005 -0.1061
   69MOL   H33826314   4.535   5.383   1.650  1.7123 -0.1443 -0.8603
   69MOL   H33926315   4.444   5.257   1.395  0.3873 -1.4289  1.0172
   69MOL   H34026316   4.582   5.367   1.402  0.0739  0.6967  1.0314
   69MOL   H34126317   4.383   5.541   1.433 -1.3391 -0.7635  0.8343
   69MOL   H34226318   4.274   5.417   1.447  1.3519 -1.3426  3.1157
   69MOL   H34326319   4.358   5.430   1.290 -1.7140  0.5219 -0.3998
   69MOL   C34426320   4.712   5.047   1.907  0.0744  0.0275  0.5100
   69MOL   C34526321   4.841   5.106   1.858 -1.6678  0.3065 -0.2104
   69MOL   O34626322   4.927   4.996   1.829  0.0837 -0.2649  0.3219
   69MOL   C34726323   4.973   4.986   1.693  0.6271  0.1045 -0.0671
   69MOL   C34826324   5.053   4.863   1.685  0.3793  0.5549  0.2455
   69MOL   C34926325   4.978   4.731   1.719  0.0416  0.1739 -0.3811
   69MOL   C35026326   5.081   4.616   1.728  0.1685 -0.2129  0.7430
   69MOL   H35126327   4.663   5.118   1.974  1.1435  1.1793  0.0963
   69MOL   H35226328   4.730   4.951   1.955  1.3690  1.2069  2.4352
   69MOL   H35326329   4.822   5.162   1.767 -3.0829  1.9745  1.0681
   69MOL   H35426330   5.021   5.077   1.656  0.3523 -1.0301 -3.3557
   69MOL   H35526331   4.881   4.979   1.635  0.6247 -1.4441  0.1024
   69MOL   H35626332   5.135   4.880   1.754  0.2562 -1.6011  0.9482
   69MOL   H35726333   5.095   4.856   1.585 -1.0684 -0.4976 -0.3052
   69MOL   H35826334   4.931   4.742   1.817 -2.4184 -0.7787 -1.4056
   69MOL   H35926335   4.898   4.695   1.655 -0.9057 -1.3773  1.6018
   69MOL   H36026336   5.147   4.628   1.815 -0.1592 -0.5191  1.0370
   69MOL   H36126337   5.136   4.601   1.635 -1.5100 -0.5708 -0.1975
   69MOL   H36226338   5.017   4.530   1.748  0.6393 -0.9788 -0.9634
   69MOL   C36326339   4.915   5.198   1.949  0.2748 -0.2708  0.1241
   69MOL   C36426340   4.839   5.336   1.982  0.2115  0.4003  0.4945
   69MOL   O36526341   4.844   5.421   1.872 -0.5123 -0.7311 -0.2163
   69MOL   C36626342   4.763   5.532   1.897  0.2517 -0.0202  0.5684
   69MOL   C36726343   4.850   5.657   1.884 -0.5707  0.0278  0.6496
   69MOL   C36826344   4.943   5.682   2.007  0.2462  0.3355  0.0056
   69MOL   C36926345   4.976   5.831   2.017  0.0878  0.3190  0.5430
   69MOL   H37026346   5.013   5.226   1.912  0.8690  0.2771  2.0392
   69MOL   H37126347   4.932   5.145   2.043 -0.2207  0.9050  0.9032
   69MOL   H37226348   4.892   5.368   2.072  0.6065 -0.4285  0.5641
   69MOL   H37326349   4.703   5.532   1.988  0.9994 -0.2319  1.0677
   69MOL   H37426350   4.687   5.521   1.820  1.5130 -1.0631 -0.5637
   69MOL   H37526351   4.793   5.750   1.885  0.2633  0.5464  0.8353
   69MOL   H37626352   4.908   5.662   1.792  0.1009  1.8892  1.1490
   69MOL   H37726353   5.035   5.627   1.988 -0.1636 -0.6875  0.9736
   69MOL   H37826354   4.897   5.635   2.094  0.8661  2.2612  1.4055
   69MOL   H37926355   5.038   5.846   2.106  0.4816 -0.9651  0.4927
   69MOL   H38026356   5.031   5.859   1.928 -1.1717  0.5609 -0.1622
   69MOL   H38126357   4.884   5.888   2.031  0.2319 -0.0912  3.4931
   69MOL   H38226358   4.734   5.325   2.009  0.4816  3.5032  3.2107
   70MOL     C126359   5.904   3.303   4.441 -0.3902  0.3572  1.0676
   70MOL     C226360   5.835   3.179   4.378  0.0483 -0.7172 -1.0906
   70MOL     O326361   5.753   3.103   4.464 -0.2966 -0.6166  1.0220
   70MOL     C426362   5.818   3.023   4.560  0.2281  0.0610  0.3890
   70MOL     C526363   5.702   2.945   4.619 -0.0450  0.2027 -0.2032
   70MOL     C626364   5.750   2.843   4.712  0.2779  0.2168 -0.0606
   70MOL     C726365   5.629   2.788   4.783  0.1989 -0.6291 -0.4657
   70MOL     H826366   5.981   3.275   4.513  2.0708 -0.2587 -1.6660
   70MOL     H926367   5.961   3.351   4.361  1.8241  0.3579  2.5979
   70MOL    H1026368   5.907   3.107   4.340 -0.5915 -1.9891  0.0552
   70MOL    H1126369   5.891   2.963   4.505 -0.3816 -0.6554  0.3560
   70MOL    H1226370   5.868   3.082   4.636 -2.2391 -2.1314  3.8202
   70MOL    H1326371   5.638   2.904   4.541 -0.7827  1.5093 -0.3012
   70MOL    H1426372   5.642   3.018   4.673 -0.9129  0.3287 -1.3144
   70MOL    H1526373   5.813   2.877   4.795 -0.3828 -1.6814  1.2604
   70MOL    H1626374   5.806   2.773   4.650  1.0180 -0.5018  1.3861
   70MOL    H1726375   5.654   2.705   4.850  2.9351  0.8929  0.4623
   70MOL    H1826376   5.551   2.752   4.716 -0.7260  1.7162 -0.6967
   70MOL    H1926377   5.582   2.861   4.849  0.7027  0.6313 -1.4952
   70MOL    H2026378   5.835   3.380   4.476 -0.5540  0.6565  0.1220
   70MOL    C2126379   5.740   3.224   4.268 -0.2446  0.2186  0.3182
   70MOL    C2226380   5.645   3.110   4.223  0.6674  0.4005 -0.6483
   70MOL    O2326381   5.568   3.159   4.112 -0.4599 -0.0696  0.1948
   70MOL    C2426382   5.427   3.146   4.130 -0.1645  0.1178 -0.0079
   70MOL    C2526383   5.358   3.199   3.999 -0.2330 -0.0180 -0.5175
   70MOL    C2626384   5.210   3.153   3.992  0.1755  0.4285  0.0544
   70MOL    C2726385   5.137   3.215   3.872  0.4520  0.2361  0.6917
   70MOL    H2826386   5.798   3.250   4.180  0.7830 -0.5073  0.7731
   70MOL    H2926387   5.672   3.303   4.300 -0.7780  0.3589 -1.1426
   70MOL    H3026388   5.576   3.078   4.300  0.9901  0.8673 -0.1566
   70MOL    H3126389   5.395   3.217   4.207 -1.8630 -1.3691  0.6788
   70MOL    H3226390   5.397   3.045   4.156  0.8076 -0.1084  0.2837
   70MOL    H3326391   5.368   3.307   4.011  2.6424 -0.2257 -0.7361
   70MOL    H3426392   5.416   3.160   3.915  1.0137  0.4416  0.1173
   70MOL    H3526393   5.206   3.044   3.990 -1.5737  0.4811 -0.5522
   70MOL    H3626394   5.158   3.179   4.084  1.7206  0.8914  0.8194
   70MOL    H3726395   5.029   3.209   3.882  0.5189 -0.8836  0.8482
   70MOL    H3826396   5.164   3.318   3.851 -0.7286  0.1115 -1.6444
   70MOL    H3926397   5.167   3.161   3.782  0.1557  1.6733 -0.2883
   70MOL    C4026398   5.719   2.993   4.158 -0.5146 -0.3272  0.1218
   70MOL    C4126399   5.620   2.890   4.111 -0.1551  0.9696 -0.2082
   70MOL    O4226400   5.574   2.836   4.233 -0.3176 -0.4301  0.3663
   70MOL    C4326401   5.448   2.767   4.217  0.9081 -0.0445  0.3529
   70MOL    C4426402   5.406   2.703   4.348 -0.4946 -0.5733 -0.7099
   70MOL    C4526403   5.264   2.663   4.354  0.5634  1.0078 -0.0880
   70MOL    C4626404   5.224   2.528   4.281  0.2802 -0.8772 -0.3308
   70MOL    H4726405   5.790   2.947   4.227 -1.1256 -1.1945  0.1797
   70MOL    H4826406   5.786   3.023   4.078  1.3499 -1.4942  1.2034
   70MOL    H4926407   5.543   2.930   4.045  1.0650  1.4315 -1.3731
   70MOL    H5026408   5.449   2.690   4.140 -1.7633  1.4337 -1.2237
   70MOL    H5126409   5.371   2.840   4.193 -0.5228 -1.4145  0.7088
   70MOL    H5226410   5.427   2.772   4.430  1.0045  0.3752 -1.8786
   70MOL    H5326411   5.469   2.616   4.369 -1.0309 -1.0427 -1.0450
   70MOL    H5426412   5.202   2.747   4.321  0.7928  0.7903 -1.1107
   70MOL    H5526413   5.243   2.644   4.459 -1.2504  3.6387  0.0590
   70MOL    H5626414   5.241   2.529   4.173 -0.2597 -1.0805 -0.4205
   70MOL    H5726415   5.278   2.443   4.321 -0.4989 -1.5408 -0.6727
   70MOL    H5826416   5.119   2.503   4.296  0.0074  0.4195 -0.0051
   70MOL    C5926417   5.695   2.780   4.026 -0.1084  0.2311 -0.2081
   70MOL    C6026418   5.656   2.769   3.880 -0.1987  0.2222 -0.0544
   70MOL    O6126419   5.756   2.840   3.799 -0.3151 -0.6267  0.0130
   70MOL    C6226420   5.737   2.982   3.799 -0.1480 -0.2447 -0.6946
   70MOL    C6326421   5.877   3.044   3.815 -0.4392  0.1079 -0.3957
   70MOL    C6426422   5.939   3.073   3.679  0.4102  0.1681 -0.0860
   70MOL    C6526423   6.066   3.150   3.681  0.4974 -0.9314  0.1206
   70MOL    H6626424   5.804   2.777   4.028 -0.0883  0.8157 -0.2737
   70MOL    H6726425   5.674   2.687   4.078  0.9462 -0.0377 -0.2564
   70MOL    H6826426   5.557   2.805   3.850 -0.1486  0.2938 -0.1332
   70MOL    H6926427   5.668   3.014   3.877  0.5580 -0.4038 -0.0008
   70MOL    H7026428   5.694   3.010   3.702 -0.8121  1.5633  0.0927
   70MOL    H7126429   5.871   3.134   3.877 -2.3664  2.0738 -3.3549
   70MOL    H7226430   5.927   2.966   3.873 -2.3610 -0.4530  0.5592
   70MOL    H7326431   5.950   2.977   3.627 -0.4957 -0.1048  0.2275
   70MOL    H7426432   5.867   3.128   3.620  0.6119  1.4759  0.8817
   70MOL    H7526433   6.138   3.081   3.725 -0.7370 -0.8865  2.2911
   70MOL    H7626434   6.101   3.196   3.589  0.4863 -0.3776  0.3917
   70MOL    H7726435   6.053   3.235   3.749 -0.5216 -0.1835 -1.0077
   70MOL    C7826436   5.641   2.623   3.833 -0.0923 -0.2326  0.2873
   70MOL    C7926437   5.605   2.601   3.685 -0.8308  0.5188 -0.5953
   70MOL    O8026438   5.500   2.686   3.645 -0.1172 -0.2203  0.2806
   70MOL    C8126439   5.521   2.740   3.516  0.1851 -0.7545  0.1104
   70MOL    C8226440   5.388   2.803   3.475 -0.2601 -0.0729 -0.0787
   70MOL    C8326441   5.383   2.852   3.325  0.0942  0.3466 -0.4355
   70MOL    C8426442   5.245   2.895   3.300 -0.0182  0.0579  0.5452
   70MOL    H8526443   5.557   2.588   3.894 -0.5868 -1.4026 -1.0392
   70MOL    H8626444   5.733   2.568   3.853 -0.6556 -0.8481  1.2534
   70MOL    H8726445   5.699   2.625   3.635 -0.6608 -1.8573 -1.4758
   70MOL    H8826446   5.546   2.666   3.440 -1.1762 -1.1525  0.0368
   70MOL    H8926447   5.596   2.818   3.523  0.0564 -0.5645 -0.6529
   70MOL    H9026448   5.310   2.727   3.471  0.4357 -0.8406  0.7017
   70MOL    H9126449   5.367   2.882   3.546 -1.9591  0.6670 -1.3618
   70MOL    H9226450   5.399   2.767   3.259 -3.6735  0.0477 -1.0666
   70MOL    H9326451   5.457   2.928   3.303 -1.0847  0.7366 -3.2061
   70MOL    H9426452   5.173   2.815   3.316 -0.9148  0.6225 -0.6136
   70MOL    H9526453   5.213   2.986   3.351  1.9402  1.3601 -0.5043
   70MOL    H9626454   5.255   2.923   3.195  1.1776  2.9723  1.4067
   70MOL    C9726455   5.561   2.456   3.639 -0.0352  0.7578 -0.0545
   70MOL    C9826456   5.687   2.365   3.633 -0.8661  0.1406 -0.4447
   70MOL    O9926457   5.765   2.365   3.755 -0.1527 -0.0369 -0.1977
   70MOL   C10026458   5.904   2.324   3.746  0.2517 -0.4398 -0.1408
   70MOL   C10126459   5.980   2.364   3.872 -0.1970  0.9331 -0.1560
   70MOL   C10226460   6.119   2.320   3.880 -0.2002 -0.0812 -0.6115
   70MOL   C10326461   6.184   2.311   4.026 -0.3377  0.6547 -0.4651
   70MOL   H10426462   5.510   2.452   3.544 -0.0938  0.1808 -0.0015
   70MOL   H10526463   5.500   2.409   3.716  0.3654 -1.8964 -1.2752
   70MOL   H10626464   5.752   2.408   3.556  0.8531 -1.1695  0.2382
   70MOL   H10726465   5.955   2.375   3.664  1.8634  1.7663  2.1538
   70MOL   H10826466   5.901   2.215   3.740  2.5409 -0.5522  0.1941
   70MOL   H10926467   5.922   2.310   3.947 -2.0152  0.3826 -1.9013
   70MOL   H11026468   5.972   2.468   3.904  1.1021  0.5377  1.5882
   70MOL   H11126469   6.170   2.383   3.808  1.6999  1.4238  1.9536
   70MOL   H11226470   6.118   2.218   3.841  2.0252 -0.5614  0.5278
   70MOL   H11326471   6.291   2.290   4.029 -0.4466  0.2349  1.1064
   70MOL   H11426472   6.174   2.410   4.072 -0.0016 -0.8541  3.0375
   70MOL   H11526473   6.135   2.244   4.097  1.6073  0.1415  0.4383
   70MOL   C11626474   5.653   2.216   3.598  0.0272 -0.1761  1.0648
   70MOL   C11726475   5.580   2.187   3.461 -0.3768 -0.0303  0.0066
   70MOL   O11826476   5.629   2.070   3.392 -0.0189  0.6240 -0.2763
   70MOL   C11926477   5.741   2.079   3.313 -0.2055  0.1154  0.1082
   70MOL   C12026478   5.781   1.941   3.276  1.4901  0.4623  0.0959
   70MOL   C12126479   5.831   1.854   3.394 -0.1314 -0.5730 -0.2618
   70MOL   C12226480   5.895   1.721   3.341 -0.0129 -0.3998  0.0336
   70MOL   H12326481   5.746   2.160   3.606  0.5953  0.3767 -1.3982
   70MOL   H12426482   5.591   2.174   3.678 -1.9306 -0.3631 -0.5083
   70MOL   H12526483   5.604   2.269   3.393 -0.4800 -1.1559 -1.4063
   70MOL   H12626484   5.820   2.131   3.367 -0.2215 -0.5295  0.7650
   70MOL   H12726485   5.703   2.126   3.222 -2.4157 -0.9826  0.4241
   70MOL   H12826486   5.857   1.946   3.198  0.8646  0.7422 -0.4907
   70MOL   H12926487   5.703   1.881   3.229 -0.7349  3.2004  0.1548
   70MOL   H13026488   5.916   1.898   3.446  0.0588 -1.2492  0.0067
   70MOL   H13126489   5.752   1.836   3.467  1.9785  1.4417  2.6248
   70MOL   H13226490   5.820   1.651   3.304  0.0780 -1.1542  1.2512
   70MOL   H13326491   5.963   1.666   3.406 -1.0906 -2.2719 -0.3690
   70MOL   H13426492   5.947   1.745   3.248  0.4380 -0.4480  0.2712
   70MOL   C13526493   5.427   2.181   3.480  0.1773  0.2354 -0.0944
   70MOL   C13626494   5.349   2.230   3.353 -0.9379  0.2371 -0.5282
   70MOL   O13726495   5.399   2.158   3.241  0.0551  0.5300 -0.3823
   70MOL   C13826496   5.357   2.198   3.109  0.6467  0.1583 -0.5893
   70MOL   C13926497   5.460   2.292   3.041 -0.0457 -0.0510 -0.5552
   70MOL   C14026498   5.567   2.213   2.971 -0.4273  0.4460  0.4356
   70MOL   C14126499   5.641   2.301   2.867 -0.3779 -0.3900  0.4049
   70MOL   H14226500   5.402   2.250   3.561 -2.3228 -2.1407  1.2283
   70MOL   H14326501   5.394   2.081   3.507  1.4115  0.1106  0.9699
   70MOL   H14426502   5.367   2.337   3.342  2.4456 -0.0399  1.5657
   70MOL   H14526503   5.260   2.246   3.095 -0.3182 -2.1416 -1.8826
   70MOL   H14626504   5.355   2.108   3.048  2.9447 -0.1442 -0.2584
   70MOL   H14726505   5.503   2.366   3.109  1.2324 -0.1153 -1.2794
   70MOL   H14826506   5.395   2.341   2.968  0.0536 -1.0161 -1.2996
   70MOL   H14926507   5.636   2.161   3.037 -0.1874  0.2833  0.0554
   70MOL   H15026508   5.515   2.133   2.919  0.2621 -0.1644  0.6908
   70MOL   H15126509   5.576   2.342   2.790  0.3279 -1.8189 -0.9814
   70MOL   H15226510   5.675   2.394   2.913  2.3005 -1.6329  1.0396
   70MOL   H15326511   5.736   2.254   2.841  0.2838  0.9659  0.3623
   70MOL   C15426512   5.198   2.209   3.361 -0.1002  0.2225 -0.0412
   70MOL   C15526513   5.117   2.315   3.443 -0.0084 -0.6653  0.4739
   70MOL   O15626514   5.014   2.239   3.496  0.0615 -0.6618  1.0061
   70MOL   C15726515   5.047   2.165   3.606 -0.1400  0.3154 -0.1899
   70MOL   C15826516   4.939   2.057   3.614  0.4412 -0.5846 -0.3389
   70MOL   C15926517   4.983   1.940   3.521 -0.7250 -0.3193  0.1409
   70MOL   C16026518   4.908   1.812   3.560  0.4028  0.6858 -0.2305
   70MOL   H16126519   5.178   2.107   3.395  0.8798 -0.1136 -0.4522
   70MOL   H16226520   5.146   2.209   3.265 -2.1376  1.1232  1.0411
   70MOL   H16326521   5.175   2.354   3.527 -2.5463  1.3614  1.3629
   70MOL   H16426522   5.151   2.132   3.610  0.3386  1.8546  0.4017
   70MOL   H16526523   5.037   2.235   3.689 -0.1719  1.6966 -1.3515
   70MOL   H16626524   4.838   2.089   3.588  0.6270 -1.8265 -2.7362
   70MOL   H16726525   4.933   2.019   3.716  0.6024 -0.4451 -0.2778
   70MOL   H16826526   4.956   1.952   3.416 -2.2834 -1.3187  0.4131
   70MOL   H16926527   5.090   1.923   3.529 -0.7192 -0.4488 -0.1875
   70MOL   H17026528   4.915   1.799   3.668  1.0767 -0.5754 -0.4161
   70MOL   H17126529   4.805   1.813   3.525  0.1945  1.0820  0.3792
   70MOL   H17226530   4.946   1.719   3.519 -1.0617 -0.1424  0.2330
   70MOL   C17326531   5.070   2.444   3.370 -0.4137 -0.1645 -0.3256
   70MOL   C17426532   4.969   2.533   3.447  0.0177  0.1540 -0.1058
   70MOL   O17526533   5.054   2.582   3.558  0.0143  0.4530  0.3265
   70MOL   C17626534   4.984   2.623   3.672 -0.8946 -0.5233 -0.0951
   70MOL   C17726535   5.072   2.695   3.766  0.0741  0.0704 -0.0451
   70MOL   C17826536   5.184   2.602   3.822 -0.2007 -0.3396  0.0514
   70MOL   C17926537   5.283   2.667   3.918  0.0890  0.4969 -0.1224
   70MOL   H18026538   5.030   2.412   3.274  1.7755  1.2721 -1.7661
   70MOL   H18126539   5.152   2.511   3.345 -0.5332 -0.4283 -1.4330
   70MOL   H18226540   4.892   2.465   3.482  1.8345 -0.6210  2.5370
   70MOL   H18326541   4.946   2.535   3.725 -1.5544 -1.5869 -2.2623
   70MOL   H18426542   4.895   2.674   3.635  1.0380  2.4137 -0.7407
   70MOL   H18526543   5.016   2.730   3.852  0.2342  0.1569  0.0243
   70MOL   H18626544   5.119   2.779   3.715  4.3701 -1.1002  1.7531
   70MOL   H18726545   5.124   2.538   3.886  0.2470 -0.8377 -0.0240
   70MOL   H18826546   5.241   2.548   3.747  2.5665  0.0246  1.8423
   70MOL   H18926547   5.238   2.732   3.993 -0.4666 -1.6501  1.4810
   70MOL   H19026548   5.338   2.592   3.976  0.1795 -0.0265 -0.8832
   70MOL   H19126549   5.357   2.732   3.874  1.7097 -0.4789  1.1123
   70MOL   C19226550   4.921   2.656   3.362 -0.2916 -0.2061 -0.0576
   70MOL   C19326551   4.774   2.667   3.334 -0.3740 -0.6207  0.6344
   70MOL   O19426552   4.742   2.783   3.256  0.2535  0.1919 -0.3903
   70MOL   C19526553   4.741   2.918   3.319  0.6918 -0.0326  0.5359
   70MOL   C19626554   4.639   2.925   3.428 -0.1442  0.3990 -0.1938
   70MOL   C19726555   4.500   2.935   3.369 -0.7807 -0.3109  1.1535
   70MOL   C19826556   4.409   2.946   3.488 -0.1930  0.5244  0.1191
   70MOL   H19926557   4.980   2.659   3.270  0.6535  0.4716  0.5512
   70MOL   H20026558   4.949   2.752   3.405 -0.4219  0.3366 -1.1536
   70MOL   H20126559   4.717   2.673   3.426  1.6395  0.4592  1.8251
   70MOL   H20226560   4.717   2.992   3.243 -1.7033 -1.3979 -0.0867
   70MOL   H20326561   4.839   2.950   3.355  0.4993  1.1437  0.0205
   70MOL   H20426562   4.655   2.847   3.502  3.1497  1.2622  0.0734
   70MOL   H20526563   4.646   3.017   3.486  0.6438  0.2974 -0.1232
   70MOL   H20626564   4.467   2.850   3.309 -1.9315  0.9577 -0.0596
   70MOL   H20726565   4.496   3.023   3.305 -0.3946 -1.9763 -1.2465
   70MOL   H20826566   4.428   2.878   3.571  0.9702 -1.3219 -1.6002
   70MOL   H20926567   4.423   3.046   3.530 -2.4081  1.2161 -0.6959
   70MOL   H21026568   4.303   2.933   3.465 -0.0974  1.0689 -0.6553
   70MOL   C21126569   4.717   2.545   3.256 -0.5900 -0.3488 -0.3646
   70MOL   C21226570   4.562   2.531   3.244  0.2526 -0.1485  0.4059
   70MOL   O21326571   4.533   2.427   3.153  0.1815  0.2676  0.5350
   70MOL   C21426572   4.544   2.452   3.017  0.6331  0.7934 -0.1597
   70MOL   C21526573   4.420   2.508   2.950 -0.0862 -0.1948 -0.5638
   70MOL   C21626574   4.417   2.501   2.798 -0.2568  0.0179  0.2300
   70MOL   C21726575   4.278   2.544   2.739 -0.3542  0.2234 -0.6254
   70MOL   H21826576   4.758   2.450   3.293  0.2724  1.1804  2.8245
   70MOL   H21926577   4.761   2.548   3.157  0.7440  2.7904  0.2874
   70MOL   H22026578   4.518   2.616   3.192  0.6394  0.1051  0.4914
   70MOL   H22126579   4.639   2.500   2.994  0.0630 -0.1053 -4.8541
   70MOL   H22226580   4.567   2.358   2.966  1.3975  0.5284  0.6377
   70MOL   H22326581   4.334   2.455   2.992  0.8856 -0.3939  1.2407
   70MOL   H22426582   4.414   2.608   2.993  1.2530 -0.8652  1.2411
   70MOL   H22526583   4.446   2.400   2.766  0.3097  0.2396  0.0424
   70MOL   H22626584   4.496   2.563   2.757 -0.6043  2.0439  2.4964
   70MOL   H22726585   4.266   2.521   2.633  2.5409 -0.5392 -0.8234
   70MOL   H22826586   4.279   2.653   2.743 -1.0762  0.2416 -0.8833
   70MOL   H22926587   4.190   2.502   2.787 -0.4043 -0.1097 -1.0065
   70MOL   C23026588   4.484   2.508   3.379 -0.4356 -0.1253  0.1123
   70MOL   C23126589   4.333   2.502   3.374 -0.0972  0.5126  0.4650
   70MOL   O23226590   4.287   2.476   3.504  0.3988  0.4395 -1.0536
   70MOL   C23326591   4.310   2.349   3.566 -0.3446  0.0698 -0.0811
   70MOL   C23426592   4.205   2.349   3.687 -0.4919  0.0388  0.1884
   70MOL   C23526593   4.065   2.381   3.649  0.1254 -0.6661 -0.3859
   70MOL   C23626594   3.969   2.357   3.773 -0.1532 -0.0021 -0.3307
   70MOL   H23726595   4.515   2.602   3.425 -0.5074  0.0842 -0.2635
   70MOL   H23826596   4.530   2.428   3.438 -1.8523 -0.9715  0.0884
   70MOL   H23926597   4.300   2.431   3.298  0.1518  3.0159 -2.1047
   70MOL   H24026598   4.285   2.271   3.495 -0.0978 -0.3643  0.3023
   70MOL   H24126599   4.415   2.346   3.598 -0.0126  1.0756 -1.0599
   70MOL   H24226600   4.209   2.255   3.742  1.5030 -0.7788 -1.2953
   70MOL   H24326601   4.247   2.419   3.759 -0.2539  1.8111 -1.6175
   70MOL   H24426602   4.029   2.335   3.556 -1.9803  2.5054 -1.2382
   70MOL   H24526603   4.069   2.486   3.623 -1.0035 -0.4107  0.4285
   70MOL   H24626604   3.961   2.252   3.801  1.0485 -0.1403 -0.4696
   70MOL   H24726605   3.874   2.408   3.757 -0.1071  0.7762  1.6929
   70MOL   H24826606   4.011   2.413   3.857 -0.8946  2.1594 -1.3457
   70MOL   C24926607   4.276   2.647   3.349  0.3656 -0.3304  0.3958
   70MOL   C25026608   4.129   2.649   3.321  0.4603 -0.0785  0.6485
   70MOL   O25126609   4.093   2.607   3.188 -0.3034 -0.1219 -0.2045
   70MOL   C25226610   4.016   2.486   3.202 -0.3387 -0.0802 -0.9070
   70MOL   C25326611   3.975   2.433   3.062 -0.5723 -0.1226  0.0581
   70MOL   C25426612   3.883   2.525   2.982 -0.0189  0.1071 -0.9730
   70MOL   C25526613   3.770   2.457   2.899 -0.1921  0.6069  0.1693
   70MOL   H25626614   4.320   2.684   3.256 -0.1442  1.6214  0.9124
   70MOL   H25726615   4.311   2.710   3.431  1.1448  1.5679 -1.3710
   70MOL   H25826616   4.084   2.595   3.404 -0.6451 -0.4934 -0.2053
   70MOL   H25926617   3.929   2.503   3.266  0.3400  2.0337 -0.5093
   70MOL   H26026618   4.074   2.414   3.260 -0.9521  0.0593 -0.1085
   70MOL   H26126619   4.068   2.415   3.008 -1.0241  0.0239 -0.7794
   70MOL   H26226620   3.918   2.342   3.081 -1.1421  0.0503 -0.7881
   70MOL   H26326621   3.837   2.599   3.048 -0.1250 -0.1830 -0.7245
   70MOL   H26426622   3.944   2.586   2.915 -0.4936 -0.2162 -1.7049
   70MOL   H26526623   3.711   2.387   2.958  0.3614 -1.9441 -2.2086
   70MOL   H26626624   3.811   2.409   2.811 -0.2814  3.6060 -1.5829
   70MOL   H26726625   3.690   2.519   2.859 -1.5799 -0.4666  1.2353
   70MOL   C26826626   4.068   2.799   3.339 -0.2444 -0.3934 -0.0832
   70MOL   C26926627   3.930   2.820   3.294 -0.2278 -0.3177  0.2322
   70MOL   O27026628   3.860   2.763   3.400 -0.6238 -0.4502  0.4501
   70MOL   C27126629   3.728   2.717   3.352 -0.1378 -0.0544  0.4216
   70MOL   C27226630   3.654   2.670   3.474 -0.5752  0.3206  0.3168
   70MOL   C27326631   3.714   2.536   3.526  0.1258 -0.0481  0.5444
   70MOL   C27426632   3.626   2.471   3.633  0.3254 -0.1316  0.0070
   70MOL   H27526633   4.074   2.836   3.441 -2.0364  1.0510 -0.4745
   70MOL   H27626634   4.127   2.869   3.279 -0.2436 -1.8886 -1.8731
   70MOL   H27726635   3.914   2.769   3.199  0.2808 -1.6550  0.8512
   70MOL   H27826636   3.668   2.789   3.296  2.1511  2.9854  1.7056
   70MOL   H27926637   3.749   2.632   3.287 -1.2722  0.9188 -1.2353
   70MOL   H28026638   3.642   2.746   3.552  1.3616 -0.2205  1.1580
   70MOL   H28126639   3.556   2.642   3.436  0.6228 -1.8063 -1.2888
   70MOL   H28226640   3.816   2.554   3.558 -0.2161  0.6833  1.2366
   70MOL   H28326641   3.735   2.465   3.446  1.8982 -1.2476  2.0366
   70MOL   H28426642   3.529   2.457   3.584  0.2718  1.3119 -0.3288
   70MOL   H28526643   3.608   2.528   3.724 -1.6780 -0.6335 -0.0548
   70MOL   H28626644   3.670   2.376   3.664  1.5229  0.3217 -0.2664
   70MOL   C28726645   3.893   2.971   3.288  0.1268  0.2929  0.1697
   70MOL   C28826646   3.904   3.038   3.148 -0.3202 -0.0483  0.4159
   70MOL   O28926647   4.038   3.056   3.115  0.4560 -0.1546  0.1382
   70MOL   C29026648   4.082   2.971   3.010 -0.1034 -0.0293  0.6451
   70MOL   C29126649   4.224   2.988   2.956 -0.5159  0.0169  0.0766
   70MOL   C29226650   4.325   2.931   3.053  0.6743 -0.3062  0.2774
   70MOL   C29326651   4.468   2.900   2.992  0.2844  0.4230  0.2619
   70MOL   H29426652   3.937   3.027   3.371  1.5617  0.8649 -0.9562
   70MOL   H29526653   3.786   2.975   3.305 -0.0074 -0.9665 -0.3458
   70MOL   H29626654   3.851   2.966   3.086 -0.6287  1.1206 -0.6964
   70MOL   H29726655   4.068   2.870   3.048 -0.2083 -0.0419  0.5718
   70MOL   H29826656   4.013   2.983   2.926  0.3821 -1.5678  0.0247
   70MOL   H29926657   4.252   3.093   2.945 -0.6365 -0.0076 -0.4790
   70MOL   H30026658   4.235   2.934   2.862 -0.3193 -2.0455  1.2369
   70MOL   H30126659   4.290   2.837   3.096 -2.7244  0.8575  0.2809
   70MOL   H30226660   4.325   2.993   3.142 -1.3156 -0.2268  0.2615
   70MOL   H30326661   4.524   2.985   2.953  0.8299 -0.4849 -0.9838
   70MOL   H30426662   4.527   2.850   3.069 -0.3673  0.6249  0.8964
   70MOL   H30526663   4.458   2.836   2.904  0.8106  3.1109 -1.8245
   70MOL   C30626664   3.828   3.174   3.140  0.0951 -0.8431  0.7000
   70MOL   C30726665   3.854   3.274   3.023  0.1224 -0.1524  0.1298
   70MOL   O30826666   3.803   3.405   3.046 -0.4410 -0.0723  0.1643
   70MOL   C30926667   3.894   3.514   3.059  0.1759 -0.3902 -0.0949
   70MOL   C31026668   3.826   3.644   3.028 -0.0598  0.2430  0.0284
   70MOL   C31126669   3.788   3.667   2.880 -0.9468  0.2537 -0.2960
   70MOL   C31226670   3.685   3.782   2.850  0.2602  0.0520 -0.6671
   70MOL   H31326671   3.721   3.171   3.159 -0.3905  1.5546 -1.4441
   70MOL   H31426672   3.866   3.232   3.224 -1.3175 -2.8871  2.8018
   70MOL   H31526673   3.962   3.278   3.007  0.1237  0.4567  0.2762
   70MOL   H31626674   3.973   3.498   2.986 -2.0316 -3.6810 -1.9232
   70MOL   H31726675   3.943   3.497   3.155 -1.4117 -0.9411  0.6367
   70MOL   H31826676   3.901   3.721   3.050 -1.6426  2.0361 -0.7343
   70MOL   H31926677   3.742   3.652   3.097 -0.2741 -0.9010 -0.0949
   70MOL   H32026678   3.873   3.700   2.819 -0.1037  1.1500  1.3176
   70MOL   H32126679   3.758   3.572   2.837  1.9200 -0.4201 -0.9146
   70MOL   H32226680   3.721   3.869   2.904 -0.6330  0.6605 -1.0471
   70MOL   H32326681   3.581   3.764   2.878  0.6413 -1.6524 -0.2316
   70MOL   H32426682   3.685   3.814   2.746  2.0863 -0.4121 -0.8349
   70MOL   C32526683   3.789   3.221   2.886 -0.6266  0.1008  0.2669
   70MOL   C32626684   3.856   3.287   2.763 -0.2719 -0.5603 -0.0461
   70MOL   O32726685   3.991   3.239   2.742 -0.0358 -0.0535  0.8352
   70MOL   C32826686   4.085   3.329   2.687  0.1746 -0.3933 -0.5883
   70MOL   C32926687   4.212   3.253   2.662  0.1466 -0.1095  0.3505
   70MOL   C33026688   4.311   3.337   2.589  0.5191 -0.2125  0.0501
   70MOL   C33126689   4.434   3.254   2.549  0.1755  0.5642  0.2895
   70MOL   H33226690   3.682   3.242   2.885  0.0250  3.7311 -1.1926
   70MOL   H33326691   3.819   3.117   2.875 -2.3605 -0.3631 -0.3433
   70MOL   H33426692   3.866   3.394   2.778  0.8576 -0.4252 -1.6234
   70MOL   H33526693   4.104   3.412   2.755 -0.1465  0.1770 -1.1902
   70MOL   H33626694   4.039   3.376   2.601  1.8480 -0.2038 -1.3985
   70MOL   H33726695   4.257   3.204   2.749 -0.5774 -1.8623 -0.2414
   70MOL   H33826696   4.192   3.164   2.601  0.1118 -0.2352  0.5430
   70MOL   H33926697   4.338   3.404   2.670 -0.2203 -0.7866  0.7890
   70MOL   H34026698   4.260   3.392   2.511 -1.0380 -1.0694  0.4384
   70MOL   H34126699   4.466   3.177   2.619  0.7545 -0.6276 -1.2638
   70MOL   H34226700   4.509   3.332   2.532  0.3855  0.1525 -0.6866
   70MOL   H34326701   4.418   3.201   2.455  1.7333  2.1753 -0.9377
   70MOL   C34426702   3.781   3.262   2.640 -0.3855 -0.0832  0.7773
   70MOL   C34526703   3.648   3.339   2.627  0.0419 -0.6270 -0.2217
   70MOL   O34626704   3.545   3.288   2.543  0.2504 -0.0421 -0.0493
   70MOL   C34726705   3.490   3.165   2.576  0.7585 -0.1021 -0.6311
   70MOL   C34826706   3.356   3.154   2.506  0.5916 -0.1887 -0.1058
   70MOL   C34926707   3.285   3.022   2.526 -0.0934  0.8051 -0.0825
   70MOL   C35026708   3.176   3.000   2.420 -0.2721  1.1853 -0.3599
   70MOL   H35126709   3.845   3.273   2.553  0.4264 -1.5769  1.1871
   70MOL   H35226710   3.756   3.157   2.629 -0.3310 -0.1137  0.9456
   70MOL   H35326711   3.604   3.345   2.727  1.7439 -0.9497  0.5728
   70MOL   H35426712   3.471   3.167   2.683 -0.8318  2.1973 -0.9067
   70MOL   H35526713   3.547   3.076   2.549 -1.3815 -1.7563  0.1434
   70MOL   H35626714   3.395   3.159   2.404 -3.2138 -1.0793 -1.6910
   70MOL   H35726715   3.289   3.237   2.526  1.8865  1.0101 -0.6824
   70MOL   H35826716   3.340   2.928   2.511 -0.0978  1.3151 -3.7540
   70MOL   H35926717   3.248   3.013   2.628  2.3320 -0.0212  0.7826
   70MOL   H36026718   3.212   2.976   2.320  1.9922  1.8021  0.2814
   70MOL   H36126719   3.131   3.099   2.421 -0.3897  1.1291  1.6243
   70MOL   H36226720   3.104   2.923   2.449  0.3153 -0.1578 -2.3817
   70MOL   C36326721   3.663   3.485   2.573 -0.0006 -1.0025 -0.0005
   70MOL   C36426722   3.691   3.498   2.418  0.4130  0.3152 -0.7088
   70MOL   O36526723   3.687   3.642   2.390 -0.0025  0.8049 -0.1229
   70MOL   C36626724   3.556   3.691   2.369  0.6809 -0.9111  0.2484
   70MOL   C36726725   3.562   3.847   2.359 -0.7094  0.0622  0.1923
   70MOL   C36826726   3.600   3.917   2.488  0.0358 -0.5452  0.1007
   70MOL   C36926727   3.580   4.063   2.490 -0.1393 -0.1624 -0.2574
   70MOL   H37026728   3.753   3.524   2.619  0.0953  0.4940 -1.4238
   70MOL   H37126729   3.582   3.542   2.618  0.6759 -2.4082  3.1525
   70MOL   H37226730   3.625   3.431   2.362 -1.4247  0.1603  1.5636
   70MOL   H37326731   3.485   3.663   2.447  1.7934  1.0180  1.9878
   70MOL   H37426732   3.520   3.645   2.276  1.4553  0.6428 -0.8340
   70MOL   H37526733   3.469   3.885   2.316 -2.0128 -2.1781  0.9579
   70MOL   H37626734   3.642   3.860   2.286 -1.9260 -0.7116 -1.3255
   70MOL   H37726735   3.703   3.895   2.513  0.1129 -0.9355 -0.5381
   70MOL   H37826736   3.529   3.883   2.564  0.6759  1.4113  1.6075
   70MOL   H37926737   3.621   4.123   2.572  1.3739 -0.6401 -0.6696
   70MOL   H38026738   3.617   4.110   2.399  0.6570  2.1558  1.2074
   70MOL   H38126739   3.472   4.079   2.483 -0.6502 -2.5736  1.4200
   70MOL   H38226740   3.794   3.466   2.403  0.1581  0.8876 -4.1088
   71MOL     C126741   2.867   2.575   6.311  0.0743 -0.4168  0.0421
   71MOL     C226742   2.808   2.449   6.263 -0.0683 -0.9072 -0.0352
   71MOL     O326743   2.872   2.427   6.137  0.0017 -0.6155  0.1280
   71MOL     C426744   2.802   2.479   6.021 -0.4543  0.1064  0.0371
   71MOL     C526745   2.873   2.440   5.888  0.7201 -0.2045  0.0265
   71MOL     C626746   3.009   2.508   5.872  0.7546  0.3033  0.4179
   71MOL     C726747   3.018   2.655   5.804 -0.0281  0.2764 -0.1293
   71MOL     H826748   2.859   2.654   6.236 -0.9798  0.7908  1.3852
   71MOL     H926749   2.817   2.607   6.402  0.1579  0.6862 -0.2916
   71MOL    H1026750   2.699   2.460   6.256  0.1533 -0.0669 -2.9732
   71MOL    H1126751   2.697   2.450   6.014 -0.0787 -1.3871  0.4384
   71MOL    H1226752   2.810   2.587   6.029  0.1957  0.0672 -0.0523
   71MOL    H1326753   2.793   2.465   5.819  2.0304  1.7775 -0.8423
   71MOL    H1426754   2.887   2.332   5.888  1.9108 -0.1013 -2.3915
   71MOL    H1526755   3.067   2.440   5.809  1.0543 -0.4922  1.5256
   71MOL    H1626756   3.062   2.512   5.967  0.3840 -0.8779  0.6758
   71MOL    H1726757   3.121   2.687   5.790 -0.3661  1.1233 -0.7030
   71MOL    H1826758   2.965   2.735   5.857 -0.5163 -0.2203  0.1311
   71MOL    H1926759   2.976   2.660   5.704  0.9838  0.5304 -0.5510
   71MOL    H2026760   2.973   2.574   6.337  0.3427 -0.4849 -1.0183
   71MOL    C2126761   2.826   2.329   6.356 -0.4962  0.2335 -0.1365
   71MOL    C2226762   2.755   2.332   6.495 -0.7528  0.3956 -0.2396
   71MOL    O2326763   2.609   2.330   6.481 -0.5138 -0.0043  0.3880
   71MOL    C2426764   2.549   2.454   6.479 -0.5386 -0.5323  0.2419
   71MOL    C2526765   2.401   2.436   6.443 -0.0442  0.1337 -0.3737
   71MOL    C2626766   2.377   2.395   6.300  0.1365 -0.6339  0.7186
   71MOL    C2726767   2.234   2.360   6.276  0.0164 -0.4305  0.6004
   71MOL    H2826768   2.933   2.310   6.361 -0.1149  2.4346  0.4941
   71MOL    H2926769   2.796   2.242   6.297  0.2461  0.2644 -0.5718
   71MOL    H3026770   2.799   2.417   6.548  1.0916 -0.7159  0.0528
   71MOL    H3126771   2.589   2.539   6.424  0.9158  0.8964  3.4277
   71MOL    H3226772   2.569   2.489   6.580  0.6028  0.5108 -0.3298
   71MOL    H3326773   2.357   2.362   6.510  0.4907  0.0649 -0.0981
   71MOL    H3426774   2.346   2.528   6.462  0.7096  0.4879  0.0972
   71MOL    H3526775   2.415   2.473   6.234 -2.7091  0.0807 -0.1480
   71MOL    H3626776   2.440   2.310   6.274 -0.4066 -0.5599 -0.9557
   71MOL    H3726777   2.205   2.386   6.175  1.7584 -0.0807  0.1752
   71MOL    H3826778   2.220   2.253   6.289  2.0406 -0.8501 -0.4089
   71MOL    H3926779   2.173   2.416   6.347  0.4495  0.9946 -0.1392
   71MOL    C4026780   2.803   2.206   6.572  0.8125  0.3365  0.4481
   71MOL    C4126781   2.755   2.200   6.722  0.3963  0.3070  0.1543
   71MOL    O4226782   2.817   2.309   6.777 -0.5844  0.0085 -0.2218
   71MOL    C4326783   2.739   2.357   6.883 -0.7092  0.1964 -0.3093
   71MOL    C4426784   2.791   2.496   6.925  0.3754  0.3596  0.4732
   71MOL    C4526785   2.711   2.561   7.036 -0.7195 -0.0698 -0.3254
   71MOL    C4626786   2.774   2.703   7.077  0.2341  0.5353  0.2449
   71MOL    H4726787   2.912   2.196   6.571  0.7615 -0.3712  1.9008
   71MOL    H4826788   2.763   2.122   6.516 -1.7722 -0.0910  2.8646
   71MOL    H4926789   2.646   2.207   6.727  0.3823  0.8885 -0.8209
   71MOL    H5026790   2.731   2.280   6.960  4.4198 -1.1360 -0.9322
   71MOL    H5126791   2.638   2.375   6.844 -1.0793 -1.0369  0.0276
   71MOL    H5226792   2.791   2.554   6.832  2.2312  0.3342  0.4535
   71MOL    H5326793   2.893   2.476   6.955  0.2213 -2.0382 -0.5328
   71MOL    H5426794   2.711   2.499   7.126  0.6532 -0.9050 -0.8800
   71MOL    H5526795   2.613   2.581   6.993 -1.8919 -2.7638  0.9629
   71MOL    H5626796   2.733   2.746   7.168  1.1160  2.1150 -0.0953
   71MOL    H5726797   2.879   2.685   7.101  0.2691  0.4703  0.0466
   71MOL    H5826798   2.774   2.778   6.999  0.1306 -0.3509 -0.6174
   71MOL    C5926799   2.799   2.072   6.794 -0.5478  1.0311  0.3687
   71MOL    C6026800   2.730   1.941   6.753 -0.2651 -1.6608 -0.0511
   71MOL    O6126801   2.795   1.826   6.811 -0.6164 -0.0393 -0.0392
   71MOL    C6226802   2.912   1.780   6.745 -0.7938  0.4134  0.4622
   71MOL    C6326803   2.941   1.644   6.801 -0.1320 -0.2862  0.7268
   71MOL    C6426804   3.066   1.587   6.734  0.1051  1.0972  0.0461
   71MOL    C6526805   3.067   1.428   6.728 -0.5551  0.0092  0.3102
   71MOL    H6626806   2.907   2.066   6.778 -0.7220  1.6569 -1.1618
   71MOL    H6726807   2.792   2.071   6.903  2.1476 -0.5536  0.5868
   71MOL    H6826808   2.736   1.927   6.645 -0.0921  2.7875 -0.7178
   71MOL    H6926809   2.992   1.851   6.767 -0.3296  0.0120  0.0842
   71MOL    H7026810   2.900   1.767   6.638 -0.0210 -1.4675  0.5855
   71MOL    H7126811   2.946   1.647   6.910 -2.2503 -0.3052  0.8314
   71MOL    H7226812   2.859   1.576   6.779 -1.0340  0.7565  0.8799
   71MOL    H7326813   3.087   1.628   6.636  2.0301  2.3132  0.9305
   71MOL    H7426814   3.150   1.620   6.795  0.4724 -1.0168  0.7272
   71MOL    H7526815   3.016   1.379   6.812  0.9389 -0.3132  1.0537
   71MOL    H7626816   3.030   1.395   6.631  2.0200  2.1392 -1.4560
   71MOL    H7726817   3.170   1.393   6.721 -0.6509 -0.5036  1.2957
   71MOL    C7826818   2.588   1.931   6.810  0.6195  0.5636  0.2140
   71MOL    C7926819   2.474   1.968   6.706 -0.3249 -0.0297 -0.9758
   71MOL    O8026820   2.370   2.016   6.784  0.4992  0.0560  0.0530
   71MOL    C8126821   2.317   2.147   6.747  0.0097 -0.1787 -0.0205
   71MOL    C8226822   2.205   2.182   6.847  0.0193  0.3914 -0.1294
   71MOL    C8326823   2.096   2.297   6.799 -0.4548  0.4291 -0.1502
   71MOL    C8426824   1.982   2.306   6.893 -0.5744 -0.4080  0.0093
   71MOL    H8526825   2.580   1.986   6.904  1.5707 -0.3855  0.8629
   71MOL    H8626826   2.559   1.834   6.851 -0.1480  1.8299  2.7927
   71MOL    H8726827   2.514   2.044   6.639 -1.1739 -0.3443 -1.8591
   71MOL    H8826828   2.284   2.142   6.643  0.4128  0.7610 -0.1973
   71MOL    H8926829   2.389   2.228   6.760  1.1041 -1.2257  0.5841
   71MOL    H9026830   2.150   2.092   6.873 -1.1603  1.1426  0.0368
   71MOL    H9126831   2.252   2.207   6.942 -0.0257  0.6659 -0.1767
   71MOL    H9226832   2.061   2.293   6.696 -0.0667  0.4245 -0.2823
   71MOL    H9326833   2.155   2.389   6.798 -1.5449  1.1535  0.1844
   71MOL    H9426834   2.023   2.321   6.993 -0.9549 -0.3866  0.1604
   71MOL    H9526835   1.920   2.388   6.857 -1.9207 -0.3996  2.2917
   71MOL    H9626836   1.908   2.226   6.885 -1.9711  1.1091 -3.2321
   71MOL    C9726837   2.431   1.841   6.644 -0.3863  0.8856 -0.3198
   71MOL    C9826838   2.367   1.868   6.508 -0.3960  0.0572 -0.0114
   71MOL    O9926839   2.467   1.929   6.434 -0.2342  0.3652  0.0671
   71MOL   C10026840   2.417   1.991   6.314  0.2426 -0.2418  0.4989
   71MOL   C10126841   2.539   2.038   6.228  0.1812 -0.0670  0.5169
   71MOL   C10226842   2.630   1.931   6.170 -0.1474 -0.0110 -0.0332
   71MOL   C10326843   2.738   1.996   6.084  0.1467 -0.4133  0.6407
   71MOL   H10426844   2.361   1.789   6.710 -1.0943  1.4393 -0.6174
   71MOL   H10526845   2.515   1.773   6.638 -1.2080 -0.1372 -0.2651
   71MOL   H10626846   2.290   1.945   6.513  2.0227  2.4755  1.1938
   71MOL   H10726847   2.359   2.076   6.349 -1.3507 -1.3829  0.6768
   71MOL   H10826848   2.357   1.927   6.250  0.7556  1.1422 -1.4213
   71MOL   H10926849   2.598   2.109   6.286  1.2299  0.3869 -1.0607
   71MOL   H11026850   2.494   2.105   6.156 -0.6288 -0.0353  1.0443
   71MOL   H11126851   2.573   1.862   6.108  0.5709 -0.5561 -0.0915
   71MOL   H11226852   2.672   1.868   6.248  1.1268  1.0409  0.1364
   71MOL   H11326853   2.685   2.069   6.023  1.9406  1.4187  1.2466
   71MOL   H11426854   2.812   2.048   6.144 -1.1143  0.8982  1.0959
   71MOL   H11526855   2.789   1.923   6.021 -2.1336 -0.8084 -0.8335
   71MOL   C11626856   2.309   1.742   6.441  0.2125 -0.2272 -0.3425
   71MOL   C11726857   2.184   1.683   6.519 -0.5294  0.8542 -0.0087
   71MOL   O11826858   2.087   1.785   6.522  0.5487 -0.1517 -0.6147
   71MOL   C11926859   2.059   1.856   6.641 -0.0366  0.2812 -1.1407
   71MOL   C12026860   1.996   1.985   6.600  0.4461 -0.5426  0.1900
   71MOL   C12126861   1.857   1.968   6.532  0.2348  0.2443 -0.3249
   71MOL   C12226862   1.812   2.080   6.441  0.3598 -0.4330 -0.1831
   71MOL   H12326863   2.282   1.755   6.336  1.3887  0.0388 -0.6224
   71MOL   H12426864   2.389   1.668   6.440  0.7982  0.4068 -0.9340
   71MOL   H12526865   2.212   1.659   6.622  0.7032  0.6885 -0.3666
   71MOL   H12626866   2.152   1.876   6.695  0.9151 -0.2025 -2.5737
   71MOL   H12726867   1.990   1.795   6.699  3.0145  1.1274  3.7173
   71MOL   H12826868   2.063   2.032   6.527  0.5674 -2.7381 -1.1522
   71MOL   H12926869   1.970   2.054   6.681  1.1649 -2.2685  1.9430
   71MOL   H13026870   1.853   1.875   6.475 -1.5092  1.1485 -1.7055
   71MOL   H13126871   1.783   1.964   6.612  1.6635  0.0662  1.0091
   71MOL   H13226872   1.761   2.040   6.354 -1.5743  0.6422  0.4336
   71MOL   H13326873   1.901   2.139   6.418 -0.1416  0.1696 -0.5819
   71MOL   H13426874   1.735   2.143   6.485  1.4899  1.6071 -1.0309
   71MOL   C13526875   2.127   1.553   6.465  0.3989  0.2359  0.2274
   71MOL   C13626876   2.064   1.566   6.319  0.1123 -0.4950 -0.0970
   71MOL   O13726877   2.166   1.554   6.220 -0.1861  0.1741 -0.0940
   71MOL   C13826878   2.127   1.595   6.089  0.0311 -0.0868  0.5753
   71MOL   C13926879   2.255   1.572   5.997  0.4461 -0.1530  0.1191
   71MOL   C14026880   2.369   1.654   6.053  0.6464 -0.2995  0.7632
   71MOL   C14126881   2.490   1.653   5.970  0.1835 -0.0471 -0.2784
   71MOL   H14226882   2.047   1.522   6.532 -0.6303  1.1398 -0.5726
   71MOL   H14326883   2.212   1.485   6.471  0.8895  0.8528  0.3602
   71MOL   H14426884   2.012   1.661   6.305  1.0175  0.1424  0.8597
   71MOL   H14526885   2.082   1.694   6.081 -0.9434 -0.6604 -1.3984
   71MOL   H14626886   2.049   1.526   6.057 -0.7256  0.2448  1.6672
   71MOL   H14726887   2.236   1.609   5.896  3.6007 -1.4239 -1.0008
   71MOL   H14826888   2.279   1.466   5.985  1.6724  0.4356 -3.1151
   71MOL   H14926889   2.335   1.757   6.056  2.1407  0.2352 -0.0250
   71MOL   H15026890   2.408   1.622   6.150 -1.9044  0.4208  2.0690
   71MOL   H15126891   2.502   1.559   5.916 -1.4953  0.5440 -1.7219
   71MOL   H15226892   2.468   1.715   5.883 -0.1934  0.4511  0.1710
   71MOL   H15326893   2.577   1.669   6.033 -0.2058 -1.7023  0.6949
   71MOL   C15426894   1.960   1.450   6.305  0.0636 -0.0150 -0.5557
   71MOL   C15526895   1.827   1.453   6.391 -0.6037 -0.6219 -0.4168
   71MOL   O15626896   1.753   1.339   6.364  0.4843  0.4064 -0.1035
   71MOL   C15726897   1.769   1.231   6.451 -0.7494 -0.3314 -0.0661
   71MOL   C15826898   1.706   1.117   6.359 -0.0432 -0.4262  0.0546
   71MOL   C15926899   1.567   1.142   6.301  0.2295 -0.1269 -0.4933
   71MOL   C16026900   1.480   1.014   6.281  0.8065 -0.4544 -0.4105
   71MOL   H16126901   2.011   1.364   6.347  0.5706 -0.7990 -2.7329
   71MOL   H16226902   1.940   1.433   6.199 -0.6502  0.8150 -0.5697
   71MOL   H16326903   1.854   1.457   6.496 -0.8601  2.1853 -0.4189
   71MOL   H16426904   1.875   1.221   6.475 -0.9594 -0.5526  0.7832
   71MOL   H16526905   1.722   1.255   6.546 -1.1754 -2.1790  0.2054
   71MOL   H16626906   1.702   1.032   6.428  0.7790 -0.6185 -0.1384
   71MOL   H16726907   1.776   1.080   6.284 -0.6335  1.0963 -1.2635
   71MOL   H16826908   1.515   1.204   6.375  0.2122 -0.1154 -0.5151
   71MOL   H16926909   1.574   1.199   6.209  0.0319  0.3896 -0.1919
   71MOL   H17026910   1.390   1.028   6.222  0.1615  1.7684  1.0314
   71MOL   H17126911   1.537   0.939   6.227  2.8301 -0.2058  1.3173
   71MOL   H17226912   1.448   0.971   6.376  0.4255 -0.4838 -0.5516
   71MOL   C17326913   1.738   1.573   6.347  0.4262  0.1651 -0.1475
   71MOL   C17426914   1.624   1.596   6.449  0.5585  0.0438  0.4915
   71MOL   O17526915   1.687   1.647   6.572  0.3900 -0.1622  0.5811
   71MOL   C17626916   1.615   1.644   6.697 -0.3663  0.1818  0.8124
   71MOL   C17726917   1.716   1.678   6.810 -0.2029 -0.3406 -0.3495
   71MOL   C17826918   1.640   1.701   6.939  0.4703 -0.1533  0.0392
   71MOL   C17926919   1.730   1.734   7.057  0.1276  0.1177 -0.2555
   71MOL   H18026920   1.701   1.562   6.245 -1.4202  1.2180  0.3784
   71MOL   H18126921   1.797   1.665   6.346 -0.5233  0.7977  0.6660
   71MOL   H18226922   1.572   1.505   6.478  2.2350 -0.5965  1.5805
   71MOL   H18326923   1.555   1.556   6.715  1.2536 -1.0692  0.2141
   71MOL   H18426924   1.549   1.730   6.684  0.1160  0.3126 -0.9733
   71MOL   H18526925   1.750   1.776   6.776 -1.3328  0.5433  0.9837
   71MOL   H18626926   1.801   1.610   6.810  0.8042  0.8111  2.6677
   71MOL   H18726927   1.568   1.783   6.936 -0.2670 -0.6183  3.0487
   71MOL   H18826928   1.590   1.607   6.961 -0.9286  0.8944  1.4694
   71MOL   H18926929   1.759   1.838   7.042 -0.5124  0.4689  0.9006
   71MOL   H19026930   1.683   1.713   7.153 -1.2284 -1.3189 -1.2012
   71MOL   H19126931   1.811   1.661   7.061 -0.1419 -0.1293  0.7281
   71MOL   C19226932   1.528   1.709   6.404  0.1918  0.3077 -0.6964
   71MOL   C19326933   1.425   1.669   6.296 -0.0132 -0.6946 -0.2900
   71MOL   O19426934   1.328   1.585   6.366  0.0016  0.4634  0.4468
   71MOL   C19526935   1.287   1.474   6.295  0.4766 -0.8882 -0.5731
   71MOL   C19626936   1.162   1.430   6.372 -0.0974 -0.3591  0.0568
   71MOL   C19726937   1.200   1.378   6.507 -0.3280  0.0376 -0.2205
   71MOL   C19826938   1.078   1.327   6.586  0.2839  0.1239 -0.4968
   71MOL   H19926939   1.596   1.791   6.380  0.4002  0.1166 -0.7578
   71MOL   H20026940   1.477   1.731   6.498 -1.9405 -0.8525 -1.5492
   71MOL   H20126941   1.482   1.615   6.220 -2.4978 -0.9327 -2.0574
   71MOL   H20226942   1.367   1.400   6.297  0.1441 -1.2538 -0.7926
   71MOL   H20326943   1.249   1.496   6.196 -0.9505 -0.4548  0.0653
   71MOL   H20426944   1.098   1.518   6.380  0.4645 -0.0093  0.7744
   71MOL   H20526945   1.104   1.355   6.318 -0.9062 -1.1207  1.9318
   71MOL   H20626946   1.248   1.458   6.562 -0.9301  0.2745 -0.0341
   71MOL   H20726947   1.278   1.304   6.491  0.0898  0.7690 -1.6952
   71MOL   H20826948   1.015   1.413   6.608  0.8849  0.6225 -0.7026
   71MOL   H20926949   1.021   1.255   6.527  0.4880 -0.1998 -0.3070
   71MOL   H21026950   1.120   1.301   6.684  0.5052 -0.2149 -0.6810
   71MOL   C21126951   1.346   1.786   6.233 -0.0436 -0.5539  0.0360
   71MOL   C21226952   1.249   1.864   6.325  0.1041 -0.0202  0.2883
   71MOL   O21326953   1.329   1.963   6.388 -0.2557  0.1144 -0.6342
   71MOL   C21426954   1.317   1.973   6.532 -0.0492  0.4067 -0.1526
   71MOL   C21526955   1.416   2.069   6.581  0.3165 -0.7956 -0.0252
   71MOL   C21626956   1.439   2.045   6.736 -0.2466 -0.4382 -0.1464
   71MOL   C21726957   1.543   2.136   6.796  0.2196  0.0977 -0.0055
   71MOL   H21826958   1.288   1.730   6.160  1.0473 -0.7525 -0.6969
   71MOL   H21926959   1.419   1.849   6.182 -0.6090 -1.4073 -1.8816
   71MOL   H22026960   1.202   1.798   6.397 -0.6694  0.2130 -0.0029
   71MOL   H22126961   1.218   2.011   6.557 -0.4741 -0.5348 -0.3635
   71MOL   H22226962   1.339   1.875   6.576 -1.4469 -0.3991 -1.1960
   71MOL   H22326963   1.506   2.047   6.523  1.1833  2.6419 -0.0900
   71MOL   H22426964   1.399   2.172   6.549  1.2067 -0.8340 -0.6381
   71MOL   H22526965   1.480   1.945   6.749  1.2156  0.0023 -1.3363
   71MOL   H22626966   1.352   2.065   6.799 -0.2224  0.6166 -0.4422
   71MOL   H22726967   1.571   2.106   6.897  1.8248  1.7704  0.0884
   71MOL   H22826968   1.514   2.240   6.784 -0.0802  0.2014  1.4569
   71MOL   H22926969   1.634   2.114   6.740  0.2584 -3.1205  1.1997
   71MOL   C23026970   1.136   1.942   6.249  0.2143 -1.1568  0.3042
   71MOL   C23126971   1.023   1.862   6.183  0.6334  0.9525  0.0404
   71MOL   O23226972   0.914   1.867   6.266 -0.5868 -0.3329 -0.2546
   71MOL   C23326973   0.885   1.753   6.349 -0.5522  0.2918  0.0980
   71MOL   C23426974   0.774   1.784   6.444  0.2532  0.4590 -0.0174
   71MOL   C23526975   0.759   1.674   6.563 -0.0594 -0.5672 -0.5244
   71MOL   C23626976   0.639   1.702   6.648 -0.5989  0.1120  0.3337
   71MOL   H23726977   1.188   2.009   6.181  0.3153 -0.3666  1.1414
   71MOL   H23826978   1.092   2.016   6.316  2.1098 -1.1231  1.5612
   71MOL   H23926979   1.068   1.765   6.165  0.1062  0.6586  0.3113
   71MOL   H24026980   0.852   1.663   6.297  0.1555  0.7951 -1.2434
   71MOL   H24126981   0.975   1.733   6.406  0.4639 -0.6736 -1.7898
   71MOL   H24226982   0.805   1.879   6.489  0.4068  0.6461 -0.5142
   71MOL   H24326983   0.677   1.818   6.408  0.3533  1.5103  0.6521
   71MOL   H24426984   0.851   1.679   6.621 -0.3967 -1.7541  0.1116
   71MOL   H24526985   0.767   1.570   6.531  1.6497 -1.6364  3.1739
   71MOL   H24626986   0.560   1.676   6.577  1.3568 -1.6229 -1.2935
   71MOL   H24726987   0.635   1.807   6.677  0.0732  0.5716 -1.1930
   71MOL   H24826988   0.631   1.629   6.729 -2.5932  1.5835  1.4840
   71MOL   C24926989   0.976   1.923   6.052  0.2825 -0.5844 -0.3252
   71MOL   C25026990   1.072   1.899   5.935 -0.0040 -0.8532 -0.2953
   71MOL   O25126991   1.059   1.989   5.826  0.0266 -0.8703  0.4419
   71MOL   C25226992   1.128   2.113   5.849  0.1977 -0.1177 -0.1253
   71MOL   C25326993   1.123   2.186   5.716 -0.1445  0.0825  0.0485
   71MOL   C25426994   1.251   2.179   5.627 -0.1194  0.4056 -0.5640
   71MOL   C25526995   1.236   2.246   5.485  0.7348 -0.5486  0.1016
   71MOL   H25626996   0.966   2.029   6.076 -2.1746 -0.8552 -0.0791
   71MOL   H25726997   0.878   1.881   6.029 -0.6416  1.1149  0.4129
   71MOL   H25826998   1.176   1.905   5.968 -0.1323  2.7373 -0.3183
   71MOL   H25926999   1.230   2.112   5.886  1.0789  0.8691 -2.4151
   71MOL   H26027000   1.077   2.178   5.919 -0.5121  1.3653 -1.9625
   71MOL   H26127001   1.041   2.141   5.660  0.1774  0.8426 -1.0391
   71MOL   H26227002   1.073   2.282   5.731  2.2084  1.3061  0.2383
   71MOL   H26327003   1.328   2.241   5.674  0.0538  0.9423 -1.5471
   71MOL   H26427004   1.287   2.077   5.618  1.9956  1.0469  0.0628
   71MOL   H26527005   1.148   2.206   5.433  0.1045  2.8825 -1.6011
   71MOL   H26627006   1.320   2.232   5.417  1.1350 -1.3005  0.7400
   71MOL   H26727007   1.226   2.354   5.493  1.0977 -0.5798  0.9737
   71MOL   C26827008   1.051   1.760   5.882  0.1336 -0.6084  0.1425
   71MOL   C26927009   1.124   1.719   5.760 -0.6344  0.7007  1.1638
   71MOL   O27027010   1.141   1.575   5.770  0.0102 -0.1554  0.3345
   71MOL   C27127011   1.253   1.544   5.846 -0.6687 -0.1891  0.6871
   71MOL   C27227012   1.281   1.395   5.853  0.0194 -0.5173 -0.4948
   71MOL   C27327013   1.177   1.329   5.945  0.0355  0.0943  0.3970
   71MOL   C27427014   1.235   1.211   6.025 -0.8293  0.6415 -0.1098
   71MOL   H27527015   1.063   1.684   5.959 -0.5810 -2.0524 -1.1544
   71MOL   H27627016   0.948   1.754   5.846 -0.2923 -1.4843  1.4748
   71MOL   H27727017   1.218   1.774   5.756 -0.0098 -0.3171  1.4620
   71MOL   H27827018   1.343   1.592   5.807 -0.5381 -1.7526 -1.0481
   71MOL   H27927019   1.253   1.586   5.946  1.3616 -1.1086  1.0966
   71MOL   H28027020   1.277   1.353   5.752  0.9732 -1.5932 -0.0951
   71MOL   H28127021   1.383   1.374   5.885  0.9710  2.6629 -1.2474
   71MOL   H28227022   1.092   1.305   5.881  0.8638 -2.9471  0.3881
   71MOL   H28327023   1.130   1.396   6.018  1.8437 -0.2437  1.9146
   71MOL   H28427024   1.321   1.235   6.087  1.5298 -0.5352 -2.7903
   71MOL   H28527025   1.259   1.121   5.968 -1.2593 -0.4487  1.4033
   71MOL   H28627026   1.156   1.170   6.087 -0.4452  3.5171  2.3721
   71MOL   C28727027   1.038   1.736   5.630 -0.1043  0.2753 -0.2886
   71MOL   C28827028   1.110   1.705   5.498  0.1817 -0.3169 -0.3394
   71MOL   O28927029   1.223   1.797   5.477 -0.6560 -0.5679 -0.0263
   71MOL   C29027030   1.342   1.751   5.410  0.0222 -0.5356  0.5612
   71MOL   C29127031   1.444   1.687   5.510  0.2399 -0.1236 -0.1999
   71MOL   C29227032   1.432   1.536   5.522 -0.5577  0.0747  0.5076
   71MOL   C29327033   1.534   1.485   5.619  0.3478 -0.0487  0.2261
   71MOL   H29427034   1.011   1.842   5.626  1.5143  0.6378 -2.2240
   71MOL   H29527035   0.943   1.682   5.635  0.9841 -1.6707 -0.5230
   71MOL   H29627036   1.163   1.610   5.499  0.2986 -0.2431  0.8546
   71MOL   H29727037   1.313   1.681   5.332 -0.7108 -0.2963  0.6187
   71MOL   H29827038   1.389   1.840   5.370  1.2608 -0.2286  2.6353
   71MOL   H29927039   1.434   1.734   5.608  0.9992  1.9893 -1.1343
   71MOL   H30027040   1.546   1.698   5.474  0.9499  0.5448  1.9301
   71MOL   H30127041   1.441   1.489   5.424  0.2991  0.9374  0.1679
   71MOL   H30227042   1.334   1.506   5.560 -1.6396  0.5098 -1.8570
   71MOL   H30327043   1.521   1.522   5.720 -0.7489  0.6533 -0.1638
   71MOL   H30427044   1.493   1.384   5.610 -0.6963  0.3126  0.9118
   71MOL   H30527045   1.641   1.484   5.598  0.1759  3.0794 -1.0365
   71MOL   C30627046   1.019   1.717   5.374  0.0096  0.3785  0.9207
   71MOL   C30727047   0.901   1.618   5.366  0.3310 -0.3533 -0.2203
   71MOL   O30827048   0.938   1.481   5.377 -0.5529  0.4315 -0.2590
   71MOL   C30927049   0.918   1.416   5.501  0.5975 -0.0767 -0.6297
   71MOL   C31027050   0.955   1.268   5.493  0.0623  0.3513 -0.2720
   71MOL   C31127051   0.939   1.198   5.627 -0.2117  0.1922 -0.2989
   71MOL   C31227052   0.919   1.051   5.601 -0.2535  0.3267 -0.0096
   71MOL   H31327053   0.989   1.817   5.345 -0.4041  0.5470  1.9153
   71MOL   H31427054   1.081   1.697   5.286 -1.9911  0.9233 -0.6351
   71MOL   H31527055   0.835   1.634   5.452  2.5692 -0.8792  1.6387
   71MOL   H31627056   0.813   1.419   5.530  0.9802  1.7110  0.6556
   71MOL   H31727057   0.987   1.460   5.573  2.1385 -0.1094 -2.0568
   71MOL   H31827058   1.054   1.261   5.448  0.7692  1.0711  1.1437
   71MOL   H31927059   0.890   1.212   5.426  0.7314 -0.3282 -0.3612
   71MOL   H32027060   1.031   1.217   5.681  0.7936 -1.5994 -1.3519
   71MOL   H32127061   0.858   1.244   5.685 -0.0671 -1.9576  1.6514
   71MOL   H32227062   0.992   1.006   5.533 -0.6515 -1.1106  0.4858
   71MOL   H32327063   0.821   1.033   5.556 -0.9029 -0.8218  1.7979
   71MOL   H32427064   0.935   0.991   5.691 -2.0279 -1.7560 -1.0217
   71MOL   C32527065   0.828   1.621   5.232  0.5345  0.3201  0.1478
   71MOL   C32627066   0.687   1.567   5.227 -0.2862  0.1767  0.2754
   71MOL   O32727067   0.614   1.644   5.315  0.4611 -0.3684 -0.0677
   71MOL   C32827068   0.564   1.587   5.432 -0.0121  0.4679 -0.1068
   71MOL   C32927069   0.512   1.707   5.522  0.6592  0.2263  0.4867
   71MOL   C33027070   0.391   1.663   5.612  0.7681  0.4269  0.0880
   71MOL   C33127071   0.342   1.765   5.708 -0.3267 -0.2967  0.1403
   71MOL   H33227072   0.876   1.548   5.167 -0.2741 -0.4084  0.3549
   71MOL   H33327073   0.824   1.723   5.192  0.0834 -0.2147 -1.2091
   71MOL   H33427074   0.683   1.462   5.254 -1.0992 -0.0433 -0.6731
   71MOL   H33527075   0.636   1.523   5.481 -1.1824 -1.9180 -1.4017
   71MOL   H33627076   0.484   1.520   5.399 -1.3111  1.8565  0.1624
   71MOL   H33727077   0.592   1.756   5.578  1.4501 -0.0636 -0.3716
   71MOL   H33827078   0.465   1.774   5.451  0.6740  0.6625  0.8838
   71MOL   H33927079   0.417   1.574   5.669  0.0837  0.2956  0.2077
   71MOL   H34027080   0.303   1.643   5.551 -0.4798  1.2795  1.5725
   71MOL   H34127081   0.312   1.855   5.656 -0.3428  0.0131  0.6810
   71MOL   H34227082   0.385   1.783   5.806 -1.9450 -4.2290  1.7115
   71MOL   H34327083   0.245   1.732   5.745 -1.7319  1.4416 -1.8661
   71MOL   C34427084   0.622   1.574   5.086 -0.1138 -0.0460  0.2878
   71MOL   C34527085   0.700   1.511   4.973  0.0301  0.4003  0.2122
   71MOL   O34627086   0.772   1.393   5.003 -0.4226  0.5510  0.1234
   71MOL   C34727087   0.679   1.286   5.015  0.3714  0.3179 -0.0835
   71MOL   C34827088   0.742   1.168   4.941  0.0471 -0.0927 -0.5542
   71MOL   C34927089   0.710   1.179   4.788 -0.2887 -0.0788 -0.8212
   71MOL   C35027090   0.791   1.092   4.699  0.1243 -0.4884 -0.1308
   71MOL   H35127091   0.526   1.522   5.081 -1.8149  2.6564  2.9353
   71MOL   H35227092   0.599   1.679   5.068  3.6306  0.6276 -0.8861
   71MOL   H35327093   0.629   1.499   4.891  1.6060 -2.7280 -0.7309
   71MOL   H35427094   0.582   1.297   4.966  0.9143 -1.7812 -1.7578
   71MOL   H35527095   0.679   1.274   5.123 -1.6890  0.5125 -0.0385
   71MOL   H35627096   0.709   1.071   4.978 -0.8448  0.2419 -0.4589
   71MOL   H35727097   0.849   1.162   4.962 -0.0425 -1.0512 -0.3401
   71MOL   H35827098   0.604   1.155   4.773  0.2220 -2.5376 -0.7664
   71MOL   H35927099   0.723   1.284   4.762  1.2548 -0.1920 -0.5305
   71MOL   H36027100   0.895   1.090   4.731  0.4420  0.3524 -1.0752
   71MOL   H36127101   0.777   1.119   4.594  0.6063  3.1839  0.6557
   71MOL   H36227102   0.772   0.985   4.708  2.3421 -1.0340 -1.4474
   71MOL   C36327103   0.800   1.607   4.902  0.9369 -0.4620  0.2244
   71MOL   C36427104   0.863   1.540   4.781 -0.0125  0.1992  0.6613
   71MOL   O36527105   0.764   1.534   4.679  0.1101  0.2727  0.1662
   71MOL   C36627106   0.798   1.482   4.558 -0.2481  1.0789  0.1009
   71MOL   C36727107   0.805   1.584   4.441 -0.2695 -0.4726 -0.5552
   71MOL   C36827108   0.673   1.642   4.413 -0.3203  0.0228 -0.2638
   71MOL   C36927109   0.652   1.706   4.273  0.1340  0.2337  0.6999
   71MOL   H37027110   0.879   1.648   4.965  1.7033 -0.0701 -0.9886
   71MOL   H37127111   0.746   1.694   4.863  1.3076 -0.1273  0.4546
   71MOL   H37227112   0.896   1.442   4.816  1.5582  0.1391 -0.9109
   71MOL   H37327113   0.715   1.413   4.541 -1.0691  1.9768  0.3678
   71MOL   H37427114   0.890   1.426   4.570  1.6692  3.7523 -1.3352
   71MOL   H37527115   0.851   1.545   4.350 -0.6820 -1.1751 -0.4690
   71MOL   H37627116   0.875   1.662   4.470 -1.1344  0.1873 -0.1837
   71MOL   H37727117   0.646   1.710   4.493 -2.9049 -0.2791 -0.8079
   71MOL   H37827118   0.595   1.565   4.421  0.5860 -0.6212  2.9630
   71MOL   H37927119   0.656   1.620   4.206 -1.2961  1.0455 -0.4542
   71MOL   H38027120   0.556   1.752   4.250  0.2261 -0.8245 -1.8638
   71MOL   H38127121   0.728   1.777   4.241  0.2147 -0.5404 -0.8466
   71MOL   H38227122   0.946   1.599   4.742 -0.4366  0.8800  0.7960
   72MOL     C127123   3.174   4.291   4.781  0.2008 -0.4579  0.9976
   72MOL     C227124   3.165   4.162   4.693  0.2617 -0.2908 -0.9536
   72MOL     O327125   3.217   4.061   4.787  0.1156  0.2877 -0.3226
   72MOL     C427126   3.364   4.051   4.790  0.1444  0.2197 -0.0678
   72MOL     C527127   3.406   3.931   4.876  0.1124 -0.3199 -0.3871
   72MOL     C627128   3.386   3.965   5.020 -0.5583  0.5169 -0.3312
   72MOL     C727129   3.460   3.872   5.120 -0.8801  0.4220 -0.5810
   72MOL     H827130   3.102   4.368   4.754  1.5197  1.0064  1.5012
   72MOL     H927131   3.152   4.255   4.881  2.9058 -1.1445  1.3866
   72MOL    H1027132   3.224   4.180   4.602 -0.3769  2.9601 -0.7636
   72MOL    H1127133   3.381   4.027   4.685 -2.0394  0.1646 -0.4315
   72MOL    H1227134   3.412   4.144   4.821 -1.2211  1.2127 -0.8426
   72MOL    H1327135   3.510   3.906   4.852  0.2552  1.5564 -1.7708
   72MOL    H1427136   3.346   3.845   4.847  1.0214 -1.2063  0.3217
   72MOL    H1527137   3.278   3.964   5.038 -0.3581 -3.0472  0.9038
   72MOL    H1627138   3.423   4.065   5.043 -0.1151 -0.1468  1.9091
   72MOL    H1727139   3.438   3.768   5.095  3.1211 -1.7604  4.0445
   72MOL    H1827140   3.446   3.910   5.221  0.9489  1.1175 -0.5628
   72MOL    H1927141   3.567   3.879   5.101 -1.3401  1.8093 -2.8627
   72MOL    H2027142   3.270   4.341   4.798  0.0310 -0.6099  2.4666
   72MOL    C2127143   3.019   4.124   4.665  0.3036 -0.4520 -0.5114
   72MOL    C2227144   2.979   3.994   4.588  0.6195 -0.0882  0.1043
   72MOL    O2327145   2.842   3.952   4.620  0.1008  0.3705 -0.0003
   72MOL    C2427146   2.851   3.858   4.728  0.5834 -0.2524  0.4187
   72MOL    C2527147   2.717   3.800   4.752  0.1843  0.4083 -0.1344
   72MOL    C2627148   2.666   3.722   4.625 -0.0594  0.7423  0.7217
   72MOL    C2727149   2.522   3.672   4.634  0.2634  0.5050 -0.1313
   72MOL    H2827150   2.957   4.205   4.626  0.8414 -0.6903 -1.9063
   72MOL    H2927151   2.964   4.110   4.758 -1.9553 -2.0061 -2.0369
   72MOL    H3027152   3.047   3.913   4.613  1.1508  0.2804 -0.1459
   72MOL    H3127153   2.883   3.900   4.823 -2.6342  1.1306  0.9668
   72MOL    H3227154   2.918   3.775   4.707  1.8960  0.1359  2.8377
   72MOL    H3327155   2.730   3.735   4.838  4.0937  1.8739  0.4902
   72MOL    H3427156   2.649   3.880   4.780  1.3277  0.8656  1.4005
   72MOL    H3527157   2.683   3.793   4.544  0.2388  0.5464  0.6098
   72MOL    H3627158   2.725   3.638   4.588  1.6274  3.2535 -2.5124
   72MOL    H3727159   2.486   3.626   4.542 -1.6555 -0.5265  1.0973
   72MOL    H3827160   2.502   3.601   4.715 -0.3926  1.4631  0.5575
   72MOL    H3927161   2.456   3.757   4.651 -0.4381 -0.2844  1.2440
   72MOL    C4027162   2.960   4.018   4.433  0.8747 -0.4054 -0.3111
   72MOL    C4127163   2.941   3.886   4.347 -0.4275 -0.5007 -0.2619
   72MOL    O4227164   3.066   3.818   4.367 -0.3584  0.3292  0.2183
   72MOL    C4327165   3.054   3.684   4.411  0.7787  0.2525  0.2937
   72MOL    C4427166   3.188   3.628   4.454  0.7569  0.0649 -0.5006
   72MOL    C4527167   3.256   3.705   4.566 -0.2865 -0.3395 -0.4302
   72MOL    C4627168   3.390   3.655   4.623 -0.0905 -0.1385 -0.2309
   72MOL    H4727169   3.054   4.056   4.393  0.7075 -1.3271 -1.6229
   72MOL    H4827170   2.881   4.088   4.405 -0.1724 -2.2541 -2.1747
   72MOL    H4927171   2.846   3.839   4.371  1.0656 -2.5573  1.8998
   72MOL    H5027172   3.030   3.622   4.325 -0.8263 -0.9981  1.6172
   72MOL    H5127173   2.978   3.663   4.486 -0.2234 -0.2700 -0.8610
   72MOL    H5227174   3.253   3.629   4.366 -1.0956  0.8143 -1.9006
   72MOL    H5327175   3.180   3.524   4.483 -4.6759  0.2701 -0.7800
   72MOL    H5427176   3.181   3.714   4.645 -1.3549 -1.3158 -1.3235
   72MOL    H5527177   3.268   3.810   4.540  0.8516 -0.5353 -0.7049
   72MOL    H5627178   3.426   3.738   4.684 -0.7482  1.6342 -2.1933
   72MOL    H5727179   3.387   3.557   4.670 -0.7384  1.0909  2.3818
   72MOL    H5827180   3.458   3.627   4.543 -0.5045 -3.8495  0.6288
   72MOL    C5927181   2.944   3.923   4.198 -0.0049  0.3660 -0.8840
   72MOL    C6027182   2.894   3.813   4.103  0.0435 -0.0945  0.1965
   72MOL    O6127183   2.759   3.800   4.141  0.6962  0.2419  0.2955
   72MOL    C6227184   2.711   3.667   4.180  0.3503  0.4932  0.2840
   72MOL    C6327185   2.573   3.695   4.251  0.4267 -0.2314 -0.0758
   72MOL    C6427186   2.466   3.755   4.157  0.4487 -0.0540  0.5504
   72MOL    C6527187   2.411   3.662   4.043  0.0696 -0.2298  0.4865
   72MOL    H6627188   2.897   4.020   4.183 -1.3381 -0.4224 -1.9346
   72MOL    H6727189   3.044   3.940   4.157  0.1725  0.1309 -0.5515
   72MOL    H6827190   2.954   3.724   4.120  1.3011  0.6802 -0.1448
   72MOL    H6927191   2.795   3.631   4.240  2.0140  1.7756 -1.2169
   72MOL    H7027192   2.705   3.605   4.090  0.2526 -0.7342  1.1240
   72MOL    H7127193   2.531   3.605   4.298  0.2337  0.0862  0.3694
   72MOL    H7227194   2.595   3.767   4.330  0.0334 -0.6294  0.4068
   72MOL    H7327195   2.381   3.779   4.220 -1.2737 -4.9496  0.3232
   72MOL    H7427196   2.521   3.842   4.120 -1.6568  0.7556 -0.7266
   72MOL    H7527197   2.386   3.566   4.089 -2.0934 -0.3077 -0.7858
   72MOL    H7627198   2.321   3.683   3.986  1.4638  0.8258 -1.3928
   72MOL    H7727199   2.487   3.632   3.970 -0.2962  0.5731 -0.2308
   72MOL    C7827200   2.896   3.859   3.957 -0.1544  0.4120 -0.0877
   72MOL    C7927201   2.852   3.756   3.843 -0.3696 -0.4154 -0.8045
   72MOL    O8027202   2.901   3.629   3.885  1.1748 -0.1307 -0.0079
   72MOL    C8127203   3.046   3.602   3.882 -0.0778 -0.0789  0.0026
   72MOL    C8227204   3.070   3.469   3.950  0.1678  0.0666  0.2344
   72MOL    C8327205   3.039   3.356   3.853  0.2849  0.2075 -0.0144
   72MOL    C8427206   3.029   3.222   3.923  0.0718  0.2716 -0.3380
   72MOL    H8527207   2.997   3.897   3.945  0.8224 -2.2332 -0.5798
   72MOL    H8627208   2.826   3.940   3.935  0.8918  0.9358 -1.5717
   72MOL    H8727209   2.744   3.756   3.836 -0.4828  0.8001  0.7250
   72MOL    H8827210   3.104   3.684   3.924  1.0026  1.1491 -3.6101
   72MOL    H8927211   3.071   3.601   3.776 -1.9865  1.7600 -0.5098
   72MOL    H9027212   3.172   3.473   3.990  0.3509 -0.0952 -0.2132
   72MOL    H9127213   3.005   3.486   4.035  1.5694 -0.2975  1.4074
   72MOL    H9227214   3.116   3.354   3.776 -1.8673 -0.0423 -2.2462
   72MOL    H9327215   2.942   3.377   3.808 -0.1370 -0.7502  0.4464
   72MOL    H9427216   2.957   3.223   4.005  0.7558  1.2406  0.2601
   72MOL    H9527217   2.992   3.148   3.852 -3.1390  0.7605  0.7470
   72MOL    H9627218   3.123   3.184   3.963  0.4423  3.0881  1.6081
   72MOL    C9727219   2.892   3.799   3.702  0.2552 -0.0913  0.2897
   72MOL    C9827220   2.869   3.702   3.580 -0.3552  0.2736 -0.2906
   72MOL    O9927221   2.733   3.727   3.534 -0.1681  0.3184  0.0849
   72MOL   C10027222   2.640   3.633   3.590 -0.2760 -0.1292  0.9751
   72MOL   C10127223   2.511   3.631   3.511  0.1163  0.0947  0.7344
   72MOL   C10227224   2.511   3.573   3.366  0.6763 -0.4880 -0.3411
   72MOL   C10327225   2.534   3.421   3.372 -0.7035  0.0926  0.2162
   72MOL   H10427226   2.998   3.822   3.714 -0.4325  3.0710  0.6316
   72MOL   H10527227   2.853   3.898   3.681  0.2220  0.7931  4.1943
   72MOL   H10627228   2.889   3.600   3.612 -2.4218 -0.0899 -0.0944
   72MOL   H10727229   2.611   3.669   3.689 -0.8527 -0.5510  0.9617
   72MOL   H10827230   2.679   3.532   3.603 -0.3829 -0.1389  1.2191
   72MOL   H10927231   2.478   3.733   3.491 -0.5022 -0.0180  1.1743
   72MOL   H11027232   2.430   3.578   3.562 -0.5755  0.1434 -0.3141
   72MOL   H11127233   2.582   3.616   3.296  0.6921 -0.3451 -0.2364
   72MOL   H11227234   2.421   3.600   3.310  1.7151 -0.3089 -1.9646
   72MOL   H11327235   2.551   3.385   3.270 -1.1723  0.9276 -0.1588
   72MOL   H11427236   2.612   3.390   3.442  0.1996 -0.2145 -0.9107
   72MOL   H11527237   2.448   3.374   3.419 -1.3714 -1.5705 -2.5821
   72MOL   C11627238   2.954   3.749   3.457  0.1523  0.4309 -0.4152
   72MOL   C11727239   2.958   3.649   3.342  0.4031  0.5545 -0.3437
   72MOL   O11827240   2.979   3.714   3.215  0.3021  0.2054 -0.8997
   72MOL   C11927241   2.875   3.799   3.169  0.2735  0.1573 -0.2104
   72MOL   C12027242   2.899   3.816   3.020  0.1239 -0.1972  0.1818
   72MOL   C12127243   2.791   3.899   2.949 -0.1609  0.6652 -0.2261
   72MOL   C12227244   2.823   4.048   2.970 -0.0246 -0.4661 -0.3405
   72MOL   H12327245   2.908   3.844   3.429 -0.5457  0.5089  0.9517
   72MOL   H12427246   3.055   3.780   3.486  0.1369 -0.2024  0.3226
   72MOL   H12527247   2.861   3.602   3.334  0.1374  0.9203  0.6763
   72MOL   H12627248   2.878   3.892   3.226  0.6139 -1.1419  1.9596
   72MOL   H12727249   2.776   3.756   3.181 -0.5077  2.0841  0.4370
   72MOL   H12827250   2.897   3.710   2.994  2.1523 -0.9753  2.9382
   72MOL   H12927251   2.995   3.860   2.993 -0.8519  1.8340 -0.1103
   72MOL   H13027252   2.802   3.877   2.843 -1.6439 -0.2420 -0.2050
   72MOL   H13127253   2.692   3.867   2.983  0.2768  0.9097  1.3452
   72MOL   H13227254   2.786   4.067   3.071 -2.5405 -0.0500 -1.3026
   72MOL   H13327255   2.761   4.108   2.903 -1.7191 -0.4222  1.2228
   72MOL   H13427256   2.928   4.077   2.962  0.1865 -0.7154  1.2751
   72MOL   C13527257   3.059   3.536   3.368 -0.3137  0.7744 -0.1688
   72MOL   C13627258   3.058   3.425   3.262  0.3876 -0.8621  0.3068
   72MOL   O13727259   3.179   3.421   3.187 -0.3060 -0.6893 -0.0843
   72MOL   C13827260   3.183   3.497   3.061 -0.2036 -0.8183 -0.0301
   72MOL   C13927261   3.320   3.470   2.997  0.2814  0.5444  0.7143
   72MOL   C14027262   3.330   3.531   2.860 -0.8205 -0.0179 -0.1315
   72MOL   C14127263   3.253   3.460   2.752  0.1621  0.5823 -0.2780
   72MOL   H14227264   3.030   3.492   3.463 -0.4528 -0.5653 -0.8179
   72MOL   H14327265   3.159   3.577   3.383 -0.0543  0.9768 -2.3083
   72MOL   H14427266   2.971   3.433   3.197  1.1897 -3.9230 -1.2254
   72MOL   H14527267   3.152   3.600   3.076 -1.1968 -1.1217  0.0981
   72MOL   H14627268   3.106   3.443   3.005  1.1178 -2.2056 -0.5479
   72MOL   H14727269   3.357   3.368   2.984 -1.2810  0.3445 -2.7846
   72MOL   H14827270   3.391   3.520   3.063  1.7983 -1.5434  0.7292
   72MOL   H14927271   3.299   3.635   2.861 -0.9998 -0.0359 -1.9072
   72MOL   H15027272   3.434   3.527   2.828 -0.4788  0.0739  0.9445
   72MOL   H15127273   3.278   3.500   2.653 -0.4442  1.5063 -0.0607
   72MOL   H15227274   3.279   3.354   2.755 -3.4498 -0.3237  0.5310
   72MOL   H15327275   3.145   3.472   2.758  0.3695  1.9612  0.9849
   72MOL   C15427276   3.047   3.292   3.322 -0.3174  0.4478 -0.1357
   72MOL   C15527277   3.026   3.174   3.222 -0.2939  0.6548 -0.5089
   72MOL   O15627278   2.888   3.185   3.182  0.3096  0.3402  0.4761
   72MOL   C15727279   2.864   3.247   3.060  0.4844 -0.7290 -0.0952
   72MOL   C15827280   2.729   3.325   3.062  0.1758  1.1648  0.1158
   72MOL   C15927281   2.715   3.418   2.944  0.1488 -0.1935 -0.4395
   72MOL   C16027282   2.588   3.494   2.949  0.2425 -0.3974 -0.1715
   72MOL   H16127283   2.973   3.281   3.401 -0.6639  1.6165 -0.2873
   72MOL   H16227284   3.146   3.298   3.367 -0.1223 -0.6218 -0.4221
   72MOL   H16327285   3.090   3.186   3.135 -1.1780  2.6359 -0.9246
   72MOL   H16427286   2.943   3.316   3.031  0.9038 -1.2075 -0.1069
   72MOL   H16527287   2.870   3.168   2.985 -0.5810 -2.3982  1.5189
   72MOL   H16627288   2.736   3.379   3.156 -0.8833  1.6952 -0.0988
   72MOL   H16727289   2.641   3.262   3.082  1.7471 -1.3637 -0.6830
   72MOL   H16827290   2.791   3.496   2.943  2.3859 -2.2830  0.6086
   72MOL   H16927291   2.736   3.372   2.847  2.1326  0.0515 -0.1479
   72MOL   H17027292   2.589   3.565   2.866  2.1259 -1.4407 -1.0984
   72MOL   H17127293   2.501   3.430   2.932  0.3595 -0.5266 -0.2947
   72MOL   H17227294   2.582   3.558   3.037  1.5806 -0.4023 -0.0611
   72MOL   C17327295   3.044   3.035   3.289  0.1046  1.3333  0.4272
   72MOL   C17427296   3.040   2.907   3.193  0.2131  0.2238 -0.6589
   72MOL   O17527297   3.164   2.887   3.125  0.1418 -0.1145  0.5139
   72MOL   C17627298   3.173   2.946   2.994  0.0464  0.1790 -0.1384
   72MOL   C17727299   3.292   2.880   2.918 -0.7150 -0.5550  0.1267
   72MOL   C17827300   3.420   2.871   3.011  0.2035 -0.8367  0.1123
   72MOL   C17927301   3.544   2.790   2.949  0.8817  0.0772  0.3132
   72MOL   H18027302   2.968   3.031   3.366 -1.1239 -2.4755 -0.8583
   72MOL   H18127303   3.141   3.027   3.338  1.5050 -2.2347 -2.6354
   72MOL   H18227304   2.953   2.914   3.128 -1.0170 -1.2898  0.7542
   72MOL   H18327305   3.180   3.054   2.985 -0.3204  0.3445  1.4924
   72MOL   H18427306   3.075   2.933   2.949 -0.9988  0.2647  2.0551
   72MOL   H18527307   3.328   2.943   2.836 -1.6822  0.8973  0.7984
   72MOL   H18627308   3.266   2.781   2.880 -2.0757  0.5472 -1.9559
   72MOL   H18727309   3.451   2.975   3.026  2.2753 -1.4361  0.1958
   72MOL   H18827310   3.399   2.816   3.102 -0.8025 -0.9904 -0.2157
   72MOL   H18927311   3.509   2.715   2.877 -1.0261  3.4275 -2.4124
   72MOL   H19027312   3.593   2.867   2.889 -0.7441  0.4804 -0.5358
   72MOL   H19127313   3.612   2.745   3.021 -0.6655 -0.8618  1.2123
   72MOL   C19227314   3.027   2.783   3.281  0.6871  0.3847  0.6867
   72MOL   C19327315   3.072   2.647   3.200 -0.4639 -0.0594 -0.1614
   72MOL   O19427316   3.034   2.537   3.279  0.8852 -0.3522 -0.2374
   72MOL   C19527317   3.128   2.492   3.370  0.1282 -0.0107 -0.0263
   72MOL   C19627318   3.071   2.367   3.449 -0.1470  0.0236  0.0131
   72MOL   C19727319   2.949   2.414   3.534  0.4241 -0.2042  0.3180
   72MOL   C19827320   2.911   2.312   3.644 -0.3749 -0.3116  0.1692
   72MOL   H19927321   2.926   2.773   3.321  0.0270 -2.0010 -1.4600
   72MOL   H20027322   3.101   2.791   3.361  2.2763 -0.6358 -0.6454
   72MOL   H20127323   3.180   2.639   3.184 -0.6381 -1.2444 -0.8161
   72MOL   H20227324   3.172   2.570   3.432  0.6527  0.2969 -0.7741
   72MOL   H20327325   3.216   2.467   3.310  0.9568  1.3695  0.5973
   72MOL   H20427326   3.049   2.283   3.382  2.6022 -0.9242  0.2231
   72MOL   H20527327   3.135   2.333   3.530 -0.4321  0.1815  0.3051
   72MOL   H20627328   2.863   2.429   3.468 -0.1012  2.9141  1.6450
   72MOL   H20727329   2.976   2.513   3.570 -0.6266  0.2389 -0.0748
   72MOL   H20827330   2.984   2.315   3.725  1.8190 -3.4829 -1.5869
   72MOL   H20927331   2.816   2.337   3.692  0.4541 -0.7842  2.0957
   72MOL   H21027332   2.917   2.206   3.621 -2.1393 -0.6433  1.1552
   72MOL   C21127333   2.995   2.627   3.070 -0.0290  0.0455  0.7613
   72MOL   C21227334   3.028   2.493   2.999  0.3085  0.0603 -0.4643
   72MOL   O21327335   2.932   2.465   2.905 -0.2282 -0.0945 -0.5064
   72MOL   C21427336   2.849   2.355   2.931  0.4498 -0.3171  0.1102
   72MOL   C21527337   2.759   2.363   2.812  0.3256 -0.0700 -0.0209
   72MOL   C21627338   2.826   2.360   2.677 -0.3333 -0.4532 -0.2239
   72MOL   C21727339   2.732   2.372   2.559  0.0222 -0.2651  0.3587
   72MOL   H21827340   3.013   2.714   3.007  0.2464 -0.2697  0.4040
   72MOL   H21927341   2.892   2.640   3.103 -0.4279  0.9742 -0.7762
   72MOL   H22027342   3.046   2.413   3.070  2.2815  0.9351  0.0381
   72MOL   H22127343   2.910   2.265   2.918  1.4662  0.5285 -1.2500
   72MOL   H22227344   2.795   2.371   3.024 -1.6425 -1.5733 -0.8573
   72MOL   H22327345   2.674   2.294   2.809  0.8200 -0.6826 -0.1327
   72MOL   H22427346   2.712   2.461   2.822 -1.2944 -0.9498  1.2878
   72MOL   H22527347   2.888   2.271   2.667 -1.2062 -1.1967  0.7822
   72MOL   H22627348   2.899   2.441   2.672 -0.8686  0.0787  0.4862
   72MOL   H22727349   2.767   2.323   2.468  3.1959 -1.2445  2.0323
   72MOL   H22827350   2.707   2.476   2.537 -2.9193 -1.1922 -0.9684
   72MOL   H22927351   2.631   2.338   2.580 -0.1530  0.4126  0.6260
   72MOL   C23027352   3.166   2.500   2.921  0.4010 -0.3372  0.1078
   72MOL   C23127353   3.211   2.367   2.859 -0.1236  0.4446  0.1266
   72MOL   O23227354   3.327   2.403   2.779 -0.3970 -0.0978  0.1352
   72MOL   C23327355   3.303   2.407   2.635  0.1004 -0.0945 -0.1551
   72MOL   C23427356   3.430   2.475   2.585  0.5021  0.4849  0.3640
   72MOL   C23527357   3.415   2.627   2.586 -0.7809 -0.2336  0.3054
   72MOL   C23627358   3.541   2.699   2.546  0.0569 -0.5734 -1.2495
   72MOL   H23727359   3.246   2.537   2.986  1.5669  1.6637 -2.3946
   72MOL   H23827360   3.175   2.578   2.846  1.9439 -0.4109  0.1920
   72MOL   H23927361   3.139   2.321   2.791  0.6883 -1.7135  0.6801
   72MOL   H24027362   3.281   2.309   2.593  1.8693 -0.3464 -0.5377
   72MOL   H24127363   3.216   2.466   2.606  1.7643  2.4580 -0.1005
   72MOL   H24227364   3.521   2.452   2.640 -0.3517 -1.1903  1.0900
   72MOL   H24327365   3.442   2.452   2.479  2.0976 -1.8890  1.0197
   72MOL   H24427366   3.383   2.656   2.686  0.1010 -1.5425  0.9753
   72MOL   H24527367   3.328   2.662   2.529 -0.0223  1.4404  0.1450
   72MOL   H24627368   3.633   2.657   2.585  0.9656  1.4418 -1.1817
   72MOL   H24727369   3.542   2.803   2.579  1.0238 -1.1646  0.6915
   72MOL   H24827370   3.562   2.692   2.439  1.2991 -0.1827 -1.0397
   72MOL   C24927371   3.265   2.263   2.961 -0.3144  0.4699 -0.2441
   72MOL   C25027372   3.281   2.118   2.889 -0.8283  0.0956  0.4467
   72MOL   O25127373   3.151   2.068   2.859  0.6720  0.0274 -0.3045
   72MOL   C25227374   3.126   2.000   2.731 -0.2593 -0.2136 -0.5780
   72MOL   C25327375   3.001   1.912   2.751  0.7518 -0.2058  0.0714
   72MOL   C25427376   3.015   1.811   2.863 -0.2828 -0.0548 -0.0993
   72MOL   C25527377   2.884   1.781   2.930  0.6882  0.3493  0.3579
   72MOL   H25627378   3.202   2.254   3.050  0.9422  2.3206  0.8709
   72MOL   H25727379   3.363   2.300   2.989 -0.9093  0.3383  2.1677
   72MOL   H25827380   3.332   2.116   2.792  0.8192 -1.0504  1.3229
   72MOL   H25927381   3.212   1.944   2.695 -0.4778 -1.0906  0.2551
   72MOL   H26027382   3.106   2.077   2.656 -0.6048 -0.7707 -1.0591
   72MOL   H26127383   2.909   1.966   2.771  0.7282  0.3689 -1.5139
   72MOL   H26227384   2.974   1.868   2.655  0.4740 -0.6515  0.3544
   72MOL   H26327385   3.063   1.724   2.819  0.7328 -0.1027  1.1127
   72MOL   H26427386   3.085   1.839   2.942 -0.7198  0.1800  0.2078
   72MOL   H26527387   2.816   1.713   2.879 -3.1204  2.7775  1.9099
   72MOL   H26627388   2.822   1.870   2.943  1.4606  1.1616 -1.3846
   72MOL   H26727389   2.888   1.736   3.029 -0.6141  0.0639  0.2904
   72MOL   C26827390   3.348   2.021   2.991 -0.3306  0.9251 -0.3347
   72MOL   C26927391   3.503   2.025   2.978 -0.0918 -0.2715  0.7311
   72MOL   O27027392   3.560   2.023   3.110  0.0101  0.5326 -0.3400
   72MOL   C27127393   3.588   2.145   3.175 -0.2071 -0.2409 -0.3977
   72MOL   C27227394   3.567   2.126   3.331 -0.0718 -0.1667  0.0562
   72MOL   C27327395   3.426   2.103   3.374  0.1387  0.5459  0.1264
   72MOL   C27427396   3.403   2.120   3.525  0.2814 -0.1127 -0.6315
   72MOL   H27527397   3.334   2.059   3.092 -0.6979 -0.3897  0.1192
   72MOL   H27627398   3.304   1.922   2.994 -0.2140  0.9220  3.7695
   72MOL   H27727399   3.532   2.120   2.934 -0.2983 -0.3150  0.5002
   72MOL   H27827400   3.688   2.171   3.142 -0.6286 -0.2569 -1.7528
   72MOL   H27927401   3.521   2.222   3.137  0.3986 -0.5626 -2.1751
   72MOL   H28027402   3.629   2.038   3.349  0.8099  0.3522 -0.4405
   72MOL   H28127403   3.611   2.202   3.396 -3.2662  1.6779  0.1712
   72MOL   H28227404   3.393   2.006   3.336 -2.7511  1.4042  0.3651
   72MOL   H28327405   3.363   2.177   3.325  1.3731  2.1430  0.9016
   72MOL   H28427406   3.430   2.217   3.567  0.1268 -0.4398  0.2265
   72MOL   H28527407   3.460   2.044   3.578  1.8605  0.7739 -1.0239
   72MOL   H28627408   3.300   2.103   3.556  0.7084 -0.5063  0.6109
   72MOL   C28727409   3.571   1.916   2.888 -0.1214  0.3626  0.6790
   72MOL   C28827410   3.711   1.955   2.837 -0.2108 -0.4262  0.6381
   72MOL   O28927411   3.710   1.990   2.697 -0.2350  0.3818 -0.9589
   72MOL   C29027412   3.644   2.110   2.670  0.1102 -0.1662  0.2840
   72MOL   C29127413   3.688   2.171   2.536 -0.4042 -0.0860 -0.8304
   72MOL   C29227414   3.650   2.094   2.415 -0.6672  0.3007 -0.0351
   72MOL   C29327415   3.701   2.151   2.287 -0.2979 -0.4539  0.3747
   72MOL   H29427416   3.494   1.892   2.814 -1.3994  3.1657  1.0340
   72MOL   H29527417   3.579   1.823   2.945  0.8064  0.2856  0.4267
   72MOL   H29627418   3.760   2.039   2.886  1.7193 -1.4339  0.5001
   72MOL   H29727419   3.536   2.098   2.684  0.1440 -0.4483  0.3115
   72MOL   H29827420   3.671   2.192   2.736  2.2374 -0.3741 -0.3158
   72MOL   H29927421   3.791   2.206   2.527 -0.0332 -1.3099 -1.4495
   72MOL   H30027422   3.633   2.265   2.534 -0.6388 -0.1148  1.9499
   72MOL   H30127423   3.543   2.097   2.396 -0.9172 -0.9408  1.1330
   72MOL   H30227424   3.686   1.992   2.432 -1.4054  0.0492  0.0181
   72MOL   H30327425   3.803   2.188   2.280 -0.4373 -0.0855  0.2745
   72MOL   H30427426   3.694   2.081   2.204  1.0929  0.0956 -0.2145
   72MOL   H30527427   3.637   2.239   2.275  0.3190  0.2413  2.0155
   72MOL   C30627428   3.814   1.842   2.833  0.5887  0.3222  0.9252
   72MOL   C30727429   3.884   1.818   2.968  0.4770 -0.0900 -0.2605
   72MOL   O30827430   3.965   1.934   3.011 -0.9038  0.2884 -0.0941
   72MOL   C30927431   3.973   1.946   3.152 -0.2854 -1.1574 -0.4093
   72MOL   C31027432   4.066   2.067   3.172  0.1300  0.5981 -0.8637
   72MOL   C31127433   4.211   2.041   3.107 -0.2934  0.5904  0.3375
   72MOL   C31227434   4.310   2.156   3.128 -0.0376 -0.2628 -0.1782
   72MOL   H31327435   3.755   1.758   2.797 -0.9137  2.3089 -1.4234
   72MOL   H31427436   3.883   1.863   2.752  1.3948  1.8227  1.9698
   72MOL   H31527437   3.809   1.785   3.040 -0.2021  0.4667 -0.7054
   72MOL   H31627438   4.009   1.856   3.202 -1.9265 -2.2020 -1.0195
   72MOL   H31727439   3.878   1.978   3.196  0.2997 -0.4149  0.3133
   72MOL   H31827440   4.065   2.088   3.279  1.3830  0.4626 -0.8191
   72MOL   H31927441   4.018   2.156   3.131 -0.5757  0.8665  0.5163
   72MOL   H32027442   4.245   1.940   3.131  2.4572  1.7815  1.7215
   72MOL   H32127443   4.198   2.042   2.999 -1.9632  0.1310  0.5178
   72MOL   H32227444   4.268   2.256   3.116  0.8118  0.1278 -0.0103
   72MOL   H32327445   4.397   2.151   3.062 -0.1487  0.9194 -0.4279
   72MOL   H32427446   4.348   2.152   3.230 -1.8917 -0.8311  0.5054
   72MOL   C32527447   3.994   1.710   2.960  0.1054  0.7966  0.9570
   72MOL   C32627448   3.965   1.566   2.913  0.0006  0.9548 -0.0101
   72MOL   O32727449   4.089   1.500   2.908 -0.5119 -0.0951  0.0637
   72MOL   C32827450   4.164   1.513   2.790  0.1470 -0.2739  0.4645
   72MOL   C32927451   4.289   1.423   2.780 -0.5950  0.3211  0.3617
   72MOL   C33027452   4.412   1.460   2.858  0.8368  0.3909 -0.1676
   72MOL   C33127453   4.520   1.347   2.866 -0.5060 -0.5233  0.5323
   72MOL   H33227454   4.044   1.694   3.056  0.3947 -1.1493  0.5104
   72MOL   H33327455   4.079   1.751   2.906 -0.0663 -0.8896 -0.6257
   72MOL   H33427456   3.919   1.561   2.814 -0.6607 -1.1697  0.3808
   72MOL   H33527457   4.192   1.617   2.773  0.6976 -0.5567 -0.4121
   72MOL   H33627458   4.099   1.478   2.709  0.7822 -0.7162  0.1442
   72MOL   H33727459   4.263   1.321   2.809  1.7688 -0.4241  0.0224
   72MOL   H33827460   4.321   1.431   2.676 -1.1202  0.4443  0.2089
   72MOL   H33927461   4.384   1.490   2.959 -0.4627  1.6655 -0.8797
   72MOL   H34027462   4.460   1.549   2.817 -1.0601  1.0727 -0.9795
   72MOL   H34127463   4.619   1.391   2.882 -0.6786 -0.1663  0.6411
   72MOL   H34227464   4.539   1.301   2.769 -2.3459  2.3175 -1.2379
   72MOL   H34327465   4.492   1.270   2.938 -1.0409 -2.4674 -1.7119
   72MOL   C34427466   3.875   1.491   3.006  0.5144 -0.2143 -0.2659
   72MOL   C34527467   3.851   1.345   2.965  0.3596  0.3623  0.7993
   72MOL   O34627468   3.756   1.349   2.867  0.3812 -0.3501 -0.2862
   72MOL   C34727469   3.753   1.240   2.780  0.1293  0.1787 -0.1926
   72MOL   C34827470   3.658   1.272   2.669  0.2258 -0.2242 -0.1324
   72MOL   C34927471   3.692   1.394   2.578 -0.0091  0.9751  0.1935
   72MOL   C35027472   3.623   1.401   2.435 -0.0582 -0.4441  0.4182
   72MOL   H35127473   3.909   1.503   3.109  0.4392  0.1337 -0.2802
   72MOL   H35227474   3.776   1.535   3.010  0.4040 -0.5024  0.2681
   72MOL   H35327475   3.948   1.310   2.930  0.0997 -2.2868  2.5668
   72MOL   H35427476   3.708   1.168   2.849 -0.0726  1.7083  1.3076
   72MOL   H35527477   3.851   1.215   2.738 -1.2731 -0.3587 -3.2752
   72MOL   H35627478   3.559   1.276   2.715 -0.8870  0.4041 -2.5344
   72MOL   H35727479   3.661   1.186   2.602 -2.5384 -1.9180  1.7851
   72MOL   H35827480   3.673   1.490   2.626  0.9703  0.4707  1.5922
   72MOL   H35927481   3.799   1.391   2.558  0.3679  1.2887  2.0769
   72MOL   H36027482   3.628   1.503   2.398 -3.3623 -0.7088 -0.9139
   72MOL   H36127483   3.520   1.372   2.452 -0.8280  0.6002 -2.2193
   72MOL   H36227484   3.658   1.334   2.357  0.7425  0.3014  0.1263
   72MOL   C36327485   3.814   1.260   3.082 -0.2858 -0.3084 -0.1632
   72MOL   C36427486   3.911   1.237   3.197 -0.4033  0.1713 -0.2015
   72MOL   O36527487   4.050   1.208   3.153  0.5589 -0.0987  0.4150
   72MOL   C36627488   4.149   1.212   3.261  0.4262  0.8530 -0.1482
   72MOL   C36727489   4.285   1.202   3.195 -0.0056  0.4727  0.2422
   72MOL   C36827490   4.399   1.175   3.295 -0.3096  0.7949  0.8055
   72MOL   C36927491   4.545   1.180   3.236  0.7531 -0.1673 -0.5943
   72MOL   H37027492   3.798   1.157   3.049  0.6733  0.2406 -2.3814
   72MOL   H37127493   3.717   1.301   3.112  0.8018  0.9671  1.7249
   72MOL   H37227494   3.880   1.154   3.261  0.1724 -0.8746 -1.2577
   72MOL   H37327495   4.133   1.122   3.319  1.5960  0.4995 -0.3588
   72MOL   H37427496   4.137   1.294   3.331 -0.1627 -0.4258  1.2726
   72MOL   H37527497   4.303   1.295   3.142 -1.4240  1.0714  0.8000
   72MOL   H37627498   4.294   1.130   3.113  1.5274  1.0603 -0.1146
   72MOL   H37727499   4.376   1.076   3.336 -1.1158  0.2100 -1.0013
   72MOL   H37827500   4.396   1.246   3.377 -0.2617  0.5212  1.0458
   72MOL   H37927501   4.572   1.285   3.237 -0.7378  0.2193 -0.6901
   72MOL   H38027502   4.612   1.131   3.308 -1.8322  2.2789  3.7307
   72MOL   H38127503   4.565   1.143   3.136  1.5036  2.2130 -1.3560
   72MOL   H38227504   3.906   1.331   3.252  1.3800  1.3002 -1.9388
   73MOL     C127505   1.686   7.509   1.637  0.8702 -0.9340 -0.2503
   73MOL     C227506   1.684   7.558   1.778 -0.0948  0.0294  0.3700
   73MOL     O327507   1.805   7.617   1.808 -0.5566 -0.3090 -0.3822
   73MOL     C427508   1.849   7.629   1.946 -0.7076  0.1989  0.8093
   73MOL     C527509   1.996   7.675   1.954 -0.5896  0.4932 -0.2335
   73MOL     C627510   2.002   0.028   1.940  0.1124 -0.2395 -0.5651
   73MOL     C727511   2.154   0.075   1.936 -1.0232  0.1510 -0.3851
   73MOL     H827512   1.697   7.587   1.563 -0.0104 -1.6972 -1.1989
   73MOL     H927513   1.772   7.442   1.630  0.0708 -2.0664  0.5209
   73MOL    H1027514   1.680   7.474   1.847  1.5565 -0.8927 -0.6376
   73MOL    H1127515   1.786   7.695   2.005 -0.5871  0.6047  0.4856
   73MOL    H1227516   1.837   7.531   1.993 -1.6905 -0.2772 -0.4027
   73MOL    H1327517   2.045   7.616   1.876  0.3962  1.3533 -0.2666
   73MOL    H1427518   2.035   7.633   2.047 -0.3031  0.0717 -0.5393
   73MOL    H1527519   1.959   0.073   2.029  2.4805 -1.5117  1.3019
   73MOL    H1627520   1.961   0.080   1.854 -0.7026 -0.3380 -0.2426
   73MOL    H1727521   2.200   0.016   2.014 -0.1880  1.4365  0.1095
   73MOL    H1827522   2.164   0.182   1.956 -1.2045  0.1213 -0.1376
   73MOL    H1927523   2.188   0.057   1.834 -0.9078  2.6491 -0.8271
   73MOL    H2027524   1.595   7.456   1.610 -0.9809  2.5451 -0.9855
   73MOL    C2127525   1.573   7.663   1.792  0.7467  0.3375 -0.6615
   73MOL    C2227526   1.433   7.594   1.815 -0.2211  0.5541 -0.8002
   73MOL    O2327527   1.442   7.532   1.937 -0.1319  0.3260  0.3584
   73MOL    C2427528   1.407   7.392   1.947 -0.7307  0.3197 -0.3760
   73MOL    C2527529   1.400   7.338   2.091 -0.6458  0.1819  0.0831
   73MOL    C2627530   1.528   7.302   2.159 -0.0361 -0.2063 -0.0970
   73MOL    C2727531   1.518   7.280   2.308 -0.3595  0.0283  0.2267
   73MOL    H2827532   1.584   7.739   1.715  1.1367  1.2302  0.2576
   73MOL    H2927533   1.589   7.720   1.884  1.1724  0.9176 -1.0886
   73MOL    H3027534   1.413   7.522   1.737  0.6582  1.3445 -1.7704
   73MOL    H3127535   1.474   7.335   1.883 -0.9256  0.5246 -0.7638
   73MOL    H3227536   1.304   7.391   1.910 -1.8825 -1.2233  2.6973
   73MOL    H3327537   1.323   7.387   2.150 -1.4445 -2.1020  1.0129
   73MOL    H3427538   1.351   7.241   2.084 -1.3516  0.5959 -0.8541
   73MOL    H3527539   1.560   7.209   2.113 -2.8600  0.1591 -2.9357
   73MOL    H3627540   1.609   7.374   2.147  0.9541 -1.2473  0.2556
   73MOL    H3727541   1.617   7.248   2.341  0.1424  0.1878 -1.0968
   73MOL    H3827542   1.499   7.373   2.362  3.4049 -0.1909  2.1429
   73MOL    H3927543   1.449   7.197   2.325  1.0006 -1.5931 -1.9826
   73MOL    C4027544   1.318   7.697   1.830  0.0559 -0.3009  0.1134
   73MOL    C4127545   1.258   7.756   1.703  0.5065 -0.1459  0.6327
   73MOL    O4227546   1.364   0.026   1.627  0.1635  0.3224  0.6367
   73MOL    C4327547   1.409   7.758   1.511  0.5920 -0.7675 -0.2159
   73MOL    C4427548   1.308   7.780   1.393  0.6687  0.2581  0.1565
   73MOL    C4527549   1.323   0.108   1.318  0.4469  0.2825 -0.7178
   73MOL    C4627550   1.278   0.239   1.387 -0.0654 -0.1182  0.0246
   73MOL    H4727551   1.350   7.779   1.894 -3.8920  2.1932 -0.9363
   73MOL    H4827552   1.235   7.650   1.883  0.7813 -0.6079  0.9953
   73MOL    H4927553   1.216   7.674   1.646  0.1255 -0.2667  1.0834
   73MOL    H5027554   1.429   7.655   1.541  1.6070 -0.5439 -0.0931
   73MOL    H5127555   1.502   0.008   1.485  0.1966  0.5197  0.8509
   73MOL    H5227556   1.204   7.780   1.425  0.7082 -0.0232  0.2807
   73MOL    H5327557   1.321   7.692   1.330  0.6453 -1.3242  2.3261
   73MOL    H5427558   1.259   0.117   1.230 -1.7983  2.0010  1.0297
   73MOL    H5527559   1.425   0.121   1.281  1.6522 -1.9608  1.7242
   73MOL    H5627560   1.283   0.321   1.315 -0.6917 -0.3665 -0.3059
   73MOL    H5727561   1.175   0.226   1.422 -0.1591 -0.3033 -0.3221
   73MOL    H5827562   1.348   0.264   1.468 -0.5502  0.2989  0.3216
   73MOL    C5927563   1.154   0.064   1.734  0.3555  0.0123 -0.3204
   73MOL    C6027564   1.024   0.004   1.792 -0.0419 -0.5044 -0.6854
   73MOL    O6127565   1.053   7.773   1.927  0.0642  0.1127  0.4274
   73MOL    C6227566   0.989   7.646   1.963 -0.2220 -0.0851 -0.0144
   73MOL    C6327567   1.031   7.609   2.101  0.8301 -0.6410 -0.6757
   73MOL    C6427568   0.967   7.489   2.169 -0.1260 -0.0826 -0.1138
   73MOL    C6527569   0.982   7.359   2.093 -0.1376  0.6027  0.1073
   73MOL    H6627570   1.199   0.133   1.805 -2.5730  1.1109  0.5457
   73MOL    H6727571   1.114   0.103   1.640  0.7889 -1.0872 -0.9803
   73MOL    H6827572   0.986   7.727   1.727  0.1914  0.1644 -1.6413
   73MOL    H6927573   1.026   7.564   1.902 -0.6020 -0.6881  0.5505
   73MOL    H7027574   0.881   7.643   1.949 -0.8094 -0.0639  3.8879
   73MOL    H7127575   1.140   7.599   2.104  0.8810 -0.2198 -1.0783
   73MOL    H7227576   1.001   7.698   2.157 -2.9860 -1.9943 -0.4565
   73MOL    H7327577   0.992   7.480   2.275  1.1262  1.8306 -0.2370
   73MOL    H7427578   0.863   7.517   2.152 -0.3919 -1.4527 -0.8756
   73MOL    H7527579   1.084   7.330   2.072 -0.8336 -0.1259 -2.4318
   73MOL    H7627580   0.939   7.270   2.139  1.7368  0.2651  1.2191
   73MOL    H7727581   0.931   7.370   1.997 -0.0771  1.4096  0.1621
   73MOL    C7827582   0.915   0.117   1.813  0.1183  0.2169  0.3570
   73MOL    C7927583   0.806   0.112   1.703  0.1464  0.3964  0.3503
   73MOL    O8027584   0.723   0.230   1.730  0.4764 -0.1873  0.3436
   73MOL    C8127585   0.715   0.321   1.626  0.3475  0.8922 -0.3351
   73MOL    C8227586   0.589   0.395   1.643 -0.8988  0.7655 -0.5091
   73MOL    C8327587   0.551   0.484   1.524  0.5797 -0.2388 -0.0135
   73MOL    C8427588   0.399   0.515   1.536 -0.0187 -0.2316  0.9270
   73MOL    H8527589   0.960   0.216   1.821  1.2165 -0.4661  3.5209
   73MOL    H8627590   0.859   0.108   1.906  1.4447  3.2536  1.5065
   73MOL    H8727591   0.864   0.127   1.612 -0.9281 -0.3414 -0.4724
   73MOL    H8827592   0.704   0.275   1.528 -1.9912  0.6622  0.0034
   73MOL    H8927593   0.804   0.382   1.613  1.4870 -0.7464 -0.4412
   73MOL    H9027594   0.505   0.327   1.661  2.0883 -2.6151  1.0813
   73MOL    H9127595   0.587   0.426   1.747  0.7244  0.1687 -0.2987
   73MOL    H9227596   0.575   0.437   1.429 -0.8996  1.9983 -1.5370
   73MOL    H9327597   0.612   0.573   1.532  1.1292 -0.3187 -3.0108
   73MOL    H9427598   0.351   0.546   1.443 -0.4367  0.8522  1.5027
   73MOL    H9527599   0.339   0.429   1.566 -0.1331  0.2257  2.0093
   73MOL    H9627600   0.395   0.595   1.609 -0.1743  0.0161  0.6500
   73MOL    C9727601   0.716   7.786   1.691 -0.4702 -0.1788 -0.7685
   73MOL    C9827602   0.632   7.778   1.564  0.0889  0.0947 -0.0588
   73MOL    O9927603   0.722   7.793   1.450 -0.6776 -0.0832  0.0098
   73MOL   C10027604   0.671   0.037   1.327 -0.1891  0.1846 -0.1963
   73MOL   C10127605   0.789   0.094   1.246  0.3173 -0.7443  0.4083
   73MOL   C10227606   0.852   0.224   1.297  0.4990  0.3536  1.2131
   73MOL   C10327607   0.956   0.275   1.202 -0.2363  0.5143  0.2099
   73MOL   H10427608   0.653   7.766   1.778  1.0441 -2.5998 -0.1754
   73MOL   H10527609   0.785   7.701   1.695 -0.0711  0.1821  0.4183
   73MOL   H10627610   0.555   0.053   1.558  0.5574  0.6554  1.0572
   73MOL   H10727611   0.596   0.115   1.336 -0.4640 -0.0782 -0.2213
   73MOL   H10827612   0.624   7.759   1.269 -1.5543  1.8113 -1.3504
   73MOL   H10927613   0.750   0.110   1.145 -0.0645 -1.6762  0.3937
   73MOL   H11027614   0.868   0.019   1.247 -0.4934 -1.6089  0.6324
   73MOL   H11127615   0.891   0.205   1.397 -0.3284  0.3300  1.5407
   73MOL   H11227616   0.774   0.300   1.311  2.3295  2.2951  1.0650
   73MOL   H11327617   1.041   0.208   1.188 -1.8037 -2.1540  2.8188
   73MOL   H11427618   0.907   0.301   1.108  2.0406  0.9886 -0.8886
   73MOL   H11527619   0.993   0.373   1.233 -0.1707  0.5701 -0.0414
   73MOL   C11627620   0.567   7.635   1.555  0.2958  0.1417 -0.5434
   73MOL   C11727621   0.425   7.625   1.491 -0.0791 -0.3679 -0.0206
   73MOL   O11827622   0.444   7.596   1.353  0.0520  0.5232 -0.3140
   73MOL   C11927623   0.347   7.660   1.271 -0.2245 -0.4771  0.1585
   73MOL   C12027624   0.345   7.599   1.129 -0.1935  0.9028 -0.0232
   73MOL   C12127625   0.472   7.617   1.056  0.6336 -0.2224 -0.0670
   73MOL   C12227626   0.502   7.528   0.936 -0.5277 -1.1292  0.4249
   73MOL   H12327627   0.634   7.564   1.508  1.4817  1.2918 -0.6238
   73MOL   H12427628   0.549   7.591   1.654  1.8703  1.3150  0.2834
   73MOL   H12527629   0.385   7.727   1.493 -0.1135 -0.3921  1.0392
   73MOL   H12627630   0.372   7.766   1.263 -1.7080  0.0384  1.9733
   73MOL   H12727631   0.246   7.648   1.310 -0.2387 -0.6132  0.0770
   73MOL   H12827632   0.271   7.648   1.066  0.9864  2.4093 -0.2725
   73MOL   H12927633   0.309   7.497   1.136  1.0293  0.4017 -0.8156
   73MOL   H13027634   0.476   7.718   1.015  2.4641  0.0349  0.7030
   73MOL   H13127635   0.549   7.594   1.130 -0.5965  0.4954  1.4648
   73MOL   H13227636   0.420   7.550   0.867 -0.1080  0.7609  0.5031
   73MOL   H13327637   0.503   7.422   0.961  2.1344 -1.1913  0.1583
   73MOL   H13427638   0.598   7.555   0.893 -0.3554  0.1419  1.5571
   73MOL   C13527639   0.322   7.534   1.562 -0.5852 -0.1748  0.1486
   73MOL   C13627640   0.282   7.591   1.704  0.0396 -0.0191  0.3610
   73MOL   O13727641   0.207   7.712   1.665  0.0880  0.7209 -0.8402
   73MOL   C13827642   0.216   0.029   1.746  0.0288  0.1150 -0.5985
   73MOL   C13927643   0.101   0.115   1.688 -0.5421  0.0831  0.1242
   73MOL   C14027644   7.757   0.065   1.725  0.4805  0.3998  0.1238
   73MOL   C14127645   7.641   0.160   1.675  0.0630 -0.2237 -0.7593
   73MOL   H14227646   0.360   7.433   1.573  1.7599  0.6027 -0.4566
   73MOL   H14327647   0.231   7.533   1.501 -0.3337  0.9191 -0.2690
   73MOL   H14427648   0.364   7.631   1.763 -0.7059 -0.3442  1.6374
   73MOL   H14527649   0.313   0.078   1.740  0.6089 -0.8036  1.0437
   73MOL   H14627650   0.198   0.008   1.852 -1.2102  0.9473 -0.6267
   73MOL   H14727651   0.113   0.130   1.581  0.3971 -0.6144  0.1232
   73MOL   H14827652   0.116   0.215   1.729 -0.2392  0.7732 -1.6255
   73MOL   H14927653   7.750   7.770   1.674 -0.1798  0.9129 -0.7673
   73MOL   H15027654   7.756   0.041   1.831 -0.3249  0.5785  0.1581
   73MOL   H15127655   7.644   0.188   1.570 -1.1419  0.3245 -0.6529
   73MOL   H15227656   7.541   0.122   1.695 -0.8644  2.9281  0.8075
   73MOL   H15327657   7.640   0.260   1.718 -2.5341 -0.2143 -0.7475
   73MOL   C15427658   0.176   7.497   1.783 -0.4925  0.1801  0.8646
   73MOL   C15527659   0.173   7.517   1.930 -0.0262 -0.3471  0.4312
   73MOL   O15627660   0.279   7.441   1.979 -0.4963  0.6344 -0.0479
   73MOL   C15727661   0.284   7.399   2.114  0.7434  0.3894 -0.7091
   73MOL   C15827662   0.411   7.319   2.132  0.2076 -0.1487 -0.5266
   73MOL   C15927663   0.434   7.280   2.286 -0.2452  0.0267 -1.2321
   73MOL   C16027664   0.558   7.185   2.304 -0.0168 -0.9880  0.5104
   73MOL   H16127665   0.206   7.395   1.758  1.6634  1.0727 -0.3408
   73MOL   H16227666   0.080   7.527   1.743  0.1221  1.8109  0.5739
   73MOL   H16327667   0.196   7.620   1.957  2.4308 -0.5123 -0.8635
   73MOL   H16427668   0.284   7.485   2.181 -0.4320  0.4688 -0.8024
   73MOL   H16527669   0.197   7.338   2.136  0.6946  0.5986 -0.3213
   73MOL   H16627670   0.497   7.372   2.090  0.5346 -1.0965 -1.0720
   73MOL   H16727671   0.393   7.232   2.068 -3.4722 -1.1826  1.7654
   73MOL   H16827672   0.444   7.367   2.351  1.2942 -0.5117 -0.7200
   73MOL   H16927673   0.347   7.221   2.315 -1.2135  2.4226  0.9962
   73MOL   H17027674   0.575   7.169   2.411  1.1363 -0.1580  0.4687
   73MOL   H17127675   0.552   7.093   2.247  0.2126 -1.0785  0.6317
   73MOL   H17227676   0.651   7.235   2.275 -0.3263  0.7761  2.4696
   73MOL   C17327677   0.035   7.485   1.991 -0.3029  0.0077 -0.6506
   73MOL   C17427678   0.006   7.550   2.127  0.2891  0.0725  0.0693
   73MOL   O17527679   0.001   7.680   2.095  0.0274  0.3100  0.7543
   73MOL   C17627680   0.041   7.773   2.194  0.4841  0.4042 -0.1343
   73MOL   C17727681   0.005   0.108   2.153  0.1363  0.0028 -0.0533
   73MOL   C17827682   7.657   0.143   2.161  0.3662 -0.3808 -0.3283
   73MOL   C17927683   7.605   0.286   2.141 -0.1250 -0.5749  0.0461
   73MOL   H18027684   0.016   7.378   1.995 -2.2022  0.3548  0.3730
   73MOL   H18127685   7.766   7.519   1.915 -1.2020 -3.1036 -1.2805
   73MOL   H18227686   0.075   7.525   2.207  0.1369  0.1066  0.2118
   73MOL   H18327687   0.145   7.764   2.223  0.3347 -1.3232 -0.0724
   73MOL   H18427688   7.798   7.756   2.292  1.6461 -1.0931  0.1502
   73MOL   H18527689   0.045   0.123   2.053 -0.9882  0.7688 -0.3960
   73MOL   H18627690   0.062   0.177   2.215 -0.2034  0.1133  0.1335
   73MOL   H18727691   7.619   0.079   2.082  1.4359 -1.6304  0.1455
   73MOL   H18827692   7.617   0.096   2.251  1.7390  1.9358  1.5745
   73MOL   H18927693   7.613   0.349   2.230 -0.6458 -0.4331 -0.0031
   73MOL   H19027694   7.650   0.333   2.054 -0.1950  0.7839  0.7308
   73MOL   H19127695   7.499   0.283   2.115  0.4488  1.2899 -2.8305
   73MOL   C19227696   7.667   7.525   2.192  0.0599  0.3247  0.8217
   73MOL   C19327697   7.651   7.387   2.261  0.3100  0.5401  0.5238
   73MOL   O19427698   7.765   7.356   2.344 -0.5296 -0.1590 -0.5357
   73MOL   C19527699   7.791   7.221   2.368 -0.1158 -0.2237 -0.4019
   73MOL   C19627700   0.096   7.203   2.474  0.3486  0.5777 -0.6098
   73MOL   C19727701   0.055   7.238   2.618  0.2906 -0.0350  0.0823
   73MOL   C19827702   0.160   7.232   2.727  0.7422 -0.2041 -0.5734
   73MOL   H19927703   7.593   7.535   2.113  2.8018  1.0055 -1.7832
   73MOL   H20027704   7.659   7.599   2.271  0.6307  0.9987  0.2600
   73MOL   H20127705   7.656   7.313   2.181 -3.1783 -0.0211  0.7648
   73MOL   H20227706   0.006   7.165   2.276  1.3814 -0.2451 -0.1350
   73MOL   H20327707   7.705   7.171   2.413  0.7018 -1.6959 -0.4649
   73MOL   H20427708   0.120   7.096   2.470  1.0234  0.5917  2.4289
   73MOL   H20527709   0.190   7.250   2.445  0.2885  1.6208  0.8407
   73MOL   H20627710   7.783   7.163   2.646  1.1102 -0.9022 -0.0566
   73MOL   H20727711   0.001   7.332   2.608  1.0853  0.7917  3.1226
   73MOL   H20827712   0.110   7.274   2.815  1.3554 -0.0033 -0.3231
   73MOL   H20927713   0.199   7.135   2.759  1.0358  0.1294  0.0994
   73MOL   H21027714   0.240   7.299   2.697  0.0133  0.4128 -1.1457
   73MOL   C21127715   7.517   7.362   2.334 -0.1256  0.2691  0.7172
   73MOL   C21227716   7.384   7.339   2.250 -0.8856  0.5763  0.6910
   73MOL   O21327717   7.360   7.206   2.201 -1.2393 -0.2063  0.3774
   73MOL   C21427718   7.397   7.194   2.058 -0.3883  0.1922  0.1088
   73MOL   C21527719   7.382   7.042   2.015 -0.6179 -0.6333 -0.3358
   73MOL   C21627720   7.472   6.957   2.103  0.0107 -0.1171 -0.7255
   73MOL   C21727721   7.622   6.962   2.059 -0.3620 -0.1032 -0.2031
   73MOL   H21827722   7.493   7.449   2.396 -1.4110  0.4982 -0.0844
   73MOL   H21927723   7.532   7.276   2.398  1.4396  0.6841  0.9365
   73MOL   H22027724   7.384   7.415   2.173 -1.2135 -2.3184 -2.2971
   73MOL   H22127725   7.327   7.253   1.999 -0.0487  1.0215  0.5291
   73MOL   H22227726   7.496   7.235   2.042 -0.2941  0.4127  1.2332
   73MOL   H22327727   7.279   7.007   2.015 -0.8186 -0.0946  0.9290
   73MOL   H22427728   7.422   7.040   1.914  2.0272 -0.0158  0.6570
   73MOL   H22527729   7.442   6.852   2.097 -0.0289 -0.1889  0.6533
   73MOL   H22627730   7.457   6.988   2.206 -4.6467 -0.4751 -1.1755
   73MOL   H22727731   7.678   6.920   2.142 -1.8002 -2.5231 -0.4288
   73MOL   H22827732   7.641   7.069   2.047 -1.8436  0.5560  2.7600
   73MOL   H22927733   7.652   6.897   1.977  0.8114 -0.9692  0.8986
   73MOL   C23027734   7.259   7.367   2.337 -0.2290 -0.1215 -0.1799
   73MOL   C23127735   7.248   7.508   2.402  0.4772  0.0888 -0.4649
   73MOL   O23227736   7.250   7.608   2.304  0.5981 -0.1284 -0.0512
   73MOL   C23327737   7.352   7.711   2.319 -0.2185  0.1465 -0.9696
   73MOL   C23427738   7.349   7.785   2.183 -0.1340 -0.0146  0.4641
   73MOL   C23527739   7.205   0.009   2.138 -0.1842 -0.6422 -0.6725
   73MOL   C23627740   7.182   0.075   2.004 -0.6330 -0.1153 -0.0118
   73MOL   H23727741   7.252   7.292   2.416  1.5729 -0.5930 -0.4388
   73MOL   H23827742   7.165   7.347   2.286 -1.5075  1.7060  1.4177
   73MOL   H23927743   7.328   7.525   2.474 -0.4159  2.2404  0.0854
   73MOL   H24027744   7.329   7.775   2.404  0.7596  1.4443 -1.6613
   73MOL   H24127745   7.450   7.664   2.331 -0.0434  0.8505  0.4993
   73MOL   H24227746   7.407   0.076   2.181 -0.6084  0.2721 -0.3410
   73MOL   H24327747   7.396   7.719   2.110 -0.3126  1.7648 -1.3170
   73MOL   H24427748   7.142   0.061   2.210  0.6795  1.0059 -1.0977
   73MOL   H24527749   7.167   7.709   2.132 -1.7289 -0.1663  0.5727
   73MOL   H24627750   7.076   0.073   1.976 -0.6349  1.2715 -0.1452
   73MOL   H24727751   7.247   0.029   1.930  0.4614  0.1213  0.7919
   73MOL   H24827752   7.210   0.180   2.008 -1.8491  0.3580 -2.5958
   73MOL   C24927753   7.118   7.529   2.482  0.0937 -0.0298 -0.4307
   73MOL   C25027754   7.118   7.628   2.606 -0.3312  0.4572  0.7005
   73MOL   O25127755   7.184   7.556   2.705 -0.6062  0.0668 -0.2452
   73MOL   C25227756   7.261   7.636   2.785 -0.2248  0.2035  0.5084
   73MOL   C25327757   7.360   7.546   2.867  0.3470 -0.1525 -0.5498
   73MOL   C25427758   7.475   7.504   2.781 -0.0188 -0.6870  0.7256
   73MOL   C25527759   7.589   7.429   2.863  0.3350 -0.3494  0.1243
   73MOL   H25627760   7.103   7.437   2.538  3.3528 -0.1477  0.3600
   73MOL   H25727761   7.031   7.536   2.416 -2.0369 -1.4624  2.1200
   73MOL   H25827762   7.172   7.714   2.567 -1.1176  0.2648 -0.8481
   73MOL   H25927763   7.211   7.696   2.862 -0.1474 -1.7170  2.1070
   73MOL   H26027764   7.314   7.701   2.715  0.6012 -0.5857  0.3983
   73MOL   H26127765   7.406   7.597   2.952  0.7121  1.1966 -1.5412
   73MOL   H26227766   7.302   7.475   2.926 -0.3496 -1.1670 -2.4050
   73MOL   H26327767   7.433   7.440   2.704  0.6692 -0.1009 -0.1490
   73MOL   H26427768   7.511   7.594   2.731 -0.0421 -2.5299 -2.7310
   73MOL   H26527769   7.622   7.486   2.951 -1.1838  0.0791  0.4319
   73MOL   H26627770   7.680   7.410   2.806  0.3327  3.0676 -1.1473
   73MOL   H26727771   7.541   7.337   2.898 -1.4168 -0.9538 -3.6134
   73MOL   C26827772   6.978   7.667   2.655 -0.4902 -0.1707  0.3930
   73MOL   C26927773   6.888   7.749   2.557 -0.4656  0.4443 -0.5077
   73MOL   O27027774   6.847   7.665   2.454 -0.3063  0.1811  0.0381
   73MOL   C27127775   6.866   7.706   2.320  0.2692  0.3766  0.5352
   73MOL   C27227776   6.809   7.598   2.227 -0.3753 -0.0412  0.1544
   73MOL   C27327777   6.675   7.534   2.247 -0.0126  0.3761 -0.5021
   73MOL   C27427778   6.653   7.406   2.165 -0.2924 -0.4531  0.4446
   73MOL   H27527779   6.923   7.578   2.686  1.1367 -1.2013  0.3670
   73MOL   H27627780   7.004   7.729   2.740  0.4118  0.8491 -0.6138
   73MOL   H27727781   6.935   0.040   2.523 -0.9534  1.4620  1.5296
   73MOL   H27827782   6.816   7.799   2.290  0.0951  0.2021  0.2833
   73MOL   H27927783   6.970   7.717   2.291  0.3226 -0.3989  0.4450
   73MOL   H28027784   6.808   7.630   2.123  0.4094  1.3384  0.5687
   73MOL   H28127785   6.887   7.522   2.234  2.0634  2.4362  0.8890
   73MOL   H28227786   6.605   7.610   2.211  0.7052  0.1819 -2.3699
   73MOL   H28327787   6.667   7.516   2.354  3.2889  0.3008 -0.2072
   73MOL   H28427788   6.726   7.330   2.188  2.0109  2.0480  1.6885
   73MOL   H28527789   6.651   7.417   2.057  0.0410  2.7816  0.7192
   73MOL   H28627790   6.562   7.351   2.189  0.1304 -1.5557 -0.4472
   73MOL   C28727791   6.759   7.794   2.628 -0.1468  0.3934 -0.3210
   73MOL   C28827792   6.683   0.116   2.560 -0.0830  0.2246 -0.2626
   73MOL   O28927793   6.753   0.237   2.561 -1.0346 -0.4208 -0.3134
   73MOL   C29027794   6.723   0.331   2.454  0.3834 -0.4629 -0.0420
   73MOL   C29127795   6.797   0.460   2.487  0.3571  0.4880  0.3269
   73MOL   C29227796   6.942   0.443   2.481 -0.2330  0.3010  0.2182
   73MOL   C29327797   7.012   0.575   2.485 -0.1695 -0.9096  0.3786
   73MOL   H29427798   6.780   0.013   2.733 -3.9093  2.1617  0.1462
   73MOL   H29527799   6.697   7.705   2.622  0.5511 -0.1814  0.8437
   73MOL   H29627800   6.690   0.087   2.455  0.5721 -1.1332  0.1516
   73MOL   H29727801   6.754   0.293   2.356  0.8649 -2.3575  0.8108
   73MOL   H29827802   6.616   0.348   2.443  0.7807  1.9679 -0.3361
   73MOL   H29927803   6.775   0.499   2.586  2.5032  1.6203  0.3800
   73MOL   H30027804   6.754   0.532   2.417  2.2451  0.3568 -0.9929
   73MOL   H30127805   6.965   0.387   2.391 -2.6650  0.0276 -0.2848
   73MOL   H30227806   6.984   0.378   2.557  0.5981  1.0542  0.4155
   73MOL   H30327807   7.028   0.612   2.586 -0.5466  0.8004 -0.1725
   73MOL   H30427808   7.112   0.571   2.441  0.6428 -1.3766  2.2444
   73MOL   H30527809   6.958   0.658   2.441 -1.2376 -1.0299  1.4610
   73MOL   C30627810   6.555   0.153   2.634  0.9260 -0.0164  0.1797
   73MOL   C30727811   6.456   0.045   2.623  0.2126  0.5808 -0.0421
   73MOL   O30827812   6.389   0.068   2.499  0.2254  0.2105 -0.0912
   73MOL   C30927813   6.380   7.758   2.409 -0.3163 -0.1999  0.3809
   73MOL   C31027814   6.320   0.017   2.284 -0.7167  0.0630 -0.8905
   73MOL   C31127815   6.407   0.108   2.194  0.0054  0.4842  0.0319
   73MOL   C31227816   6.330   0.147   2.069 -0.5710 -0.5872  0.0788
   73MOL   H31327817   6.584   0.181   2.735 -0.9562 -4.5626  2.0960
   73MOL   H31427818   6.512   0.239   2.583  0.4808 -0.0232  0.5448
   73MOL   H31527819   6.487   7.742   2.625 -1.1820  0.1346 -0.9537
   73MOL   H31627820   6.315   7.684   2.456  1.2387 -1.5278  0.4621
   73MOL   H31727821   6.477   7.710   2.397  0.0631  0.5548  0.4480
   73MOL   H31827822   6.232   0.076   2.308 -0.4921  0.2350 -0.4656
   73MOL   H31927823   6.295   7.739   2.214 -0.3242 -0.9243  0.0734
   73MOL   H32027824   6.425   0.204   2.242 -0.0593  1.0990 -1.1553
   73MOL   H32127825   6.503   0.061   2.173 -0.3183 -0.1211 -0.1197
   73MOL   H32227826   6.298   0.063   2.007 -0.7576 -1.3975  1.2559
   73MOL   H32327827   6.390   0.203   1.997 -2.6597  0.8087 -0.6110
   73MOL   H32427828   6.245   0.208   2.098 -1.9100 -2.2903 -0.1560
   73MOL   C32527829   6.343   0.062   2.730  0.5696 -0.4346 -0.3353
   73MOL   C32627830   6.378   7.796   2.862 -0.4741 -0.5229  0.0614
   73MOL   O32727831   6.485   0.063   2.927  0.1676  0.6354 -0.2331
   73MOL   C32827832   6.586   7.788   2.993 -1.2992  0.0846  0.7070
   73MOL   C32927833   6.679   0.086   3.062  0.4931  0.4749  0.2119
   73MOL   C33027834   6.631   0.147   3.186 -0.6768 -0.0514 -0.5041
   73MOL   C33127835   6.725   0.251   3.240  0.0335 -0.0377  1.0471
   73MOL   H33227836   6.253   0.018   2.687  0.1470 -0.6248  0.7036
   73MOL   H33327837   6.307   0.164   2.750  3.4039  0.1142  2.4551
   73MOL   H33427838   6.411   7.692   2.854 -0.5914 -0.5479 -0.1279
   73MOL   H33527839   6.638   7.734   2.914 -3.3585 -1.8149  0.6133
   73MOL   H33627840   6.546   7.717   3.066 -2.0061 -0.3451 -0.0864
   73MOL   H33727841   6.768   0.029   3.087  0.8453  0.7075 -0.5025
   73MOL   H33827842   6.715   0.161   2.992  0.2121  0.2170 -0.2167
   73MOL   H33927843   6.593   0.077   3.260  0.8278 -0.7092 -0.3457
   73MOL   H34027844   6.536   0.198   3.168 -1.4129 -0.2160  2.5690
   73MOL   H34127845   6.693   0.281   3.340 -0.6633 -1.8280  1.3790
   73MOL   H34227846   6.761   0.336   3.181 -0.9859 -0.4978 -0.2628
   73MOL   H34327847   6.816   0.193   3.249 -0.4603 -1.1422 -0.8146
   73MOL   C34427848   6.253   7.775   2.955 -0.3774  0.4194 -0.5276
   73MOL   C34527849   6.269   7.706   3.092 -0.2750 -0.9492  0.3053
   73MOL   O34627850   6.278   7.571   3.051 -0.1532 -0.0927  0.3366
   73MOL   C34727851   6.343   7.493   3.151  0.6930 -0.8225  0.7164
   73MOL   C34827852   6.392   7.362   3.091 -0.4939 -0.3988 -0.4428
   73MOL   C34927853   6.482   7.284   3.191 -0.1088 -0.8771  0.6424
   73MOL   C35027854   6.558   7.154   3.142  0.1029  0.5353  0.6085
   73MOL   H35127855   6.210   0.074   2.965 -1.2800  0.2584 -2.6764
   73MOL   H35227856   6.176   7.716   2.905 -0.0167 -1.4565  1.0656
   73MOL   H35327857   6.354   7.749   3.146  0.5981 -1.1953 -0.8673
   73MOL   H35427858   6.260   7.468   3.217 -1.0147  2.2073 -0.1349
   73MOL   H35527859   6.419   7.552   3.201  1.2857 -2.8725  2.2789
   73MOL   H35627860   6.463   7.394   3.015 -1.4324  3.0045  0.0530
   73MOL   H35727861   6.315   7.311   3.034  0.7555 -1.0514 -1.5785
   73MOL   H35827862   6.555   7.356   3.228 -1.7739  1.5443 -0.6411
   73MOL   H35927863   6.426   7.256   3.279 -1.5730  0.4896  0.1682
   73MOL   H36027864   6.627   7.172   3.059 -0.1075 -1.5421 -0.0240
   73MOL   H36127865   6.488   7.080   3.104 -1.9925  3.4418 -1.4439
   73MOL   H36227866   6.611   7.109   3.226 -1.7992  1.3834  2.3005
   73MOL   C36327867   6.147   7.724   3.182  1.0670 -0.3284 -0.4444
   73MOL   C36427868   6.148   0.033   3.291 -0.3101  1.0944  0.4163
   73MOL   O36527869   6.122   0.144   3.220 -0.0840  0.0605  0.2304
   73MOL   C36627870   6.111   0.262   3.295 -0.0243 -0.0476 -0.0218
   73MOL   C36727871   6.197   0.373   3.239  0.9409  0.2948 -0.0866
   73MOL   C36827872   6.165   0.407   3.091  0.3003  0.3518  0.8167
   73MOL   C36927873   6.275   0.493   3.030 -0.8423 -0.8511  0.1500
   73MOL   H37027874   6.111   7.633   3.230 -1.2084  1.1829  0.7978
   73MOL   H37127875   6.060   7.739   3.119  1.8427  3.0665 -0.8277
   73MOL   H37227876   6.246   0.031   3.339  0.3148  1.6336 -0.8024
   73MOL   H37327877   6.116   0.250   3.403  0.8911  2.7171  0.2875
   73MOL   H37427878   6.005   0.286   3.289 -0.0955 -0.3558 -0.0240
   73MOL   H37527879   6.300   0.341   3.252  1.2104  1.5419  0.8929
   73MOL   H37627880   6.188   0.460   3.303  0.3905 -0.7185  1.2335
   73MOL   H37727881   6.068   0.454   3.079  0.8194  1.1178 -0.4719
   73MOL   H37827882   6.147   0.317   3.031  3.5558  0.7586 -0.8490
   73MOL   H37927883   6.378   0.473   3.062 -0.7486  0.1820  0.5223
   73MOL   H38027884   6.277   0.470   2.923  0.5908  0.9888 -0.2442
   73MOL   H38127885   6.249   0.599   3.031  0.2866 -0.5575 -0.6833
   73MOL   H38227886   6.078   0.007   3.370  0.3014 -1.7203  0.0836
   74MOL     C127887   3.291   2.300   3.860 -0.2320  0.1008  0.1348
   74MOL     C227888   3.319   2.283   4.007  0.5149 -0.3945 -0.0470
   74MOL     O327889   3.195   2.280   4.083 -0.0742 -0.3127  0.0547
   74MOL     C427890   3.220   2.344   4.206 -0.5219  0.4313 -0.0357
   74MOL     C527891   3.103   2.327   4.309  0.5886  0.2227  0.0062
   74MOL     C627892   2.975   2.374   4.255 -0.1842 -0.5713 -0.2127
   74MOL     C727893   2.868   2.323   4.342 -0.3040 -0.3845 -0.1203
   74MOL     H827894   3.241   2.394   3.835 -0.4973  0.1223  0.7343
   74MOL     H927895   3.379   2.296   3.795 -1.1672 -1.0102 -1.0623
   74MOL    H1027896   3.387   2.363   4.036  1.1834 -0.0817 -2.4364
   74MOL    H1127897   3.299   2.302   4.268  0.6624  0.7759 -1.2789
   74MOL    H1227898   3.230   2.449   4.179  1.8779  0.5184  1.1155
   74MOL    H1327899   3.128   2.367   4.407  2.0668  1.0830 -0.7131
   74MOL    H1427900   3.097   2.218   4.312 -1.3733  0.2975 -0.5509
   74MOL    H1527901   2.968   2.341   4.151 -1.0310  0.0996 -0.3735
   74MOL    H1627902   2.985   2.482   4.244 -0.7120 -0.3770  1.1359
   74MOL    H1727903   2.866   2.363   4.444 -0.7038 -0.1483 -0.2174
   74MOL    H1827904   2.865   2.215   4.355 -0.6137 -0.2087  1.4007
   74MOL    H1927905   2.769   2.356   4.310 -0.1217 -0.0533 -0.3512
   74MOL    H2027906   3.229   2.214   3.837  2.2435 -1.3295 -1.3864
   74MOL    C2127907   3.398   2.150   4.049  0.1513  0.7473 -0.1421
   74MOL    C2227908   3.551   2.161   4.021  0.5045  0.1303  0.6559
   74MOL    O2327909   3.586   2.268   4.105 -0.4793  0.0043  0.3752
   74MOL    C2427910   3.672   2.358   4.042 -0.2585 -0.3540  0.3780
   74MOL    C2527911   3.697   2.468   4.140  0.1785  0.2584 -0.2250
   74MOL    C2627912   3.571   2.541   4.187  0.5171  0.1129  0.0811
   74MOL    C2727913   3.505   2.624   4.073 -0.0063  0.0246  0.5720
   74MOL    H2827914   3.354   2.071   3.988  1.0944 -0.5207  0.7853
   74MOL    H2927915   3.389   2.119   4.153  3.7729 -1.2636 -0.3421
   74MOL    H3027916   3.570   2.182   3.916 -0.4547  1.8083  0.8148
   74MOL    H3127917   3.626   2.399   3.952  0.8467 -0.0385 -0.0591
   74MOL    H3227918   3.765   2.313   4.007  0.2876 -0.0076  1.3444
   74MOL    H3327919   3.746   2.422   4.226 -0.7214  1.1972  0.8209
   74MOL    H3427920   3.769   2.543   4.106  0.2265  0.0054 -0.6787
   74MOL    H3527921   3.497   2.474   4.231 -1.7528  2.3557 -0.2083
   74MOL    H3627922   3.603   2.607   4.268 -1.2023  1.9621 -0.7089
   74MOL    H3727923   3.401   2.645   4.102  0.3869  2.3986  0.3710
   74MOL    H3827924   3.553   2.721   4.062  2.3898 -1.0961  0.9957
   74MOL    H3927925   3.482   2.592   3.972 -1.0357  1.1166  0.4484
   74MOL    C4027926   3.625   2.033   4.067  0.7909 -0.2895  0.5227
   74MOL    C4127927   3.619   1.921   3.963 -0.0229 -0.0472 -0.5119
   74MOL    O4227928   3.496   1.856   3.946 -0.1887 -0.4629  0.4150
   74MOL    C4327929   3.467   1.809   3.813 -0.9821 -0.4082 -0.0278
   74MOL    C4427930   3.316   1.759   3.810 -0.5438 -0.9883 -0.4487
   74MOL    C4527931   3.206   1.875   3.814  0.0099 -0.3194  0.4885
   74MOL    C4627932   3.067   1.810   3.819 -0.1500  0.0863  0.1545
   74MOL    H4727933   3.588   1.985   4.157 -0.3931  0.0409  0.2148
   74MOL    H4827934   3.731   2.059   4.077  0.5206  1.2656 -0.3805
   74MOL    H4927935   3.655   1.964   3.870  0.4411  1.0561  0.1767
   74MOL    H5027936   3.545   1.737   3.787  0.4338  0.6539  1.1910
   74MOL    H5127937   3.484   1.886   3.738  1.2649  1.3201  2.1788
   74MOL    H5227938   3.304   1.676   3.881 -0.3022 -1.5009 -1.0025
   74MOL    H5327939   3.305   1.699   3.720  0.1307 -0.2709 -1.0148
   74MOL    H5427940   3.216   1.944   3.730 -0.9181 -0.6765  0.0685
   74MOL    H5527941   3.199   1.924   3.911 -0.1256 -2.0811  1.3868
   74MOL    H5627942   3.002   1.894   3.846  0.9667  1.5377 -1.5225
   74MOL    H5727943   3.030   1.767   3.726 -0.1842  0.7335 -0.1338
   74MOL    H5827944   3.054   1.729   3.891  0.8220 -1.0502 -0.9441
   74MOL    C5927945   3.724   1.808   3.992 -0.0203  0.1999 -0.3281
   74MOL    C6027946   3.870   1.840   3.958 -0.4466  0.6492  0.4184
   74MOL    O6127947   3.955   1.746   4.017  0.1405 -0.0728 -0.8023
   74MOL    C6227948   3.991   1.787   4.143  0.0358  0.0038  0.9808
   74MOL    C6327949   4.068   1.674   4.215  0.6301 -0.6220 -0.1449
   74MOL    C6427950   3.994   1.552   4.265  0.3167 -0.9306 -0.5210
   74MOL    C6527951   4.091   1.434   4.270 -0.8016 -0.3897  0.5499
   74MOL    H6627952   3.708   1.783   4.097 -1.7309  2.7661  0.0910
   74MOL    H6727953   3.711   1.714   3.940 -0.9137  0.6305 -0.8939
   74MOL    H6827954   3.891   1.942   3.988 -0.3489  0.1672  2.0994
   74MOL    H6927955   3.898   1.813   4.192 -0.5881  0.6555 -0.5275
   74MOL    H7027956   4.057   1.874   4.141 -1.5830  1.2285 -0.3607
   74MOL    H7127957   4.151   1.639   4.154 -1.2132 -0.4313 -2.8635
   74MOL    H7227958   4.107   1.722   4.305 -1.9754 -0.4282  0.9384
   74MOL    H7327959   3.936   1.568   4.356  1.8392 -3.0945  0.8664
   74MOL    H7427960   3.923   1.533   4.184 -1.6344  2.3843  0.3574
   74MOL    H7527961   4.133   1.417   4.171  0.1334 -0.8837  1.0218
   74MOL    H7627962   4.177   1.460   4.330  0.3165  0.8234 -1.5321
   74MOL    H7727963   4.056   1.336   4.304  0.9152 -1.3705 -0.4139
   74MOL    C7827964   3.911   1.850   3.811  0.4696  0.6385 -0.4307
   74MOL    C7927965   4.058   1.885   3.781 -0.5399  0.0436 -0.2821
   74MOL    O8027966   4.099   2.000   3.864 -0.0914 -0.2245 -0.1062
   74MOL    C8127967   4.214   1.990   3.937 -0.1787  0.1441  0.8012
   74MOL    C8227968   4.222   2.133   4.010 -0.4446 -0.1357 -0.3905
   74MOL    C8327969   4.136   2.156   4.133  0.0961  0.3608  0.1083
   74MOL    C8427970   4.148   2.298   4.189  0.7656  0.5392  0.1575
   74MOL    H8527971   3.858   1.931   3.761  1.7499  1.7692 -0.0131
   74MOL    H8627972   3.891   1.763   3.749  1.4685  0.2186 -0.1786
   74MOL    H8727973   4.113   1.793   3.801 -0.7572 -0.3103 -1.2549
   74MOL    H8827974   4.293   1.970   3.864 -1.8484 -1.4116 -0.6043
   74MOL    H8927975   4.208   1.898   3.995 -1.0694  0.5509  1.3523
   74MOL    H9027976   4.326   2.135   4.042 -0.6478  0.5233  0.2256
   74MOL    H9127977   4.200   2.217   3.944  0.1934 -0.7465 -1.4042
   74MOL    H9227978   4.165   2.087   4.213 -2.5521 -0.0882  0.7198
   74MOL    H9327979   4.030   2.140   4.115  0.4410  0.7532 -2.4601
   74MOL    H9427980   4.113   2.374   4.118  2.4270  0.0409 -1.2112
   74MOL    H9527981   4.097   2.323   4.282  1.3734  2.8911 -0.0933
   74MOL    H9627982   4.253   2.325   4.196  0.8361  0.5728 -0.8500
   74MOL    C9727983   4.102   1.901   3.631  0.3114 -0.0032 -0.1281
   74MOL    C9827984   4.062   1.780   3.537  0.6029 -0.1435 -0.6565
   74MOL    O9927985   3.940   1.818   3.465 -0.1572  0.5017  0.7744
   74MOL   C10027986   3.836   1.720   3.456 -0.2554 -0.0963 -0.5890
   74MOL   C10127987   3.717   1.775   3.376  0.5196  0.1423 -0.2402
   74MOL   C10227988   3.622   1.659   3.337 -0.0698 -0.1689 -0.1516
   74MOL   C10327989   3.515   1.625   3.439 -0.1336  0.2681  0.4958
   74MOL   H10427990   4.207   1.922   3.611 -0.3385  0.1880 -3.5513
   74MOL   H10527991   4.049   1.988   3.594 -0.4310 -0.2022  0.4459
   74MOL   H10627992   4.029   1.704   3.607 -0.3102 -0.9755 -1.9592
   74MOL   H10727993   3.801   1.707   3.559  0.6888  2.9754  0.1611
   74MOL   H10827994   3.884   1.632   3.413 -0.8786  0.5371 -2.6398
   74MOL   H10927995   3.748   1.809   3.277  2.4331  0.7545  0.5385
   74MOL   H11027996   3.665   1.855   3.429 -0.3129  0.0310 -0.8723
   74MOL   H11127997   3.674   1.565   3.319 -0.4738 -0.6548  1.1237
   74MOL   H11227998   3.579   1.684   3.240  0.7181  0.7985 -0.2497
   74MOL   H11327999   3.454   1.542   3.405 -0.1339  0.6486 -0.4543
   74MOL   H11428000   3.565   1.574   3.522 -1.4883 -3.5283 -0.9223
   74MOL   H11528001   3.454   1.711   3.467  1.5008  2.2338 -1.7105
   74MOL   C11628002   4.161   1.713   3.447  0.6768 -0.0262 -0.0994
   74MOL   C11728003   4.295   1.675   3.509  0.4267 -0.4925  0.4428
   74MOL   O11828004   4.269   1.569   3.609  0.2068 -0.5361 -0.1010
   74MOL   C11928005   4.358   1.590   3.724 -0.0398 -0.0377 -0.2356
   74MOL   C12028006   4.387   1.464   3.807 -0.4391 -0.5899 -0.3516
   74MOL   C12128007   4.259   1.390   3.857  0.2917  0.5848  0.5381
   74MOL   C12228008   4.277   1.267   3.946 -0.1995 -0.0259 -0.7315
   74MOL   H12328009   4.107   1.622   3.420  0.3590  0.5113 -1.3626
   74MOL   H12428010   4.175   1.774   3.357  4.6903 -0.3947  0.1980
   74MOL   H12528011   4.345   1.764   3.547  1.1632  0.4601 -2.6589
   74MOL   H12628012   4.323   1.676   3.781  1.4969  1.1283 -1.0230
   74MOL   H12728013   4.458   1.626   3.703 -0.8919  0.7055 -3.1394
   74MOL   H12828014   4.444   1.485   3.898 -0.4502 -3.9358  0.5058
   74MOL   H12928015   4.439   1.400   3.737  3.0338 -0.0716  1.6494
   74MOL   H13028016   4.201   1.467   3.908  2.5049  1.9417  1.0728
   74MOL   H13128017   4.192   1.355   3.779 -0.7637 -1.3714  2.2652
   74MOL   H13228018   4.187   1.254   4.006  0.0429  1.1115 -0.1090
   74MOL   H13328019   4.354   1.279   4.023 -0.6299 -0.8442 -0.1661
   74MOL   H13428020   4.298   1.175   3.892  1.2825  0.8130 -1.6105
   74MOL   C13528021   4.390   1.611   3.408  0.0056  0.2569 -0.2834
   74MOL   C13628022   4.461   1.704   3.311  0.5299 -0.5987 -0.0682
   74MOL   O13728023   4.529   1.803   3.395 -0.3742  0.2917 -0.6850
   74MOL   C13828024   4.481   1.938   3.371  0.0641  0.1797  0.3399
   74MOL   C13928025   4.550   2.034   3.464 -0.0033 -0.9437  0.1254
   74MOL   C14028026   4.524   2.019   3.615  0.4878  0.4868  0.1064
   74MOL   C14128027   4.585   2.123   3.703 -0.0067 -0.4224 -0.3760
   74MOL   H14228028   4.332   1.533   3.359 -0.3584  0.9856 -1.0352
   74MOL   H14328029   4.472   1.566   3.464 -0.6554 -0.5577  0.0331
   74MOL   H14428030   4.395   1.753   3.240 -0.6836 -1.8743  0.1516
   74MOL   H14528031   4.373   1.951   3.364  0.3033  1.1075 -2.7326
   74MOL   H14628032   4.519   1.972   3.274 -1.1582  2.1382  0.5318
   74MOL   H14728033   4.516   2.133   3.434 -1.2748 -1.4451 -0.1344
   74MOL   H14828034   4.655   2.023   3.438  0.2443 -0.7657  1.0329
   74MOL   H14928035   4.417   2.031   3.627  0.4656 -0.0951  0.4805
   74MOL   H15028036   4.540   1.911   3.627 -2.6297  0.0664  0.8120
   74MOL   H15128037   4.506   2.164   3.765 -1.2229 -1.4174 -1.2639
   74MOL   H15228038   4.662   2.067   3.756  0.9123  0.4141 -0.8120
   74MOL   H15328039   4.626   2.204   3.642  0.5577  0.4751  1.1612
   74MOL   C15428040   4.577   1.632   3.239 -0.6967  0.6325 -0.1193
   74MOL   C15528041   4.633   1.715   3.124 -0.2166  0.4828  0.1866
   74MOL   O15628042   4.528   1.736   3.035 -0.2010 -0.0919 -0.4184
   74MOL   C15728043   4.520   1.872   2.981  0.1330 -0.7273 -0.6958
   74MOL   C15828044   4.399   1.853   2.884 -0.0870  0.0005  0.4085
   74MOL   C15928045   4.380   1.977   2.789  0.3745  1.0125  0.5505
   74MOL   C16028046   4.489   1.979   2.691 -0.0765 -0.4792 -0.1455
   74MOL   H16128047   4.545   1.533   3.206 -0.4334 -0.7439  3.5579
   74MOL   H16228048   4.655   1.617   3.313  1.3761  3.5986 -1.5839
   74MOL   H16328049   4.679   1.807   3.161  2.7862 -0.6077 -0.6299
   74MOL   H16428050   4.499   1.953   3.051 -0.3733 -0.0873 -1.5784
   74MOL   H16528051   4.609   1.890   2.920 -0.5167 -0.9048 -1.7149
   74MOL   H16628052   4.317   1.831   2.951 -1.0600 -1.5211 -1.2306
   74MOL   H16728053   4.402   1.758   2.830 -0.1837 -0.2275  0.8017
   74MOL   H16828054   4.290   1.957   2.731  0.4540  4.0281 -0.7108
   74MOL   H16928055   4.364   2.077   2.830 -0.6286  0.5000  1.4430
   74MOL   H17028056   4.478   2.039   2.601 -0.9704 -3.2356 -1.9212
   74MOL   H17128057   4.587   2.002   2.732  0.3380  0.4476 -1.6059
   74MOL   H17228058   4.510   1.881   2.650  1.7631  1.0813 -3.1270
   74MOL   C17328059   4.736   1.631   3.052 -0.1410  0.1392 -0.8486
   74MOL   C17428060   4.862   1.601   3.131 -0.4453 -0.1089 -0.3846
   74MOL   O17528061   4.855   1.474   3.196 -0.4263  0.2186  0.1221
   74MOL   C17628062   4.965   1.449   3.293  0.7047  0.3580 -0.4023
   74MOL   C17728063   4.993   1.306   3.310 -0.2507  0.4688 -0.7103
   74MOL   C17828064   5.122   1.249   3.387  0.4639  0.7913 -0.2199
   74MOL   C17928065   5.120   1.094   3.394  0.4653 -0.4308  0.1232
   74MOL   H18028066   4.763   1.686   2.962  1.1204  0.6163 -0.1820
   74MOL   H18128067   4.695   1.535   3.020  1.2979 -0.3351 -1.2916
   74MOL   H18228068   4.893   1.683   3.197 -0.7169  0.0296 -0.4288
   74MOL   H18328069   4.951   1.503   3.387  0.6216 -0.0362 -0.1868
   74MOL   H18428070   5.055   1.497   3.255  0.6603 -0.5550 -1.7046
   74MOL   H18528071   4.989   1.247   3.218  0.1364  0.4260 -0.7008
   74MOL   H18628072   4.903   1.274   3.362 -0.9506  2.1720 -0.8565
   74MOL   H18728073   5.208   1.296   3.340  0.5327  1.5954  0.6884
   74MOL   H18828074   5.121   1.283   3.490  0.2737 -0.1844  0.1035
   74MOL   H18928075   5.113   1.054   3.293  0.8096  0.0143 -0.0811
   74MOL   H19028076   5.216   1.054   3.426  0.2036 -1.0924  0.0733
   74MOL   H19128077   5.029   1.065   3.445  0.5602  1.6372  1.5505
   74MOL   C19228078   4.977   1.600   3.020  0.2646 -0.5813  0.0352
   74MOL   C19328079   5.073   1.718   3.036  0.3366  0.7729  0.3445
   74MOL   O19428080   5.160   1.692   3.142  0.2051 -0.6398  0.4585
   74MOL   C19528081   5.198   1.790   3.233 -0.7099  0.3544 -0.1553
   74MOL   C19628082   5.296   1.737   3.334 -0.4480 -0.5439 -0.1651
   74MOL   C19728083   5.436   1.741   3.266  0.0162  0.2462 -0.1739
   74MOL   C19828084   5.475   1.627   3.175 -0.6528 -0.0123  0.0858
   74MOL   H19928085   4.938   1.602   2.919  0.4245  0.6324 -0.0065
   74MOL   H20028086   5.033   1.506   3.015  0.4544 -0.4676  0.0153
   74MOL   H20128087   5.019   1.811   3.053 -0.4629  0.5620 -0.9229
   74MOL   H20228088   5.114   1.830   3.289 -1.0498 -1.4191  0.6175
   74MOL   H20328089   5.241   1.877   3.182  0.4706 -0.3065 -0.2879
   74MOL   H20428090   5.294   1.799   3.424  1.1715  0.6825 -0.9446
   74MOL   H20528091   5.286   1.638   3.378 -0.8650 -0.2785  0.3342
   74MOL   H20628092   5.504   1.739   3.351 -1.1851  1.6188  0.8532
   74MOL   H20728093   5.458   1.837   3.221 -3.3602  0.7131 -0.9892
   74MOL   H20828094   5.450   1.531   3.220  1.0111  0.8680  3.0709
   74MOL   H20928095   5.422   1.644   3.082 -0.9988  0.7308  0.4077
   74MOL   H21028096   5.582   1.628   3.155 -0.8378 -0.1733 -0.8942
   74MOL   C21128097   5.159   1.756   2.915 -0.2094 -0.1342 -0.5857
   74MOL   C21228098   5.093   1.836   2.805  0.2684  0.2342 -0.1892
   74MOL   O21328099   5.050   1.966   2.858 -0.5929 -0.0388 -0.3580
   74MOL   C21428100   4.912   1.992   2.851  0.3564  0.7550 -0.3206
   74MOL   C21528101   4.855   2.099   2.948 -0.7776  0.0273  0.2638
   74MOL   C21628102   4.875   2.061   3.093 -0.7545 -0.3788 -0.4590
   74MOL   C21728103   4.837   2.167   3.194  0.4114 -0.3772 -0.2501
   74MOL   H21828104   5.195   1.662   2.873 -0.6691 -1.4796  1.9802
   74MOL   H21928105   5.240   1.818   2.952 -0.1886  0.1782 -1.1525
   74MOL   H22028106   5.008   1.778   2.768 -1.6557  1.5727  1.9875
   74MOL   H22128107   4.891   2.033   2.752 -0.1385 -1.1468 -1.0208
   74MOL   H22228108   4.843   1.908   2.854  1.2385 -0.0092 -1.4214
   74MOL   H22328109   4.887   2.201   2.927 -1.0008 -0.0961 -0.7125
   74MOL   H22428110   4.750   2.095   2.919 -0.6834  0.3445 -0.1222
   74MOL   H22528111   4.978   2.030   3.110 -0.0946  2.2096  0.4576
   74MOL   H22628112   4.827   1.966   3.115 -1.2587 -0.3968 -1.6201
   74MOL   H22728113   4.894   2.260   3.194  1.6490 -1.1154  1.2234
   74MOL   H22828114   4.852   2.123   3.292  1.3555 -0.8155 -0.5797
   74MOL   H22928115   4.733   2.192   3.173  0.5277  1.3132  1.1053
   74MOL   C23028116   5.165   1.845   2.668  0.3807 -0.7080  0.1664
   74MOL   C23128117   5.301   1.911   2.675  0.2014  0.5412 -0.2767
   74MOL   O23228118   5.397   1.809   2.685 -0.4972 -0.3074 -0.3808
   74MOL   C23328119   5.512   1.853   2.758  0.4230  0.4228 -0.3272
   74MOL   C23428120   5.606   1.736   2.784 -0.0069  0.1825 -0.7679
   74MOL   C23528121   5.730   1.777   2.861 -0.4389 -0.4399 -0.9140
   74MOL   C23628122   5.824   1.660   2.886  0.3831  0.4974  0.5738
   74MOL   H23728123   5.101   1.913   2.613  2.4748  2.7260  1.7970
   74MOL   H23828124   5.161   1.748   2.617 -0.1959  0.7606 -2.6590
   74MOL   H23928125   5.307   1.973   2.764 -0.9959  0.7131 -0.3035
   74MOL   H24028126   5.568   1.935   2.711 -0.5745  0.1317 -2.0430
   74MOL   H24128127   5.475   1.880   2.856 -1.0333 -0.2795 -0.6666
   74MOL   H24228128   5.550   1.656   2.831  0.7216 -0.3293 -0.7533
   74MOL   H24328129   5.644   1.678   2.700  0.9449 -1.3769  0.6968
   74MOL   H24428130   5.699   1.817   2.957  0.6050 -1.3327 -0.1938
   74MOL   H24528131   5.770   1.863   2.807  0.4573 -1.5151 -1.9970
   74MOL   H24628132   5.911   1.676   2.950  2.8620 -0.9958 -2.2866
   74MOL   H24728133   5.849   1.632   2.784 -0.6441  0.4932  0.3124
   74MOL   H24828134   5.766   1.576   2.923 -1.2693  1.4413  0.2030
   74MOL   C24928135   5.340   2.007   2.555  0.2956  0.2226  0.0722
   74MOL   C25028136   5.284   2.147   2.573 -0.7180  0.2208 -0.1644
   74MOL   O25128137   5.162   2.164   2.498  0.1968  0.2422 -0.1866
   74MOL   C25228138   5.058   2.249   2.569 -0.3554  0.0422  0.5090
   74MOL   C25328139   4.958   2.280   2.462  0.7293 -0.0938  0.3236
   74MOL   C25428140   4.837   2.362   2.515 -0.5644  0.9077  0.3650
   74MOL   C25528141   4.746   2.274   2.607 -0.5267 -0.1149 -0.2981
   74MOL   H25628142   5.320   1.965   2.457  0.7189  2.4251 -0.9853
   74MOL   H25728143   5.448   2.019   2.557  0.3981 -0.8156  1.6061
   74MOL   H25828144   5.255   2.168   2.676 -0.2042 -0.5468  0.1497
   74MOL   H25928145   5.088   2.349   2.600 -1.4815 -0.0226  1.8200
   74MOL   H26028146   5.023   2.202   2.661  0.3827  0.3381  0.9418
   74MOL   H26128147   5.009   2.333   2.382 -0.4762 -0.2489 -0.5707
   74MOL   H26228148   4.923   2.189   2.414  0.8031  1.3883 -2.7032
   74MOL   H26328149   4.861   2.454   2.569  0.0348  1.4321 -0.7698
   74MOL   H26428150   4.774   2.390   2.430 -1.2283  1.9543  1.1775
   74MOL   H26528151   4.649   2.317   2.633  0.7032  2.6615 -0.2328
   74MOL   H26628152   4.797   2.269   2.703 -0.3287 -0.1786 -0.4070
   74MOL   H26728153   4.741   2.171   2.569  1.2730 -0.1095 -0.5758
   74MOL   C26828154   5.386   2.250   2.530  0.7735  0.2452  0.7317
   74MOL   C26928155   5.348   2.399   2.541 -0.1020  0.2161  0.8723
   74MOL   O27028156   5.341   2.422   2.683 -0.1306 -0.2563  0.3227
   74MOL   C27128157   5.291   2.552   2.713 -0.0476 -0.3721 -0.1530
   74MOL   C27228158   5.225   2.561   2.846 -0.3933  0.4824 -0.0008
   74MOL   C27328159   5.092   2.481   2.867 -0.1827 -0.2726  0.4603
   74MOL   C27428160   5.051   2.493   3.016 -0.4849 -0.2435  0.0664
   74MOL   H27528161   5.466   2.244   2.604 -0.1472  0.1262  1.7469
   74MOL   H27628162   5.421   2.229   2.429  0.8638 -0.8436  0.9818
   74MOL   H27728163   5.254   2.429   2.495  1.2602  2.5060 -0.4918
   74MOL   H27828164   5.377   2.618   2.700 -1.3109  1.3857  0.2586
   74MOL   H27928165   5.217   2.594   2.645  2.0825  2.9118 -0.5987
   74MOL   H28028166   5.300   2.534   2.919  2.3216  1.9787 -2.1505
   74MOL   H28128167   5.203   2.667   2.858 -1.2250  0.5501 -1.8969
   74MOL   H28228168   5.116   2.376   2.849 -0.7488 -0.1070 -1.2609
   74MOL   H28328169   5.016   2.516   2.798  2.5100  0.6208 -2.1588
   74MOL   H28428170   5.137   2.449   3.066 -0.8211 -0.1697  0.7152
   74MOL   H28528171   4.969   2.422   3.030 -1.5435  0.7642 -0.8883
   74MOL   H28628172   5.028   2.593   3.053  3.4447 -0.1007  2.4845
   74MOL   C28728173   5.474   2.473   2.479  0.6375 -0.1106 -0.8654
   74MOL   C28828174   5.461   2.498   2.331  0.2466  0.3164  0.0741
   74MOL   O28928175   5.470   2.376   2.255 -0.4669  0.0094 -0.4224
   74MOL   C29028176   5.377   2.357   2.151  0.0797  0.2884 -0.3634
   74MOL   C29128177   5.323   2.213   2.158 -0.2667 -0.6589  0.1698
   74MOL   C29228178   5.219   2.180   2.044  0.6525  0.5420  0.4116
   74MOL   C29328179   5.278   2.139   1.906  0.3735 -0.2046 -0.2783
   74MOL   H29428180   5.566   2.418   2.496  0.9129  0.2630 -1.1541
   74MOL   H29528181   5.490   2.572   2.521 -0.1035 -0.0609 -0.6927
   74MOL   H29628182   5.362   2.543   2.322 -0.1577 -0.1763  1.8897
   74MOL   H29728183   5.290   2.419   2.172 -0.4838 -0.1018 -1.5322
   74MOL   H29828184   5.406   2.395   2.054  1.2523 -0.5232 -0.3411
   74MOL   H29928185   5.288   2.197   2.260  0.6693 -0.5668  0.5128
   74MOL   H30028186   5.405   2.143   2.139 -1.9415 -2.2578 -1.2360
   74MOL   H30128187   5.157   2.264   2.012 -0.0571  0.0165  0.3838
   74MOL   H30228188   5.149   2.103   2.079  1.5219 -0.3483  0.2151
   74MOL   H30328189   5.187   2.100   1.861 -0.0026 -1.1091  1.2127
   74MOL   H30428190   5.324   2.215   1.843  3.6868 -1.0311  1.0104
   74MOL   H30528191   5.354   2.061   1.913  0.8570  0.3895  1.3081
   74MOL   C30628192   5.560   2.605   2.275 -0.5797 -0.4924 -0.2289
   74MOL   C30728193   5.559   2.755   2.325 -0.0790  0.2192  0.2613
   74MOL   O30828194   5.630   2.766   2.451  0.5754 -0.1147  0.5223
   74MOL   C30928195   5.765   2.797   2.425 -0.4446 -0.2045  0.0779
   74MOL   C31028196   5.819   2.808   2.568  0.5399 -0.0042  0.0127
   74MOL   C31128197   5.833   2.672   2.630  0.5774 -0.0535 -0.5562
   74MOL   C31228198   5.907   2.673   2.762  0.1661 -0.2037  0.2147
   74MOL   H31328199   5.653   2.557   2.305 -0.1343 -0.0294 -0.8715
   74MOL   H31428200   5.530   2.615   2.171 -2.0777  0.3643  0.2724
   74MOL   H31528201   5.605   2.813   2.245 -1.0717 -1.3759 -1.5084
   74MOL   H31628202   5.776   2.891   2.371 -0.1429  0.4287  1.2159
   74MOL   H31728203   5.805   2.708   2.377 -2.8648 -1.5379  0.4672
   74MOL   H31828204   5.759   2.878   2.626  1.3248 -2.1669  3.5777
   74MOL   H31928205   5.913   2.864   2.560  0.9388 -0.9308 -2.0715
   74MOL   H32028206   5.734   2.638   2.658  1.3068 -1.0742  0.8232
   74MOL   H32128207   5.878   2.609   2.554 -1.1685  0.6192 -2.1895
   74MOL   H32228208   5.865   2.595   2.825  2.5273 -0.7094  1.1888
   74MOL   H32328209   5.894   2.765   2.819  0.5581 -0.1348  0.1910
   74MOL   H32428210   6.010   2.644   2.741 -0.2200 -0.7425 -1.0211
   74MOL   C32528211   5.420   2.814   2.330  0.3806 -0.7274 -0.4633
   74MOL   C32628212   5.418   2.961   2.380 -0.0391 -0.0323  0.1727
   74MOL   O32728213   5.306   3.034   2.336 -0.7648 -0.3480 -0.1626
   74MOL   C32828214   5.312   3.077   2.198 -1.0986 -0.5050  0.1714
   74MOL   C32928215   5.212   3.190   2.173  0.4590  0.2032 -0.3582
   74MOL   C33028216   5.267   3.331   2.222  0.0579 -0.2028 -0.0311
   74MOL   C33128217   5.181   3.444   2.181  0.3572 -1.2998 -0.1802
   74MOL   H33228218   5.349   2.757   2.390  1.1500  0.2049  1.3758
   74MOL   H33328219   5.390   2.821   2.225 -0.1906  2.4683 -0.1424
   74MOL   H33428220   5.516   2.998   2.351  1.0702 -2.5982  0.4684
   74MOL   H33528221   5.293   2.991   2.133  1.1338 -0.9100  0.0085
   74MOL   H33628222   5.413   3.111   2.176 -0.7194 -1.5909  0.1889
   74MOL   H33728223   5.185   3.207   2.069  2.6390 -0.6030 -1.0987
   74MOL   H33828224   5.117   3.165   2.221  0.9765 -1.0172  0.0632
   74MOL   H33928225   5.368   3.349   2.184 -0.1602 -0.7796 -0.9066
   74MOL   H34028226   5.275   3.326   2.330  2.3261 -0.4628 -0.1788
   74MOL   H34128227   5.239   3.531   2.211  1.1130 -0.6199 -3.3515
   74MOL   H34228228   5.083   3.439   2.228 -1.1361 -0.7362 -3.0796
   74MOL   H34328229   5.167   3.450   2.073  1.5488  1.7056 -0.2297
   74MOL   C34428230   5.397   2.966   2.535 -0.0162  0.0355  0.0339
   74MOL   C34528231   5.458   3.100   2.598 -0.0191 -0.2315  0.7197
   74MOL   O34628232   5.600   3.106   2.566 -0.0068 -0.2080 -0.5561
   74MOL   C34728233   5.642   3.234   2.521  0.1012 -0.4271  0.0605
   74MOL   C34828234   5.782   3.217   2.471  0.5438  0.4644  0.5339
   74MOL   C34928235   5.877   3.175   2.581  0.1150  0.1514 -0.6205
   74MOL   C35028236   6.027   3.178   2.542  0.3229 -0.4184 -0.1038
   74MOL   H35128237   5.292   2.948   2.561  0.5776 -2.5742  0.7796
   74MOL   H35228238   5.451   2.880   2.573 -0.0461 -0.2559 -0.5761
   74MOL   H35328239   5.396   3.181   2.559 -0.8418 -0.4854  1.4890
   74MOL   H35428240   5.630   3.291   2.613 -3.8142 -2.2535  0.7902
   74MOL   H35528241   5.575   3.266   2.441  0.0237 -0.6385  0.0403
   74MOL   H35628242   5.814   3.319   2.449  1.7258  0.4945  2.2604
   74MOL   H35728243   5.791   3.165   2.375 -2.3004  1.1325 -0.1222
   74MOL   H35828244   5.851   3.246   2.660  0.2173 -1.7662  1.1803
   74MOL   H35928245   5.854   3.073   2.611  1.7032 -0.3279 -0.9598
   74MOL   H36028246   6.089   3.147   2.626  2.2906 -0.7079 -1.6244
   74MOL   H36128247   6.071   3.264   2.492  1.7535 -1.1442 -0.0916
   74MOL   H36228248   6.052   3.090   2.484 -2.3686 -0.6707 -0.9818
   74MOL   C36328249   5.449   3.114   2.756 -0.2457  0.1933 -0.2338
   74MOL   C36428250   5.308   3.120   2.811 -0.5962 -0.5666  1.1675
   74MOL   O36528251   5.315   3.153   2.955 -0.1806 -0.3375  0.1787
   74MOL   C36628252   5.192   3.181   3.022 -0.0174 -0.1160  0.6038
   74MOL   C36728253   5.231   3.227   3.160 -0.0056 -0.0534 -0.6018
   74MOL   C36828254   5.109   3.237   3.259  0.1460 -0.3271  0.0948
   74MOL   C36928255   5.157   3.279   3.400 -0.6278  0.1393  0.5052
   74MOL   H37028256   5.503   3.207   2.769 -1.8033  0.9320  1.0693
   74MOL   H37128257   5.502   3.027   2.798 -1.1042 -0.6127 -0.8064
   74MOL   H37228258   5.256   3.028   2.788 -1.7421  0.5886 -1.0555
   74MOL   H37328259   5.137   3.087   3.024  1.3420 -0.9341 -0.1991
   74MOL   H37428260   5.146   3.257   2.958 -1.4988 -0.7034  0.9526
   74MOL   H37528261   5.275   3.327   3.153  2.3402 -1.0112  0.0413
   74MOL   H37628262   5.300   3.162   3.213 -1.6415 -0.9959  0.4113
   74MOL   H37728263   5.069   3.135   3.266 -0.6640  0.0074  0.5084
   74MOL   H37828264   5.036   3.304   3.213  0.7773  0.0341 -0.3771
   74MOL   H37928265   5.067   3.288   3.460 -0.3107  2.0771  0.7410
   74MOL   H38028266   5.230   3.213   3.447  0.0546  0.7910  0.3816
   74MOL   H38128267   5.201   3.380   3.398 -0.3633  0.0150 -2.2054
   74MOL   H38228268   5.262   3.204   2.757 -0.2706 -0.3745  1.1874
   75MOL     C128269   5.348   6.844   1.048  0.4170  0.2755 -0.4919
   75MOL     C228270   5.212   6.890   1.115 -0.1488  0.6795 -0.7128
   75MOL     O328271   5.131   6.776   1.125  0.0535  0.3811 -0.2555
   75MOL     C428272   5.061   6.751   1.003  0.0916 -0.8633 -0.9543
   75MOL     C528273   5.024   6.604   0.990  0.6211 -0.4927 -0.2700
   75MOL     C628274   5.145   6.511   0.993  0.0243  0.0543  0.6702
   75MOL     C728275   5.108   6.365   0.957 -0.5605  0.4341  0.5456
   75MOL     H828276   5.405   6.773   1.109  0.0366  2.8356  3.0107
   75MOL     H928277   5.349   6.817   0.943  2.9384 -0.9734 -0.2024
   75MOL    H1028278   5.160   6.960   1.050 -0.3537 -2.2908 -3.9591
   75MOL    H1128279   4.960   6.793   1.000  0.2772 -0.1373  1.6191
   75MOL    H1228280   5.119   6.787   0.918  0.6587 -0.3798 -0.3697
   75MOL    H1328281   4.977   6.585   0.893 -1.0363  0.4363  0.3306
   75MOL    H1428282   4.945   6.581   1.061  1.5726 -0.3560  0.8354
   75MOL    H1528283   5.189   6.514   1.093  0.9493  0.2322  0.2657
   75MOL    H1628284   5.214   6.541   0.914  3.2384 -2.9586  2.1715
   75MOL    H1728285   5.188   6.295   0.979 -2.7172 -1.5663  2.1609
   75MOL    H1828286   5.101   6.357   0.848 -1.5891 -0.8491  0.6987
   75MOL    H1928287   5.016   6.320   0.994 -0.0941 -0.1943  0.9353
   75MOL    H2028288   5.410   6.934   1.044  0.5912  0.2638  1.4513
   75MOL    C2128289   5.245   6.939   1.258  0.2718  0.7393  0.1561
   75MOL    C2228290   5.257   7.086   1.267 -0.3540 -0.2052  0.0272
   75MOL    O2328291   5.131   7.144   1.254  0.4101 -0.2354  0.1722
   75MOL    C2428292   5.101   7.221   1.138 -0.8233 -0.1191 -0.0774
   75MOL    C2528293   4.970   7.303   1.152 -0.5999  0.1317  0.4589
   75MOL    C2628294   4.837   7.219   1.127 -0.2765  0.6663 -0.0472
   75MOL    C2728295   4.718   7.304   1.090 -0.0473  0.9457  0.3408
   75MOL    H2828296   5.333   6.881   1.287  1.3841  2.6553  0.6624
   75MOL    H2928297   5.160   6.905   1.318  1.3999 -0.4405  1.1342
   75MOL    H3028298   5.329   7.116   1.191 -0.9394  0.0122 -0.4414
   75MOL    H3128299   5.094   7.160   1.048 -1.2077  3.2182 -2.3893
   75MOL    H3228300   5.176   7.293   1.107 -1.1447 -0.8604 -2.6535
   75MOL    H3328301   4.954   7.343   1.252 -1.3548 -1.6763  1.0746
   75MOL    H3428302   4.979   7.392   1.089 -1.1337  0.1939  0.4658
   75MOL    H3528303   4.863   7.143   1.052 -1.3425  0.1236  0.1314
   75MOL    H3628304   4.802   7.168   1.217  1.9845  0.1072  0.5542
   75MOL    H3728305   4.725   7.336   0.987  1.3713 -0.7533 -0.1227
   75MOL    H3828306   4.636   7.232   1.099  0.8833 -0.5943 -2.8099
   75MOL    H3928307   4.698   7.391   1.152 -0.1708  1.2548 -0.1379
   75MOL    C4028308   5.322   7.142   1.395  0.8087 -0.1340 -0.6350
   75MOL    C4128309   5.351   7.292   1.395 -0.6028 -0.1736  0.5943
   75MOL    O4228310   5.447   7.310   1.294 -0.1502  0.2512  0.2248
   75MOL    C4328311   5.448   7.433   1.226 -0.2061 -0.4224  0.0224
   75MOL    C4428312   5.554   7.434   1.118  0.2161  0.1095  0.5770
   75MOL    C4528313   5.540   7.310   1.032 -0.0367  0.0682  0.2479
   75MOL    C4628314   5.613   7.308   0.904 -0.0526  0.1245  0.6442
   75MOL    H4728315   5.415   7.087   1.410  0.9549  0.6403  1.3675
   75MOL    H4828316   5.264   7.113   1.482 -0.5448  0.5427 -1.3067
   75MOL    H4928317   5.260   7.351   1.378  0.5277  1.1999 -0.8733
   75MOL    H5028318   5.467   7.508   1.303 -1.6979  0.7961 -0.7941
   75MOL    H5128319   5.350   7.447   1.181  0.0227  1.0617 -0.0452
   75MOL    H5228320   5.650   7.424   1.168  0.5012 -2.1737 -0.3422
   75MOL    H5328321   5.551   7.529   1.064  0.0534  0.2643  0.8584
   75MOL    H5428322   5.436   7.289   1.006 -0.2671  2.5982 -1.0001
   75MOL    H5528323   5.583   7.233   1.096  0.0799  0.5347  0.7367
   75MOL    H5628324   5.642   7.207   0.875  1.3676  1.1739 -1.7452
   75MOL    H5728325   5.567   7.357   0.819  3.2376 -1.9399 -2.4809
   75MOL    H5828326   5.710   7.354   0.924  0.3060 -0.4651  0.2900
   75MOL    C5928327   5.408   7.336   1.532 -0.1517  0.5293 -0.7738
   75MOL    C6028328   5.307   7.347   1.650 -0.1879  0.2333 -0.3194
   75MOL    O6128329   5.373   7.385   1.771  0.3695  0.3146 -0.1674
   75MOL    C6228330   5.437   7.284   1.844  0.4668  0.2783 -0.6198
   75MOL    C6328331   5.479   7.347   1.977 -0.0344  0.1105 -0.3449
   75MOL    C6428332   5.578   7.254   2.051 -0.2075  0.2518  0.4248
   75MOL    C6528333   5.619   7.295   2.190  0.8018 -0.1844 -0.5649
   75MOL    H6628334   5.490   7.267   1.552 -0.7772 -0.7501 -2.5008
   75MOL    H6728335   5.459   7.432   1.532 -0.2700  0.6161  1.1441
   75MOL    H6828336   5.246   7.257   1.664  0.7195 -0.4309 -0.5804
   75MOL    H6928337   5.517   7.241   1.784 -1.1866 -0.2832 -2.4830
   75MOL    H7028338   5.372   7.200   1.869  0.4545  0.5150  0.1694
   75MOL    H7128339   5.520   7.447   1.967  0.8007 -0.0932  1.0354
   75MOL    H7228340   5.381   7.353   2.025  1.4756 -0.3257  2.9122
   75MOL    H7328341   5.532   7.155   2.060  0.2944  0.1596  2.1320
   75MOL    H7428342   5.670   7.245   1.992 -0.6246 -1.0358 -0.0437
   75MOL    H7528343   5.685   7.381   2.182 -1.4348  1.5791 -0.5970
   75MOL    H7628344   5.530   7.320   2.249  1.5409  2.5935 -0.5845
   75MOL    H7728345   5.674   7.218   2.244  2.3331 -0.0593 -1.9221
   75MOL    C7828346   5.207   7.467   1.627  0.1565  0.1892  0.2318
   75MOL    C7928347   5.085   7.446   1.722 -0.0999 -0.0246  0.3495
   75MOL    O8028348   5.002   7.339   1.669  0.1180 -0.1165 -0.3896
   75MOL    C8128349   4.946   7.248   1.757  0.5885  0.2639  0.2021
   75MOL    C8228350   4.878   7.146   1.666 -0.1163 -0.0475 -0.7726
   75MOL    C8328351   4.977   7.055   1.594 -0.2228 -0.6141  0.3160
   75MOL    C8428352   4.892   6.989   1.477  0.0715  0.3235 -0.1406
   75MOL    H8528353   5.173   7.468   1.523  0.8940 -0.8531 -0.0280
   75MOL    H8628354   5.258   7.562   1.645  0.2533  0.0615  0.6298
   75MOL    H8728355   5.126   7.417   1.818  0.3351  1.2172  0.5459
   75MOL    H8828356   4.876   7.299   1.824  1.4733 -0.1539  1.4784
   75MOL    H8928357   5.015   7.206   1.831 -1.4190 -0.3484  1.7540
   75MOL    H9028358   4.807   7.088   1.725 -0.1406  0.8477  0.0951
   75MOL    H9128359   4.819   7.193   1.588  0.3552  2.0067  0.0639
   75MOL    H9228360   5.030   6.984   1.656  2.5451  0.8032 -0.3630
   75MOL    H9328361   5.055   7.119   1.553  1.8410 -0.9457  3.5663
   75MOL    H9428362   4.860   7.056   1.397  0.0826 -2.6616 -2.7336
   75MOL    H9528363   4.946   6.906   1.431  1.1184  0.7324  0.3202
   75MOL    H9628364   4.808   6.944   1.529  0.8710  0.8090  1.6234
   75MOL    C9728365   4.991   7.568   1.747 -0.3859 -0.6639 -0.7062
   75MOL    C9828366   5.062   7.671   1.839  1.0428 -0.6557  0.5023
   75MOL    O9928367   5.182   7.735   1.794  0.0782 -0.4556  0.2735
   75MOL   C10028368   5.248   0.014   1.898 -0.4319 -0.0697  0.8713
   75MOL   C10128369   5.399   0.029   1.863  0.4745  0.1167 -0.2668
   75MOL   C10228370   5.476   7.704   1.900  0.3258  0.4833 -0.4314
   75MOL   C10328371   5.629   7.730   1.925 -0.1010 -0.3489 -0.9610
   75MOL   H10428372   4.900   7.534   1.796 -0.0852  0.6754  0.8031
   75MOL   H10528373   4.947   7.614   1.658  1.3233  0.1621 -1.1609
   75MOL   H10628374   5.075   7.619   1.934  1.6940 -2.4085 -0.5149
   75MOL   H10728375   5.236   7.767   1.995 -1.7628 -0.7157  0.4110
   75MOL   H10828376   5.205   0.111   1.924 -1.8497 -0.0882 -1.2673
   75MOL   H10928377   5.445   0.118   1.906 -1.2528  0.9838 -0.1903
   75MOL   H11028378   5.421   0.055   1.759 -1.0882  0.6439 -0.4820
   75MOL   H11128379   5.469   7.633   1.818  1.2322  1.3403 -1.2662
   75MOL   H11228380   5.433   7.640   1.977  0.7820  0.8161  0.1048
   75MOL   H11328381   5.684   7.643   1.959  0.8000  1.6077  2.8107
   75MOL   H11428382   5.675   7.756   1.829 -0.9389  0.9659 -1.0203
   75MOL   H11528383   5.648   0.011   1.993  1.9383 -2.0180  0.5426
   75MOL   C11628384   4.961   7.787   1.868 -0.1652  0.8939 -0.1653
   75MOL   C11728385   4.906   0.071   1.752  0.0280 -0.4799  0.0148
   75MOL   O11828386   4.777   0.118   1.794  0.0935 -0.3654  0.4509
   75MOL   C11928387   4.673   0.019   1.795  0.4094 -0.7051  0.3388
   75MOL   C12028388   4.538   0.073   1.825 -0.2349  0.0809  0.0756
   75MOL   C12128389   4.484   0.177   1.728  0.8277 -0.0580  0.4529
   75MOL   C12228390   4.345   0.220   1.768  0.1688 -0.0982  0.0405
   75MOL   H12328391   4.881   7.752   1.933  0.8696  0.8336  1.1052
   75MOL   H12428392   4.999   0.048   1.949 -1.7423 -0.4694  1.6831
   75MOL   H12528393   4.888   0.022   1.657 -1.8781 -0.1132  0.1716
   75MOL   H12628394   4.691   7.742   1.869  3.4875  0.1221  0.5364
   75MOL   H12728395   4.667   7.777   1.695  0.2897  0.3133 -0.1002
   75MOL   H12828396   4.534   0.103   1.930  0.6279  1.7417 -0.3466
   75MOL   H12928397   4.478   7.784   1.828  0.0945 -0.1080  0.9217
   75MOL   H13028398   4.549   0.264   1.735 -1.1075  1.2986  2.1055
   75MOL   H13128399   4.471   0.134   1.629 -1.7751  1.3395  0.1429
   75MOL   H13228400   4.271   0.140   1.762  1.9412 -1.8126  0.3698
   75MOL   H13328401   4.310   0.286   1.689  1.3119 -1.5725 -1.7293
   75MOL   H13428402   4.338   0.268   1.866  0.6649  0.5805 -0.2591
   75MOL   C13528403   4.995   0.198   1.725  0.3171 -0.0021 -0.2692
   75MOL   C13628404   4.982   0.249   1.582 -0.1875 -0.3934  0.3075
   75MOL   O13728405   5.023   0.157   1.486  0.2818  0.0732  0.5980
   75MOL   C13828406   5.153   0.102   1.508  0.7840  0.5316 -0.0276
   75MOL   C13928407   5.187   0.069   1.367 -0.1756 -0.4164  0.6534
   75MOL   C14028408   5.327   0.003   1.377  0.0998 -0.6190  0.2426
   75MOL   C14128409   5.397   0.011   1.238 -0.3567  0.1884  0.0236
   75MOL   H14228410   5.098   0.173   1.748  0.4074  0.7825  0.2129
   75MOL   H14328411   4.963   0.269   1.802  0.5163 -0.6028  0.3699
   75MOL   H14428412   5.059   0.325   1.568 -2.0909  1.5967  0.3259
   75MOL   H14528413   5.145   0.008   1.563  1.9603  0.9714  0.9418
   75MOL   H14628414   5.230   0.162   1.557  0.2770 -0.6037  2.2385
   75MOL   H14728415   5.182   0.155   1.301 -3.1328 -0.6000  0.5597
   75MOL   H14828416   5.120   7.798   1.321 -0.1630 -0.2572  0.3855
   75MOL   H14928417   5.393   0.054   1.447 -0.0889 -1.9959  1.4287
   75MOL   H15028418   5.314   7.708   1.425 -1.6848 -0.4492  0.1204
   75MOL   H15128419   5.500   7.776   1.241 -0.6440 -0.5934  0.5231
   75MOL   H15228420   5.355   7.752   1.158 -1.2926  0.4531  0.3019
   75MOL   H15328421   5.399   0.115   1.207 -2.1205  0.2819  0.1599
   75MOL   C15428422   4.841   0.317   1.547 -0.1131 -0.4352  0.0381
   75MOL   C15528423   4.850   0.443   1.459 -0.5997 -0.6615 -0.2062
   75MOL   O15628424   4.936   0.420   1.344  1.1984  0.7028  0.0627
   75MOL   C15728425   4.862   0.372   1.227 -0.2511 -0.4243 -0.0546
   75MOL   C15828426   4.935   0.262   1.153 -0.2528  0.4751 -0.0660
   75MOL   C15928427   5.059   0.325   1.074 -0.2622 -0.1176  0.6079
   75MOL   C16028428   5.149   0.224   1.001  0.0658 -0.7393 -0.4260
   75MOL   H16128429   4.781   0.330   1.637 -0.1845  1.1377 -0.2373
   75MOL   H16228430   4.785   0.243   1.488 -0.2330 -0.4846  0.2123
   75MOL   H16328431   4.753   0.482   1.430 -1.1646  0.1273  2.5782
   75MOL   H16428432   4.766   0.330   1.257 -0.6176  0.3050 -0.2066
   75MOL   H16528433   4.828   0.455   1.165  0.9443 -0.8325 -1.2919
   75MOL   H16628434   4.873   0.211   1.080  0.7671  0.6453 -1.0692
   75MOL   H16728435   4.965   0.187   1.226 -0.0970 -0.3020 -0.9259
   75MOL   H16828436   5.021   0.397   1.002 -0.9785  0.0007  1.1069
   75MOL   H16928437   5.123   0.369   1.150 -2.4359 -1.1116  3.0669
   75MOL   H17028438   5.174   0.141   1.067 -2.2478  1.7951  3.8571
   75MOL   H17128439   5.084   0.183   0.924 -0.2231 -1.5855  0.2551
   75MOL   H17228440   5.234   0.267   0.948 -0.1281  1.1227  0.7220
   75MOL   C17328441   4.902   0.562   1.534 -0.9674  0.2623 -0.8868
   75MOL   C17428442   4.893   0.693   1.450 -0.2325  0.4432 -0.3086
   75MOL   O17528443   4.755   0.732   1.465  0.2867 -0.6146 -0.1972
   75MOL   C17628444   4.704   0.819   1.355  0.5021  0.0657 -0.2731
   75MOL   C17728445   4.568   0.760   1.300  0.3303  0.3818 -0.1493
   75MOL   C17828446   4.510   0.845   1.188 -0.1500 -0.1230  0.7044
   75MOL   C17928447   4.585   0.845   1.049  0.5047 -0.1306  1.6212
   75MOL   H18028448   5.006   0.539   1.559 -0.7852  1.2831 -0.7139
   75MOL   H18128449   4.856   0.576   1.631 -0.3455 -3.2791  0.0074
   75MOL   H18228450   4.922   0.673   1.347  0.6588  0.5223 -0.0842
   75MOL   H18328451   4.777   0.818   1.275  0.8309  0.5749  0.0226
   75MOL   H18428452   4.699   0.923   1.388  0.0663  0.8048 -2.5896
   75MOL   H18528453   4.498   0.765   1.383 -0.4152 -0.0744 -0.7537
   75MOL   H18628454   4.590   0.661   1.260  0.0081  0.3601 -0.2744
   75MOL   H18728455   4.408   0.808   1.177  0.9230 -3.3597  1.3156
   75MOL   H18828456   4.512   0.948   1.224 -0.7513  0.1194  0.0528
   75MOL   H18928457   4.547   0.926   0.987 -1.4129 -2.4912 -0.4064
   75MOL   H19028458   4.692   0.853   1.066  1.0502 -1.3094 -0.9752
   75MOL   H19128459   4.566   0.760   0.983 -2.0604 -0.7665  3.1075
   75MOL   C19228460   4.981   0.803   1.504 -0.2715 -0.0578 -0.7090
   75MOL   C19328461   5.138   0.779   1.521 -0.3998 -0.1009  0.2314
   75MOL   O19428462   5.202   0.766   1.388 -0.7692  0.3112  0.3934
   75MOL   C19528463   5.211   0.631   1.336 -0.0147  0.2565 -0.1581
   75MOL   C19628464   5.326   0.569   1.408 -0.3016  0.7393  0.4747
   75MOL   C19728465   5.358   0.430   1.353 -0.1669  0.9916 -0.1410
   75MOL   C19828466   5.482   0.365   1.419  0.2568  0.4416  0.3009
   75MOL   H19928467   4.943   0.828   1.603  0.3072  0.6540 -0.6651
   75MOL   H20028468   4.962   0.888   1.439  0.0263  0.6688  0.1516
   75MOL   H20128469   5.162   0.688   1.575  0.0825 -0.2104 -0.1760
   75MOL   H20228470   5.217   0.635   1.228  0.7251 -0.3776 -0.1407
   75MOL   H20328471   5.114   0.586   1.358 -0.0436 -0.5231 -1.8006
   75MOL   H20428472   5.416   0.630   1.394 -0.0126  0.2614  0.2342
   75MOL   H20528473   5.308   0.556   1.515  0.2867 -0.0994  0.4771
   75MOL   H20628474   5.386   0.441   1.248 -1.6552 -1.2618 -0.8226
   75MOL   H20728475   5.268   0.370   1.361  0.1534  0.2568 -1.7798
   75MOL   H20828476   5.576   0.416   1.399 -0.2947  0.8400 -1.3109
   75MOL   H20928477   5.463   0.365   1.526  1.1986  2.0079  0.4854
   75MOL   H21028478   5.506   0.265   1.384 -0.0986 -0.0774  1.5153
   75MOL   C21128479   5.202   0.896   1.596 -0.8663 -0.5257  0.0352
   75MOL   C21228480   5.350   0.867   1.648 -0.7646 -0.2961 -0.3147
   75MOL   O21328481   5.435   0.979   1.672  1.1413  0.1376 -0.2762
   75MOL   C21428482   5.468   1.047   1.555  0.2629  0.1056 -0.2434
   75MOL   C21528483   5.585   1.146   1.575  0.1854 -0.3015  0.8301
   75MOL   C21628484   5.549   1.263   1.662  0.3651  0.2247  0.2640
   75MOL   C21728485   5.659   1.362   1.662 -0.4570  0.0464  0.0808
   75MOL   H21828486   5.147   0.939   1.680  1.6521 -2.2676  2.7027
   75MOL   H21928487   5.215   0.977   1.524 -2.9751 -0.6909 -0.5500
   75MOL   H22028488   5.404   0.810   1.572  0.8907 -0.9199  1.3070
   75MOL   H22128489   5.493   0.977   1.476 -0.3570  1.1946 -1.4368
   75MOL   H22228490   5.383   1.109   1.524  0.8176  1.3173  0.5765
   75MOL   H22328491   5.680   1.105   1.609  1.1906  1.1754 -0.1218
   75MOL   H22428492   5.597   1.191   1.476 -1.8075  0.3634  0.8662
   75MOL   H22528493   5.543   1.220   1.762  0.8007 -0.3339  0.0565
   75MOL   H22628494   5.452   1.307   1.637  0.8458  1.4126  0.5000
   75MOL   H22728495   5.750   1.330   1.713 -0.2539 -2.1499 -1.6147
   75MOL   H22828496   5.605   1.449   1.701  0.6366  0.5106  0.5863
   75MOL   H22928497   5.689   1.388   1.560 -0.2250  1.1234  0.4104
   75MOL   C23028498   5.347   0.778   1.777 -0.2011  1.0028  0.7926
   75MOL   C23128499   5.482   0.725   1.835 -0.4764  0.4177  0.3653
   75MOL   O23228500   5.464   0.646   1.949  0.2109 -0.2516 -0.1745
   75MOL   C23328501   5.436   0.718   2.075 -0.1464  0.0633  0.1191
   75MOL   C23428502   5.569   0.745   2.146  0.2510  0.3631 -0.8356
   75MOL   C23528503   5.559   0.811   2.286  0.3058 -0.0442  0.3813
   75MOL   C23628504   5.696   0.839   2.351 -0.3568  0.1892  0.8427
   75MOL   H23728505   5.290   0.687   1.756  0.9370  0.3590  0.4942
   75MOL   H23828506   5.280   0.829   1.847 -1.6326  0.1770  0.0524
   75MOL   H23928507   5.539   0.814   1.861 -0.5664  0.9773 -1.3267
   75MOL   H24028508   5.374   0.803   2.047 -2.0453 -0.8746  1.3525
   75MOL   H24128509   5.390   0.639   2.135  1.2266  0.0858  1.2188
   75MOL   H24228510   5.620   0.649   2.159  3.2413  2.0049  0.0177
   75MOL   H24328511   5.636   0.805   2.084  2.5750 -1.3133 -0.0065
   75MOL   H24428512   5.484   0.767   2.351 -1.0795  0.1369 -1.0673
   75MOL   H24528513   5.519   0.906   2.251 -0.6521  0.0697  1.7627
   75MOL   H24628514   5.754   0.905   2.287  0.5419 -1.2112  0.1782
   75MOL   H24728515   5.758   0.751   2.373  1.3525  1.1099 -0.1665
   75MOL   H24828516   5.664   0.884   2.445 -0.3049  1.3319  0.3152
   75MOL   C24928517   5.550   0.627   1.733  0.0860 -0.8699 -0.6392
   75MOL   C25028518   5.686   0.569   1.753 -0.5028  0.2185  0.2665
   75MOL   O25128519   5.783   0.648   1.690  0.8324 -0.4320  0.0283
   75MOL   C25228520   5.809   0.774   1.748  0.1064 -0.5179 -0.1622
   75MOL   C25328521   5.962   0.800   1.739  0.3226  0.2659  0.0486
   75MOL   C25428522   6.045   0.709   1.826  0.1262  0.2267 -0.1446
   75MOL   C25528523   6.198   0.721   1.801  0.1968 -0.5651  0.5463
   75MOL   H25628524   5.559   0.684   1.641  0.9986  0.4958  0.2771
   75MOL   H25728525   5.473   0.552   1.720  0.0708 -1.1993  1.2758
   75MOL   H25828526   5.707   0.553   1.859 -0.8656 -0.7621  0.1936
   75MOL   H25928527   5.775   0.784   1.851 -0.7661  1.6075 -0.6416
   75MOL   H26028528   5.754   0.846   1.688 -0.5814 -1.5962 -0.8462
   75MOL   H26128529   5.987   0.785   1.633  0.7009 -0.7648  0.2724
   75MOL   H26228530   5.997   0.900   1.764  2.3045 -0.9018  2.1174
   75MOL   H26328531   6.017   0.736   1.928 -2.8329  1.4502 -1.2431
   75MOL   H26428532   6.024   0.610   1.787  0.2700 -0.3559  1.2430
   75MOL   H26528533   6.224   0.720   1.695 -0.4060  3.0060  0.3016
   75MOL   H26628534   6.248   0.630   1.835  0.8845 -0.9467 -1.4061
   75MOL   H26728535   6.243   0.808   1.849  0.9407 -0.5521 -0.1642
   75MOL   C26828536   5.704   0.440   1.672  0.0887  0.0316  0.1005
   75MOL   C26928537   5.818   0.363   1.732 -0.3673  0.0749 -0.6233
   75MOL   O27028538   5.784   0.333   1.864  0.1719  0.0187  0.2899
   75MOL   C27128539   5.890   0.334   1.957  0.1634 -0.2649 -0.6076
   75MOL   C27228540   5.839   0.263   2.085  0.2001  0.3529 -0.0273
   75MOL   C27328541   5.708   0.312   2.144 -0.2426  0.0232 -0.2608
   75MOL   C27428542   5.682   0.264   2.276  0.8278 -0.0532  0.0389
   75MOL   H27528543   5.617   0.375   1.683 -0.0096  0.3950  1.5989
   75MOL   H27628544   5.715   0.462   1.566 -3.1652 -0.5516 -0.4315
   75MOL   H27728545   5.908   0.424   1.727  0.0337  0.2684  5.6617
   75MOL   H27828546   5.979   0.286   1.918 -0.6349 -1.7218 -0.6957
   75MOL   H27928547   5.929   0.434   1.974  0.2569 -0.4652  0.3809
   75MOL   H28028548   5.826   0.157   2.063  1.1092  0.4407 -1.0257
   75MOL   H28128549   5.925   0.269   2.152  0.2763  0.7517 -0.1627
   75MOL   H28228550   5.620   0.296   2.081 -0.4588  0.3924 -0.0586
   75MOL   H28328551   5.704   0.421   2.155  0.5959 -0.1122  1.5344
   75MOL   H28428552   5.758   0.287   2.351  0.3180 -2.2292  1.2555
   75MOL   H28528553   5.692   0.156   2.271 -0.9372 -0.2386  0.4213
   75MOL   H28628554   5.589   0.302   2.318 -0.5336  0.2773 -3.1418
   75MOL   C28728555   5.819   0.219   1.673 -0.2832 -0.3311  0.4602
   75MOL   C28828556   5.853   0.201   1.521 -0.4923  0.3855 -0.6786
   75MOL   O28928557   5.844   0.063   1.480 -0.3231  0.0923  0.0415
   75MOL   C29028558   5.722   0.023   1.421 -0.2856  0.1219  0.2020
   75MOL   C29128559   5.740   7.681   1.375 -0.7621  0.4380  0.0010
   75MOL   C29228560   5.757   7.571   1.480 -0.1352 -0.4564  0.4257
   75MOL   C29328561   5.808   7.433   1.435  0.7368 -0.2004  0.5002
   75MOL   H29428562   5.730   0.159   1.692  0.8697 -1.4185  2.5312
   75MOL   H29528563   5.894   0.168   1.733 -0.2090  0.3095  0.9178
   75MOL   H29628564   5.786   0.260   1.459 -2.3153  0.3085  1.1906
   75MOL   H29728565   5.642   0.019   1.495 -0.2236  0.1448  0.2705
   75MOL   H29828566   5.692   0.091   1.341 -4.3351 -2.8595 -0.9707
   75MOL   H29928567   5.828   7.682   1.310 -0.1583  1.6330  0.8235
   75MOL   H30028568   5.666   7.640   1.307 -0.2240  0.0107 -0.3406
   75MOL   H30128569   5.659   7.540   1.518 -0.7013 -2.1367 -2.2585
   75MOL   H30228570   5.821   7.605   1.561  0.1219 -0.6439  0.3001
   75MOL   H30328571   5.728   7.387   1.378 -0.6177  1.7688  0.7515
   75MOL   H30428572   5.894   7.448   1.370  0.6596  0.8367  0.6357
   75MOL   H30528573   5.838   7.370   1.519  2.8049  2.0111  1.4823
   75MOL   C30628574   6.000   0.245   1.495  0.5679 -0.2867 -0.0755
   75MOL   C30728575   6.031   0.232   1.348 -0.0909 -0.0232 -0.7753
   75MOL   O30828576   6.168   0.205   1.319  0.1654 -0.0679  0.5548
   75MOL   C30928577   6.207   0.071   1.332 -0.6934  0.2062 -0.3917
   75MOL   C31028578   6.357   0.059   1.331  0.6685 -0.0375  0.3651
   75MOL   C31128579   6.401   7.793   1.205  0.0913 -0.0826 -0.3422
   75MOL   C31228580   6.366   7.641   1.198 -0.3342  0.0579 -0.4264
   75MOL   H31328581   6.021   0.346   1.531  2.8591 -0.7305 -0.1509
   75MOL   H31428582   6.062   0.180   1.557  0.5501  0.8271  1.1463
   75MOL   H31528583   5.974   0.151   1.303  3.4824 -2.5757 -0.9487
   75MOL   H31628584   6.146   0.002   1.273 -0.9710 -0.7287  0.9648
   75MOL   H31728585   6.180   0.047   1.435  1.3106 -0.5536 -0.0307
   75MOL   H31828586   6.384   7.798   1.416 -0.1070 -0.2420  0.4576
   75MOL   H31928587   6.408   0.156   1.338  1.1521 -0.4354  2.8895
   75MOL   H32028588   6.360   0.044   1.119 -3.8011 -0.6683  1.0600
   75MOL   H32128589   6.507   0.014   1.193 -0.0915  1.0819  0.1508
   75MOL   H32228590   6.430   7.597   1.122  1.7471  1.2001  0.6407
   75MOL   H32328591   6.263   7.611   1.179 -0.6000 -0.1553  1.2165
   75MOL   H32428592   6.388   7.610   1.300 -0.5975  2.9882  0.5519
   75MOL   C32528593   5.997   0.359   1.273 -0.7496 -0.3562 -0.2317
   75MOL   C32628594   6.024   0.353   1.114  0.1000 -0.6008  0.4935
   75MOL   O32728595   5.977   0.228   1.062  0.2876 -0.5480  0.0716
   75MOL   C32828596   6.045   0.176   0.944  0.1884  0.1879 -0.5898
   75MOL   C32928597   5.965   0.046   0.887  0.2150  0.2654  0.0342
   75MOL   C33028598   5.954   7.750   1.009 -0.3846 -0.3478 -0.4433
   75MOL   C33128599   5.866   7.626   0.984  0.1356 -0.2281  0.2157
   75MOL   H33228600   6.054   0.440   1.317  1.1637 -1.5987 -0.3242
   75MOL   H33328601   5.893   0.384   1.293 -0.1244 -0.3762  3.3516
   75MOL   H33428602   6.133   0.350   1.120  0.0935 -1.5746  0.2545
   75MOL   H33528603   6.146   0.151   0.976  0.2711  0.1669 -0.8655
   75MOL   H33628604   6.061   0.246   0.862 -2.9680  1.2901 -0.3427
   75MOL   H33728605   5.863   0.065   0.853 -0.7591 -3.0653  0.8890
   75MOL   H33828606   6.014   7.796   0.805 -0.2699 -1.8245  0.9997
   75MOL   H33928607   5.912   7.795   1.099  1.1990  0.3297 -0.0304
   75MOL   H34028608   6.052   7.716   1.042  0.2144  1.2212 -0.5691
   75MOL   H34128609   5.853   7.576   1.080 -1.8916  1.0388  0.6170
   75MOL   H34228610   5.924   7.569   0.911  1.5195  0.4313  0.7703
   75MOL   H34328611   5.773   7.655   0.937  0.9044 -0.0449 -1.2033
   75MOL   C34428612   5.980   0.479   1.038  0.1726  0.3259 -0.1361
   75MOL   C34528613   6.018   0.619   1.096 -0.6625 -0.2654 -0.6395
   75MOL   O34628614   5.948   0.672   1.211 -0.6291  0.3532 -0.5602
   75MOL   C34728615   5.803   0.680   1.199 -0.3718 -0.0735  0.2226
   75MOL   C34828616   5.741   0.735   1.334  0.1208 -0.5647  0.4677
   75MOL   C34928617   5.786   0.878   1.374 -0.1702 -0.2256  0.4402
   75MOL   C35028618   5.728   0.985   1.282 -0.1463 -0.0128 -0.2336
   75MOL   H35128619   6.035   0.464   0.945  0.7892 -1.8568  0.5362
   75MOL   H35228620   5.875   0.469   1.011  0.3605 -1.5047 -0.2418
   75MOL   H35328621   6.121   0.604   1.129 -1.0607 -2.5742 -0.3965
   75MOL   H35428622   5.755   0.584   1.180  1.0627 -0.8536  0.5342
   75MOL   H35528623   5.774   0.745   1.116  3.0585 -1.1339 -1.9126
   75MOL   H35628624   5.769   0.670   1.417 -0.3737  0.5383  1.5058
   75MOL   H35728625   5.634   0.718   1.347  0.2944 -3.0538 -0.9796
   75MOL   H35828626   5.753   0.894   1.476 -0.5364 -0.0032  0.2876
   75MOL   H35928627   5.895   0.886   1.369 -0.2819  0.3391 -2.2022
   75MOL   H36028628   5.622   1.006   1.297  0.0804  0.1258  1.2911
   75MOL   H36128629   5.751   0.984   1.176 -0.8186  0.0292 -0.3858
   75MOL   H36228630   5.766   1.085   1.303 -0.6738  0.1025  0.1789
   75MOL   C36328631   6.016   0.720   0.982 -0.1227 -0.3299 -0.0985
   75MOL   C36428632   6.105   0.839   1.018 -0.1145  0.3849  0.4670
   75MOL   O36528633   6.118   0.906   0.895 -0.3175 -0.5172  0.0772
   75MOL   C36628634   6.223   0.994   0.877  0.3212  0.1244 -0.9755
   75MOL   C36728635   6.211   1.060   0.740 -1.1583  0.5835 -0.4037
   75MOL   C36828636   6.218   0.968   0.624  0.6715 -0.9951  0.5451
   75MOL   C36928637   6.239   1.047   0.493  0.0580  0.4787 -0.4991
   75MOL   H37028638   5.916   0.755   0.957  0.5522  2.2090  0.5411
   75MOL   H37128639   6.049   0.676   0.889  0.6160  0.2336 -0.1104
   75MOL   H37228640   6.197   0.787   1.044 -0.5313  0.1514  1.5007
   75MOL   H37328641   6.317   0.939   0.876  0.5223  0.4147  0.3998
   75MOL   H37428642   6.236   1.070   0.954  0.3508  0.7106 -1.5574
   75MOL   H37528643   6.277   1.146   0.735 -2.1180  1.2843 -1.1654
   75MOL   H37628644   6.112   1.104   0.731 -1.6419 -0.5968 -0.9469
   75MOL   H37728645   6.136   0.897   0.618 -0.7060  0.6947 -1.7132
   75MOL   H37828646   6.305   0.906   0.642  0.2406 -1.8644 -0.3492
   75MOL   H37928647   6.146   1.085   0.449 -1.4564 -1.3229  1.0383
   75MOL   H38028648   6.298   1.137   0.511 -2.3383  2.0829 -0.4346
   75MOL   H38128649   6.290   0.983   0.421 -1.9944  0.6007 -2.1304
   75MOL   H38228650   6.071   0.902   1.099  2.2087 -1.4483  2.9481
   76MOL     C128651   2.067   2.215   5.573 -0.0062 -0.4783  0.2439
   76MOL     C228652   2.181   2.249   5.671 -0.2529  0.2199 -0.0639
   76MOL     O328653   2.162   2.164   5.780  0.3509  0.1775  0.2441
   76MOL     C428654   2.209   2.213   5.907  0.2385  0.5913  0.0778
   76MOL     C528655   2.203   2.102   6.012 -0.4784  0.4968 -0.2629
   76MOL     C628656   2.066   2.077   6.080  0.3372 -0.5131  0.5790
   76MOL     C728657   2.070   1.966   6.182  0.2377  0.2228  0.1192
   76MOL     H828658   1.974   2.250   5.618  1.1430  1.3790  1.2685
   76MOL     H928659   2.097   2.258   5.477  1.2253 -0.9800  0.3871
   76MOL    H1028660   2.171   2.352   5.706  1.3326 -0.1034  1.4173
   76MOL    H1128661   2.311   2.250   5.903  0.7493 -0.7999  0.1153
   76MOL    H1228662   2.149   2.298   5.940  0.7487  0.6221  0.9358
   76MOL    H1328663   2.264   2.117   6.102  1.7668 -0.6217 -1.5390
   76MOL    H1428664   2.254   2.014   5.973 -1.0215  0.8735 -1.8727
   76MOL    H1528665   1.993   2.048   6.004 -0.9493  1.7727  0.9120
   76MOL    H1628666   2.031   2.172   6.120 -0.2590 -0.6657  0.4367
   76MOL    H1728667   1.970   1.929   6.204  0.8970 -1.4049  0.4034
   76MOL    H1828668   2.116   1.997   6.276 -1.4040  0.4194  0.8727
   76MOL    H1928669   2.124   1.884   6.135 -2.1215 -1.6613  0.6159
   76MOL    H2028670   2.056   2.108   5.557 -2.6944 -0.4345  1.5509
   76MOL    C2128671   2.322   2.240   5.615 -0.1623 -0.8498 -0.4166
   76MOL    C2228672   2.387   2.367   5.551 -0.1760  0.2731 -0.3623
   76MOL    O2328673   2.471   2.441   5.633  0.5366 -0.4351 -0.1857
   76MOL    C2428674   2.398   2.511   5.737  0.6837  0.0241  0.5548
   76MOL    C2528675   2.482   2.608   5.823 -0.1564 -0.0680 -0.2909
   76MOL    C2628676   2.417   2.666   5.959 -0.0119  0.4611  0.9090
   76MOL    C2728677   2.494   2.765   6.046 -1.0624  0.5890 -0.0528
   76MOL    H2828678   2.319   2.155   5.547  0.0124  0.1530 -1.6991
   76MOL    H2928679   2.385   2.202   5.696  0.1585  1.8368  0.6413
   76MOL    H3028680   2.303   2.425   5.514 -0.1681  0.2585 -0.4037
   76MOL    H3128681   2.357   2.440   5.809 -0.2310  0.2577  0.2683
   76MOL    H3228682   2.320   2.570   5.689  0.5105 -0.2221  0.5335
   76MOL    H3328683   2.572   2.554   5.851 -1.3866 -1.9259  0.1717
   76MOL    H3428684   2.517   2.701   5.778  1.4774 -0.0493  0.9924
   76MOL    H3528685   2.322   2.712   5.931  0.4326  0.8851  0.0664
   76MOL    H3628686   2.388   2.580   6.019 -1.3854  0.3471  0.1007
   76MOL    H3728687   2.513   2.859   5.994  0.9386  0.5544  0.5759
   76MOL    H3828688   2.453   2.793   6.143  1.3566  2.4568  0.4908
   76MOL    H3928689   2.590   2.719   6.068 -1.0324  0.0259 -1.3573
   76MOL    C4028690   2.486   2.332   5.430  0.5589  0.1972 -0.8177
   76MOL    C4128691   2.531   2.456   5.342 -0.1196 -0.4628 -0.1631
   76MOL    O4228692   2.414   2.490   5.272  0.1567  0.6468 -0.1611
   76MOL    C4328693   2.376   2.623   5.272 -0.1833 -0.5100  0.2042
   76MOL    C4428694   2.265   2.648   5.180 -0.0341  0.6971 -0.2561
   76MOL    C4528695   2.317   2.672   5.037  0.2120 -0.5914 -0.1373
   76MOL    C4628696   2.190   2.685   4.949  0.0002 -0.2099  0.4361
   76MOL    H4728697   2.431   2.265   5.364 -1.8694 -0.4175  1.7433
   76MOL    H4828698   2.571   2.273   5.465 -0.1992  0.5213  1.6060
   76MOL    H4928699   2.563   2.532   5.413  0.5220 -0.8919  0.0057
   76MOL    H5028700   2.448   2.695   5.234 -2.5295  0.8388 -1.8277
   76MOL    H5128701   2.347   2.642   5.375  2.9491 -1.8143  1.3949
   76MOL    H5228702   2.206   2.732   5.217 -1.4733 -1.2108  1.8937
   76MOL    H5328703   2.203   2.561   5.162 -0.4105  1.1810 -1.3490
   76MOL    H5428704   2.377   2.587   5.004  0.5965 -0.3629 -0.0356
   76MOL    H5528705   2.372   2.766   5.030 -0.6399  0.0883  2.0839
   76MOL    H5628706   2.143   2.587   4.939  0.3340 -0.2346 -0.9162
   76MOL    H5728707   2.120   2.760   4.985 -0.0246  0.2295 -0.5229
   76MOL    H5828708   2.223   2.718   4.851  1.3535  1.3139  1.3648
   76MOL    C5928709   2.638   2.432   5.241  0.7250 -0.6535 -0.1912
   76MOL    C6028710   2.779   2.442   5.296  0.2101  0.5018 -0.0589
   76MOL    O6128711   2.788   2.336   5.395  0.0789 -0.0265 -0.1253
   76MOL    C6228712   2.882   2.365   5.499 -0.1178 -0.6711 -0.3109
   76MOL    C6328713   2.934   2.235   5.570  0.0537 -0.9583  0.7721
   76MOL    C6428714   2.814   2.160   5.625  0.3259  0.1606  0.2570
   76MOL    C6528715   2.858   2.035   5.697  0.1081 -0.8171 -0.6117
   76MOL    H6628716   2.628   2.334   5.194 -1.0914 -0.3603 -0.4707
   76MOL    H6728717   2.622   2.498   5.156 -0.9287  0.3817  0.8867
   76MOL    H6828718   2.793   2.539   5.341 -0.1979  1.2850 -1.5750
   76MOL    H6928719   2.846   2.431   5.579  1.0720 -1.6222  1.0312
   76MOL    H7028720   2.968   2.409   5.448 -1.1610  1.2546 -0.4523
   76MOL    H7128721   2.995   2.168   5.510  1.3090  0.3455  0.5571
   76MOL    H7228722   3.003   2.254   5.652  1.2165  0.6442 -0.5368
   76MOL    H7328723   2.752   2.228   5.684  0.0823  1.5900 -1.6039
   76MOL    H7428724   2.743   2.135   5.546 -0.4693  0.8952  0.7274
   76MOL    H7528725   2.775   1.991   5.752 -0.6656 -0.9192 -1.8484
   76MOL    H7628726   2.903   1.951   5.644 -1.9088 -0.2354 -3.4173
   76MOL    H7728727   2.935   2.054   5.772  0.1188 -0.2811 -0.7513
   76MOL    C7828728   2.881   2.408   5.186  0.7752  0.1237 -0.1771
   76MOL    C7928729   2.943   2.538   5.125 -0.3220 -0.2722 -0.2132
   76MOL    O8028730   2.849   2.607   5.050  0.6603 -0.0701  0.0190
   76MOL    C8128731   2.818   2.737   5.097  0.3671 -0.1545  0.2947
   76MOL    C8228732   2.693   2.772   5.016  0.0615 -0.8474  0.5137
   76MOL    C8328733   2.638   2.913   5.026  0.4883  0.4739  0.0385
   76MOL    C8428734   2.581   2.970   5.158 -0.4852  0.7002 -0.2602
   76MOL    H8528735   2.822   2.356   5.110 -1.0390  1.6073  0.1678
   76MOL    H8628736   2.959   2.336   5.211 -1.2503 -0.7695  3.9110
   76MOL    H8728737   2.982   2.601   5.206  0.7173 -1.9007  0.5832
   76MOL    H8828738   2.904   2.802   5.080 -0.3342  1.1762  1.7418
   76MOL    H8928739   2.795   2.741   5.204 -1.1051 -1.3104  0.0408
   76MOL    H9028740   2.715   2.767   4.910  2.4196  0.4483  0.9053
   76MOL    H9128741   2.624   2.688   5.025 -0.6438 -0.2830  0.4151
   76MOL    H9228742   2.557   2.910   4.953 -2.4264  1.2502  3.1511
   76MOL    H9328743   2.713   2.984   4.989 -1.3475  2.7291  0.5300
   76MOL    H9428744   2.526   3.062   5.140 -3.2305 -0.7755  0.3322
   76MOL    H9528745   2.515   2.897   5.205 -0.2520  0.6671  0.0184
   76MOL    H9628746   2.660   3.005   5.225 -1.1854 -1.3762  1.7192
   76MOL    C9728747   3.070   2.521   5.024 -0.2915 -0.1375 -0.3788
   76MOL    C9828748   3.147   2.654   4.991 -0.3885  0.3567 -0.5445
   76MOL    O9928749   3.226   2.668   5.116  0.2859 -0.6524  0.1704
   76MOL   C10028750   3.241   2.801   5.159  0.2335 -0.4675 -0.7187
   76MOL   C10128751   3.161   2.822   5.292 -0.1167 -0.1856 -0.5063
   76MOL   C10228752   3.209   2.933   5.380  0.2875  0.4724 -0.1767
   76MOL   C10328753   3.174   2.910   5.529 -0.1914  0.1074  0.4011
   76MOL   H10428754   3.028   2.482   4.931 -0.1685  0.5345 -0.7246
   76MOL   H10528755   3.139   2.446   5.062 -0.5764  0.0061  0.4408
   76MOL   H10628756   3.065   2.726   4.984 -0.7080 -0.0101 -0.5548
   76MOL   H10728757   3.210   2.874   5.085  1.4879 -0.6046 -1.4048
   76MOL   H10828758   3.350   2.804   5.166  0.2189  0.1868 -0.7316
   76MOL   H10928759   3.161   2.725   5.342  0.5313 -0.3138 -0.7432
   76MOL   H11028760   3.056   2.842   5.271 -0.0160 -0.8180 -1.6863
   76MOL   H11128761   3.182   3.023   5.324 -1.3022  1.2544  1.7782
   76MOL   H11228762   3.318   2.927   5.380  0.2503 -0.4376  0.9264
   76MOL   H11328763   3.069   2.932   5.551  0.0015  0.6022  0.8486
   76MOL   H11428764   3.186   2.804   5.550  1.7408  0.1476 -0.4569
   76MOL   H11528765   3.235   2.965   5.601 -1.0710  0.2408  1.0575
   76MOL   C11628766   3.221   2.663   4.859 -0.2491 -0.0316 -0.3188
   76MOL   C11728767   3.138   2.645   4.726  0.6865  0.1727 -0.2481
   76MOL   O11828768   3.048   2.754   4.709  0.2711  0.4095  1.1691
   76MOL   C11928769   2.909   2.730   4.697 -0.5251  0.1784 -0.1647
   76MOL   C12028770   2.871   2.685   4.553  0.4750 -0.9676  0.8750
   76MOL   C12128771   2.897   2.796   4.448 -0.3711  0.3942  0.0684
   76MOL   C12228772   2.842   2.773   4.306  0.8674 -0.2366  0.4158
   76MOL   H12328773   3.278   2.755   4.847 -3.3875  2.0185 -0.2737
   76MOL   H12428774   3.306   2.597   4.876 -1.5774 -1.5218  0.6656
   76MOL   H12528775   3.101   2.543   4.726 -1.3394  0.8074  3.9454
   76MOL   H12628776   2.861   2.825   4.723  0.7154  0.7740  0.0039
   76MOL   H12728777   2.874   2.664   4.776  1.5178  0.1685  0.7789
   76MOL   H12828778   2.765   2.664   4.547  0.2448  0.2418  0.5040
   76MOL   H12928779   2.917   2.588   4.535  2.1151  0.0636 -0.6385
   76MOL   H13028780   2.836   2.878   4.485 -0.1220 -0.2594  1.9998
   76MOL   H13128781   3.000   2.830   4.438 -0.2945 -0.2297 -1.4498
   76MOL   H13228782   2.855   2.667   4.283  1.9608 -0.4634  2.0172
   76MOL   H13328783   2.907   2.828   4.237 -0.1762 -1.3547 -1.4898
   76MOL   H13428784   2.738   2.795   4.280  2.0347  2.7115 -2.0160
   76MOL   C13528785   3.228   2.638   4.602 -1.0525  0.0378  0.6646
   76MOL   C13628786   3.328   2.754   4.579  0.3848  0.4227  0.4878
   76MOL   O13728787   3.434   2.733   4.667  0.0882 -0.5137 -0.9727
   76MOL   C13828788   3.508   2.848   4.702 -0.0988  0.2561 -0.0490
   76MOL   C13928789   3.584   2.840   4.839 -0.3295 -0.1034 -0.0286
   76MOL   C14028790   3.666   2.705   4.851 -0.1358  0.1036 -0.0254
   76MOL   C14128791   3.715   2.676   4.991 -0.0130  0.2646 -0.5404
   76MOL   H14228792   3.159   2.623   4.519 -0.7069 -3.7430  0.9623
   76MOL   H14328793   3.277   2.541   4.596 -1.5681 -0.2759  1.4131
   76MOL   H14428794   3.277   2.848   4.602 -0.0806  0.0563  0.9759
   76MOL   H14528795   3.441   2.934   4.698  1.2720  1.2946 -0.9983
   76MOL   H14628796   3.579   2.849   4.620  0.6640  0.0944  0.6083
   76MOL   H14728797   3.516   2.846   4.924  1.3444 -1.6833  1.4597
   76MOL   H14828798   3.645   2.931   4.842  1.6039 -1.3527 -0.5066
   76MOL   H14928799   3.606   2.619   4.822 -0.8865  1.5146 -2.8327
   76MOL   H15028800   3.756   2.704   4.788 -0.6404 -1.1243 -0.7315
   76MOL   H15128801   3.641   2.635   5.060 -1.0322 -0.1098 -1.8253
   76MOL   H15228802   3.796   2.604   5.002 -0.0133  0.1612 -1.2075
   76MOL   H15328803   3.746   2.774   5.027 -0.2312  1.2603 -2.9433
   76MOL   C15428804   3.372   2.773   4.433 -0.1659 -1.2993  0.2793
   76MOL   C15528805   3.322   2.905   4.367 -0.2296 -0.3032 -0.0165
   76MOL   O15628806   3.342   2.898   4.225  0.2921 -0.6335 -0.5792
   76MOL   C15728807   3.218   2.871   4.156  0.0377 -0.1478 -0.0527
   76MOL   C15828808   3.244   2.881   4.008  0.0257  0.1602 -0.7065
   76MOL   C15928809   3.134   2.824   3.922 -0.0152  0.2024  0.5787
   76MOL   C16028810   3.152   2.849   3.766 -0.6281  0.2335  0.4274
   76MOL   H16128811   3.340   2.680   4.385 -1.0821  0.3977 -2.5000
   76MOL   H16228812   3.479   2.759   4.422  0.2189  2.1253 -0.6258
   76MOL   H16328813   3.219   2.910   4.403 -1.3870 -1.4050 -2.9916
   76MOL   H16428814   3.174   2.773   4.172  0.3827 -0.0926  1.2835
   76MOL   H16528815   3.135   2.937   4.183  0.2687  0.3973 -0.6633
   76MOL   H16628816   3.343   2.842   3.985  0.4770 -0.8724  2.7294
   76MOL   H16728817   3.255   2.987   3.985  0.8244 -0.2475 -2.2407
   76MOL   H16828818   3.133   2.717   3.942  5.1613 -0.0717  0.2117
   76MOL   H16928819   3.045   2.873   3.960 -0.7129 -0.3546 -0.3081
   76MOL   H17028820   3.097   2.782   3.701 -0.9194  2.6044 -1.8570
   76MOL   H17128821   3.122   2.949   3.733 -1.7628 -0.2606 -0.0537
   76MOL   H17228822   3.256   2.830   3.740 -0.1085  0.9274  1.9147
   76MOL   C17328823   3.406   3.035   4.404 -0.0002 -0.3356 -0.2279
   76MOL   C17428824   3.334   3.165   4.350  0.8633 -0.0749 -0.2835
   76MOL   O17528825   3.201   3.184   4.410 -0.5663 -0.0404 -0.0852
   76MOL   C17628826   3.106   3.225   4.315  0.2723  0.2394  0.2195
   76MOL   C17728827   2.976   3.264   4.383 -0.6903  0.4089  0.4584
   76MOL   C17828828   2.861   3.304   4.290  0.6699  0.2867 -0.6885
   76MOL   C17928829   2.742   3.356   4.361  0.0020  0.0025  0.4203
   76MOL   H18028830   3.506   3.027   4.363 -1.3348 -2.0637 -3.3519
   76MOL   H18128831   3.408   3.049   4.512 -0.9563  0.3275 -0.2864
   76MOL   H18228832   3.320   3.151   4.243 -1.1883 -1.2635  0.1229
   76MOL   H18328833   3.098   3.147   4.240  1.9694 -0.2941  0.5692
   76MOL   H18428834   3.145   3.308   4.256  1.1326 -0.1897  0.1667
   76MOL   H18528835   3.000   3.348   4.448  0.1889  0.1574  0.4542
   76MOL   H18628836   2.944   3.180   4.445  0.3193  0.7909  1.5248
   76MOL   H18728837   2.901   3.366   4.209  1.8186 -0.6265 -0.8365
   76MOL   H18828838   2.834   3.216   4.233 -0.9790  0.8293 -0.7784
   76MOL   H18928839   2.700   3.279   4.426 -2.7163  0.4806 -0.7001
   76MOL   H19028840   2.762   3.444   4.422 -0.9922  1.0884 -0.7829
   76MOL   H19128841   2.659   3.384   4.297  1.6988  0.3206 -1.6845
   76MOL   C19228842   3.408   3.298   4.369  0.1266  0.0631 -0.0498
   76MOL   C19328843   3.542   3.306   4.296 -0.3755 -0.3635  0.5677
   76MOL   O19428844   3.516   3.307   4.157  0.2334  0.1361 -0.1991
   76MOL   C19528845   3.566   3.193   4.098 -0.3807  0.5046  0.2395
   76MOL   C19628846   3.501   3.179   3.953 -0.6027 -0.0723  0.5667
   76MOL   C19728847   3.540   3.266   3.837  0.1834 -0.4189 -0.2357
   76MOL   C19828848   3.504   3.413   3.854  0.1861  0.5249  0.3146
   76MOL   H19928849   3.410   3.304   4.477  0.6613 -0.1675 -0.0466
   76MOL   H20028850   3.345   3.383   4.343  1.1170  0.8352 -0.0008
   76MOL   H20128851   3.614   3.230   4.325  0.1985 -1.2502 -2.8718
   76MOL   H20228852   3.548   3.100   4.151 -0.5898 -0.1275 -0.9089
   76MOL   H20328853   3.674   3.188   4.104 -0.3160  0.1120 -1.0027
   76MOL   H20428854   3.525   3.079   3.915 -0.9619  1.0243 -2.6548
   76MOL   H20528855   3.393   3.178   3.971 -0.5239 -0.7330  1.0566
   76MOL   H20628856   3.480   3.230   3.754 -0.3029 -2.3416  0.9162
   76MOL   H20728857   3.647   3.255   3.823  0.4895  2.8047 -0.8267
   76MOL   H20828858   3.496   3.472   3.762 -0.7664  0.9601  0.6655
   76MOL   H20928859   3.414   3.425   3.914 -1.0606 -1.8255 -0.9984
   76MOL   H21028860   3.578   3.470   3.911  2.3558 -1.7300 -0.1892
   76MOL   C21128861   3.623   3.430   4.337 -0.6699 -0.4743 -0.2511
   76MOL   C21228862   3.777   3.433   4.311  0.5333  0.4594  0.1886
   76MOL   O21328863   3.825   3.562   4.338 -0.3828  0.6449 -0.2779
   76MOL   C21428864   3.917   3.609   4.245  0.7535 -0.3225  0.9822
   76MOL   C21528865   4.001   3.726   4.311  0.3158 -0.1344  0.3697
   76MOL   C21628866   4.067   3.828   4.218  0.0069 -0.1781  0.0624
   76MOL   C21728867   4.159   3.917   4.296 -0.9672  0.2096 -0.2661
   76MOL   H21828868   3.606   3.450   4.443  0.7117 -0.1549 -0.0824
   76MOL   H21928869   3.584   3.514   4.280 -0.3836  0.0100  0.2522
   76MOL   H22028870   3.799   3.404   4.208  0.7438 -1.1231  0.6712
   76MOL   H22128871   3.994   3.536   4.221  0.4539 -0.0760 -0.8024
   76MOL   H22228872   3.897   3.640   4.142  0.5353  1.0089  1.4084
   76MOL   H22328873   3.946   3.782   4.386 -0.2411 -1.1921  0.7666
   76MOL   H22428874   4.083   3.677   4.364  1.8821  0.4989 -1.4273
   76MOL   H22528875   3.997   3.884   4.156  0.8836 -0.7590 -1.4916
   76MOL   H22628876   4.123   3.765   4.149  0.2825 -0.7224  0.7804
   76MOL   H22728877   4.250   3.869   4.333  0.1382  0.4891 -2.5271
   76MOL   H22828878   4.108   3.972   4.375  3.1996 -0.3762  2.9793
   76MOL   H22928879   4.204   3.994   4.233 -0.4685 -0.9626 -1.3605
   76MOL   C23028880   3.853   3.335   4.405  0.3663 -0.4615  0.7592
   76MOL   C23128881   3.808   3.321   4.555 -0.4030 -0.4630  0.0353
   76MOL   O23228882   3.902   3.233   4.627 -0.5295  0.6463 -1.0919
   76MOL   C23328883   3.841   3.104   4.670  0.2483  0.3124  0.5813
   76MOL   C23428884   3.944   3.026   4.759  0.0776 -0.3543 -0.3714
   76MOL   C23528885   4.004   3.101   4.879  0.0889 -0.0527  0.8902
   76MOL   C23628886   4.029   3.026   5.012  1.0223 -0.0352  0.5862
   76MOL   H23728887   3.961   3.352   4.400 -0.0280  1.9429 -0.3762
   76MOL   H23828888   3.839   3.238   4.358 -0.5008  0.3077 -0.6002
   76MOL   H23928889   3.715   3.268   4.538 -0.0612 -0.6157 -1.4412
   76MOL   H24028890   3.762   3.140   4.736 -0.8453 -0.1996 -0.4429
   76MOL   H24128891   3.791   3.043   4.595  2.0188  0.7709 -1.0014
   76MOL   H24228892   3.890   2.939   4.795 -0.2512  0.6399  1.5906
   76MOL   H24328893   4.024   2.977   4.703  0.4839  0.3350 -0.4064
   76MOL   H24428894   3.943   3.190   4.887  1.4460  0.9017  0.8104
   76MOL   H24528895   4.097   3.143   4.841  0.6299  0.0741  2.2903
   76MOL   H24628896   4.023   3.084   5.104  0.1496  0.1264  0.4323
   76MOL   H24728897   4.128   2.980   5.021  0.7704 -0.6798  0.0586
   76MOL   H24828898   3.954   2.949   5.026  0.6086  0.8464  3.4686
   76MOL   C24928899   3.789   3.457   4.634 -0.2233 -0.2620  0.9523
   76MOL   C25028900   3.717   3.438   4.769  0.3424 -0.2264  0.1890
   76MOL   O25128901   3.591   3.394   4.721 -0.0917 -0.2442 -0.1891
   76MOL   C25228902   3.509   3.326   4.823  0.1537 -0.0978 -0.3955
   76MOL   C25328903   3.407   3.243   4.747 -0.2511 -0.7548  0.0593
   76MOL   C25428904   3.306   3.181   4.842 -0.0183  0.3274  0.0049
   76MOL   C25528905   3.184   3.104   4.771  0.2582 -0.7272  0.0705
   76MOL   H25628906   3.754   3.545   4.581  1.3473  0.3367  0.8908
   76MOL   H25728907   3.893   3.480   4.654  0.4685  0.0949 -2.6714
   76MOL   H25828908   3.769   3.360   4.824  1.0828 -0.7297 -1.2041
   76MOL   H25928909   3.464   3.402   4.888 -1.7558 -1.3828 -0.1964
   76MOL   H26028910   3.580   3.263   4.877  0.8684  1.2452  0.2783
   76MOL   H26128911   3.360   3.315   4.680  0.3333 -0.4618 -0.0435
   76MOL   H26228912   3.467   3.169   4.694  1.3129  1.6348 -1.6592
   76MOL   H26328913   3.345   3.112   4.917  0.8167 -0.5645 -1.2255
   76MOL   H26428914   3.273   3.272   4.890  0.6274  0.9706 -0.7538
   76MOL   H26528915   3.084   3.123   4.810  0.1469 -3.2891  1.1683
   76MOL   H26628916   3.197   2.996   4.783 -0.1928 -0.9640 -1.5509
   76MOL   H26728917   3.180   3.106   4.662 -2.4739 -3.0673  0.0577
   76MOL   C26828918   3.696   3.570   4.847 -0.4916  0.0911 -0.0066
   76MOL   C26928919   3.806   3.597   4.956  0.5354  0.4748 -0.0759
   76MOL   O27028920   3.812   3.473   5.026  0.8675 -0.1878 -0.0460
   76MOL   C27128921   3.897   3.471   5.142 -0.7614 -0.7663  0.0080
   76MOL   C27228922   3.880   3.336   5.225 -0.0741 -0.1106 -0.0637
   76MOL   C27328923   3.979   3.346   5.342  0.6093  0.2473 -0.4731
   76MOL   C27428924   3.959   3.225   5.440 -0.6260  0.2554 -0.3696
   76MOL   H27528925   3.686   3.654   4.778 -2.3872 -0.2473 -0.1737
   76MOL   H27628926   3.598   3.590   4.891 -1.0239 -0.2328 -1.0440
   76MOL   H27728927   3.763   3.676   5.018  0.1228  1.0985 -1.1485
   76MOL   H27828928   4.001   3.486   5.113  0.1832 -2.1523  2.5527
   76MOL   H27928929   3.879   3.562   5.199  1.5583  0.1906 -0.7441
   76MOL   H28028930   3.780   3.322   5.267 -0.0944  1.6090  0.4692
   76MOL   H28128931   3.907   3.251   5.162  0.3561 -0.9962  1.2990
   76MOL   H28228932   3.973   3.443   5.391 -0.1438  0.0766 -0.2195
   76MOL   H28328933   4.079   3.339   5.300 -0.2128  0.8628 -2.5734
   76MOL   H28428934   3.939   3.138   5.377 -0.1562  0.2283 -0.4836
   76MOL   H28528935   3.872   3.250   5.502  0.0565  2.7353 -0.3596
   76MOL   H28628936   4.037   3.207   5.514 -0.5489  1.8465 -0.0561
   76MOL   C28728937   3.943   3.644   4.914 -0.7927  0.3729  0.4931
   76MOL   C28828938   3.953   3.747   4.796 -0.0301 -0.4418  0.1755
   76MOL   O28928939   4.093   3.779   4.805  0.3242  0.2596  0.3693
   76MOL   C29028940   4.172   3.714   4.705  0.8407 -0.1914 -0.4859
   76MOL   C29128941   4.319   3.760   4.708  0.1843  0.0601  0.6990
   76MOL   C29228942   4.400   3.688   4.604  0.1344  0.2004  0.1398
   76MOL   C29328943   4.532   3.761   4.570  0.4641 -0.0472  0.7176
   76MOL   H29428944   3.999   3.551   4.897  0.2299  0.8875  1.0008
   76MOL   H29528945   3.989   3.702   4.994 -2.8264 -0.2016  2.1157
   76MOL   H29628946   3.913   3.702   4.705  0.2224  1.6237 -1.0025
   76MOL   H29728947   4.169   3.607   4.721  1.5833  0.0760  1.6368
   76MOL   H29828948   4.127   3.728   4.607 -0.4922 -1.1950 -0.0390
   76MOL   H29928949   4.357   3.750   4.809  0.4267 -1.3245  0.4849
   76MOL   H30028950   4.335   3.867   4.696 -1.2704  0.2138  0.0364
   76MOL   H30128951   4.339   3.671   4.516  0.6895 -1.2398  0.0171
   76MOL   H30228952   4.433   3.593   4.646 -1.0630  0.1545  0.9962
   76MOL   H30328953   4.595   3.784   4.657 -0.4175 -2.1561  1.9484
   76MOL   H30428954   4.593   3.700   4.504 -1.4442 -0.2469 -0.8990
   76MOL   H30528955   4.505   3.848   4.510  1.0356  0.1856  0.7904
   76MOL   C30628956   3.878   3.874   4.822 -0.4839 -0.1190  0.6410
   76MOL   C30728957   3.862   3.964   4.699  0.0978 -0.7011  0.0749
   76MOL   O30828958   3.813   4.078   4.764  0.7816  0.0669  0.1297
   76MOL   C30928959   3.901   4.181   4.812 -0.4907 -0.2631  0.4005
   76MOL   C31028960   3.818   4.304   4.858  0.0739  0.6463  0.4187
   76MOL   C31128961   3.736   4.270   4.978 -0.0395  0.1331 -0.1872
   76MOL   C31228962   3.664   4.396   5.036 -0.6464  0.2096  0.5032
   76MOL   H31328963   3.780   3.851   4.862 -1.0372  0.7554 -0.1915
   76MOL   H31428964   3.927   3.931   4.901 -0.8816  0.8319  0.2137
   76MOL   H31528965   3.961   3.978   4.656  0.6066 -1.5546  0.9577
   76MOL   H31628966   3.973   4.218   4.740 -0.7031 -0.0545  0.2969
   76MOL   H31728967   3.952   4.135   4.897  2.0409  3.1929  0.8419
   76MOL   H31828968   3.746   4.346   4.788  0.3981  1.4879  0.5822
   76MOL   H31928969   3.883   4.386   4.889  2.0541 -1.4842  2.0964
   76MOL   H32028970   3.666   4.191   4.952  1.6889 -2.3065  2.3084
   76MOL   H32128971   3.789   4.239   5.068  0.7822  1.1329 -0.3228
   76MOL   H32228972   3.582   4.429   4.973  0.1630  0.5509 -0.3887
   76MOL   H32328973   3.740   4.474   5.032  2.0449 -2.2007  2.1638
   76MOL   H32428974   3.638   4.381   5.141 -0.9698 -2.1621  0.1141
   76MOL   C32528975   3.759   3.924   4.590  0.0187 -0.3029  0.5108
   76MOL   C32628976   3.749   4.021   4.475  0.0198 -0.1762  0.0704
   76MOL   O32728977   3.652   3.981   4.382 -0.3206 -0.6790  0.7424
   76MOL   C32828978   3.686   3.879   4.286 -0.2651  0.1305  0.3034
   76MOL   C32928979   3.571   3.863   4.195  0.0162  0.3824  0.0821
   76MOL   C33028980   3.445   3.814   4.259  0.4429  0.6852  0.3330
   76MOL   C33128981   3.336   3.769   4.162 -0.1306  0.0317  0.0339
   76MOL   H33228982   3.661   3.927   4.639  1.2017  0.6113  2.8672
   76MOL   H33328983   3.783   3.827   4.546 -1.8895  1.0762 -3.9451
   76MOL   H33428984   3.843   4.021   4.419  0.4820 -0.2147  0.8319
   76MOL   H33528985   3.709   3.792   4.347  0.8752  1.0474  1.2056
   76MOL   H33628986   3.775   3.915   4.234 -1.2555 -0.1071 -1.5722
   76MOL   H33728987   3.544   3.957   4.147  0.6000  1.3377  1.5860
   76MOL   H33828988   3.603   3.803   4.110  0.3295  1.5148 -0.6045
   76MOL   H33928989   3.396   3.893   4.316 -0.8239  0.9220 -1.0401
   76MOL   H34028990   3.466   3.733   4.329 -2.4719  1.2804  1.9776
   76MOL   H34128991   3.361   3.674   4.116  0.7276 -1.4424  3.3581
   76MOL   H34228992   3.332   3.841   4.081 -0.0083  1.9747  1.7091
   76MOL   H34328993   3.236   3.762   4.204 -0.3453  0.6381 -0.3789
   76MOL   C34428994   3.712   4.167   4.517 -0.1003 -0.4771  0.4567
   76MOL   C34528995   3.679   4.252   4.397 -1.1460  0.4655  0.6336
   76MOL   O34628996   3.807   4.282   4.327  0.0802 -0.2634  0.1882
   76MOL   C34728997   3.784   4.323   4.192  0.5310 -0.2722  0.1129
   76MOL   C34828998   3.894   4.417   4.143  0.3795  0.2431  0.0550
   76MOL   C34928999   4.040   4.376   4.157 -0.0270  0.1505 -0.2549
   76MOL   C35029000   4.080   4.236   4.105 -0.2648 -0.2732  0.6778
   76MOL   H35129001   3.618   4.147   4.568 -0.3931 -1.5386 -0.4812
   76MOL   H35229002   3.786   4.216   4.580  0.3098  0.3121 -0.6335
   76MOL   H35329003   3.604   4.209   4.330 -1.9958  1.2173  1.0847
   76MOL   H35429004   3.687   4.372   4.181  1.3453  1.3682  0.2751
   76MOL   H35529005   3.791   4.239   4.122  0.7129 -0.8692  0.8505
   76MOL   H35629006   3.878   4.515   4.186  1.6064  0.6918 -0.4994
   76MOL   H35729007   3.875   4.442   4.038  0.0933  0.6444  0.2018
   76MOL   H35829008   4.103   4.451   4.107 -0.4889  1.9152  1.7457
   76MOL   H35929009   4.076   4.382   4.260  3.0101 -0.1317 -1.2369
   76MOL   H36029010   4.032   4.160   4.166  1.6232 -0.8192  1.5243
   76MOL   H36129011   4.185   4.207   4.110 -0.3287 -0.9664 -1.4483
   76MOL   H36229012   4.053   4.214   4.002  0.3591  0.2915  0.3867
   76MOL   C36329013   3.604   4.376   4.457 -0.7464 -0.0947  0.2787
   76MOL   C36429014   3.451   4.352   4.463 -0.2732 -0.2937 -0.8075
   76MOL   O36529015   3.407   4.460   4.554  0.1525  0.5560 -0.2061
   76MOL   C36629016   3.279   4.502   4.511 -0.2146  0.4024 -0.3531
   76MOL   C36729017   3.241   4.632   4.582 -0.1974  0.2518 -0.9204
   76MOL   C36829018   3.167   4.731   4.491 -0.2658  0.1168 -0.0110
   76MOL   C36929019   3.124   4.857   4.570  0.2334  0.8625  0.4048
   76MOL   H37029020   3.620   4.463   4.393  0.7402 -0.2978  0.3627
   76MOL   H37129021   3.639   4.405   4.556  1.7829 -1.4945 -0.1474
   76MOL   H37229022   3.429   4.249   4.490 -1.2989  0.2364  0.4096
   76MOL   H37329023   3.213   4.421   4.542 -1.5412  0.6841 -2.3767
   76MOL   H37429024   3.269   4.507   4.403  1.1836 -2.5536 -0.6679
   76MOL   H37529025   3.336   4.680   4.608 -0.4663  0.0128  0.5614
   76MOL   H37629026   3.191   4.613   4.677 -3.1044  0.8201 -2.3029
   76MOL   H37729027   3.091   4.682   4.431 -0.9941  1.1325  0.0608
   76MOL   H37829028   3.226   4.770   4.409 -1.9697  0.4714 -1.0990
   76MOL   H37929029   3.208   4.909   4.616  0.0176  0.6575  1.0313
   76MOL   H38029030   3.070   4.928   4.507 -0.7477 -0.3436 -0.1446
   76MOL   H38129031   3.048   4.834   4.645 -3.0517  2.7628 -2.1993
   76MOL   H38229032   3.414   4.368   4.362  0.6010  0.5350 -1.0059
   77MOL     C129033   5.891   2.356   4.614  0.5341 -0.7592  0.2071
   77MOL     C229034   5.967   2.244   4.547 -0.1855 -0.0440  0.0243
   77MOL     O329035   6.090   2.222   4.611  0.1558 -0.2865  0.2340
   77MOL     C429036   6.187   2.316   4.581 -0.0425 -0.0338 -0.5495
   77MOL     C529037   6.304   2.271   4.678 -0.1444 -0.1093  0.7436
   77MOL     C629038   6.259   2.304   4.824 -0.2797 -0.2639 -0.5771
   77MOL     C729039   6.341   2.230   4.937 -0.3895  0.7837  0.3003
   77MOL     H829040   5.943   2.451   4.603  0.4222 -0.5867  1.1043
   77MOL     H929041   5.790   2.375   4.578  0.4007 -0.6833  0.6169
   77MOL    H1029042   5.980   2.265   4.441 -0.9665  2.1976  0.3423
   77MOL    H1129043   6.223   2.321   4.478 -1.1262 -2.0283 -1.0541
   77MOL    H1229044   6.150   2.417   4.597 -1.4391 -0.4161 -1.3117
   77MOL    H1329045   6.400   2.310   4.644 -0.7694 -0.0044 -0.9764
   77MOL    H1429046   6.315   2.164   4.665  1.1972  0.2337 -1.1883
   77MOL    H1529047   6.156   2.274   4.844 -0.4836 -1.0391 -2.6059
   77MOL    H1629048   6.264   2.413   4.826  1.1868 -0.3452  0.6012
   77MOL    H1729049   6.325   2.275   5.035  1.3723  0.4523  0.7601
   77MOL    H1829050   6.448   2.238   4.920 -0.5630  0.7235 -0.8771
   77MOL    H1929051   6.314   2.125   4.946  0.6759  0.4407 -0.3899
   77MOL    H2029052   5.884   2.337   4.721  0.0765  0.7299  0.4525
   77MOL    C2129053   5.876   2.130   4.542  0.3672  0.0584 -0.0955
   77MOL    C2229054   5.935   1.996   4.503  0.1699  0.5179  0.3580
   77MOL    O2329055   5.833   1.897   4.520  0.4289  0.2966  0.1933
   77MOL    C2429056   5.858   1.804   4.623  1.2553  1.0308  0.1520
   77MOL    C2529057   5.728   1.744   4.671  0.1265  0.3066  0.0256
   77MOL    C2629058   5.734   1.649   4.794 -0.0703 -0.8160 -0.0080
   77MOL    C2729059   5.596   1.597   4.836 -0.3041 -0.1697 -0.1306
   77MOL    H2829060   5.788   2.148   4.482  0.0260 -1.1018  0.0425
   77MOL    H2929061   5.831   2.118   4.640 -0.5296  2.4793 -0.1717
   77MOL    H3029062   6.019   1.973   4.568 -0.1861 -0.8243  0.3519
   77MOL    H3129063   5.903   1.858   4.707 -0.9700 -0.9947  2.7225
   77MOL    H3229064   5.922   1.720   4.598  0.6044  0.2400  1.0944
   77MOL    H3329065   5.662   1.828   4.697  1.1482  1.0184  0.3393
   77MOL    H3429066   5.679   1.686   4.593  4.3256 -0.9681 -1.8003
   77MOL    H3529067   5.804   1.567   4.775 -0.4336 -1.3258  0.8145
   77MOL    H3629068   5.775   1.702   4.880 -0.8501 -0.6935  0.2920
   77MOL    H3729069   5.531   1.581   4.750 -0.8307  0.4038  0.1540
   77MOL    H3829070   5.594   1.520   4.914 -1.6896  2.0216  2.1040
   77MOL    H3929071   5.549   1.672   4.901  3.7808  0.6008  2.1154
   77MOL    C4029072   5.980   1.987   4.350  0.2361 -0.5380  0.4795
   77MOL    C4129073   6.117   1.913   4.330  0.7350 -0.4815 -0.8106
   77MOL    O4229074   6.119   1.792   4.392 -0.3532  0.3338 -0.2972
   77MOL    C4329075   6.048   1.690   4.331 -0.0759  0.2935  1.1485
   77MOL    C4429076   6.082   1.556   4.392 -0.2541  0.6898 -0.0420
   77MOL    C4529077   6.211   1.489   4.329 -0.7976  0.1734  0.5284
   77MOL    C4629078   6.208   1.448   4.182  0.8266  0.0175 -0.7304
   77MOL    H4729079   5.983   2.085   4.303 -0.5013 -1.8725 -2.5041
   77MOL    H4829080   5.895   1.933   4.308  0.7228 -0.2267 -0.9175
   77MOL    H4929081   6.124   1.899   4.222 -1.0403  0.7103 -1.0930
   77MOL    H5029082   6.069   1.685   4.224 -2.6092  2.0331  0.5366
   77MOL    H5129083   5.942   1.715   4.337 -0.0038  1.3277 -1.3870
   77MOL    H5229084   6.008   1.480   4.369  0.7593 -1.1443  2.5503
   77MOL    H5329085   6.092   1.563   4.500  1.6188  0.1784 -0.1619
   77MOL    H5429086   6.258   1.414   4.393  0.9122 -0.7049 -1.7134
   77MOL    H5529087   6.286   1.568   4.330  0.2044 -0.6757 -2.9033
   77MOL    H5629088   6.282   1.374   4.150  0.2692 -0.7661 -0.2155
   77MOL    H5729089   6.109   1.403   4.175  0.1877  1.1901  0.4008
   77MOL    H5829090   6.203   1.535   4.116 -0.8027  1.1786  0.8615
   77MOL    C5929091   6.230   2.001   4.385  0.2740 -0.0722 -0.4311
   77MOL    C6029092   6.365   1.967   4.323 -0.5920 -0.0978  0.4847
   77MOL    O6129093   6.354   2.026   4.189 -0.6937  0.2980  0.1343
   77MOL    C6229094   6.401   1.936   4.096 -0.4523 -0.2297  0.3231
   77MOL    C6329095   6.381   1.994   3.965  0.2511 -0.3212 -0.4236
   77MOL    C6429096   6.418   1.884   3.858  0.0822  0.4921 -0.3388
   77MOL    C6529097   6.350   1.924   3.726 -0.0551 -0.1016  0.1627
   77MOL    H6629098   6.202   2.106   4.377 -2.4546 -0.7269  0.1575
   77MOL    H6729099   6.240   1.996   4.493 -3.3272  1.5627  0.0309
   77MOL    H6829100   6.364   1.859   4.334 -0.3395 -0.0891  0.5935
   77MOL    H6929101   6.355   1.839   4.115  0.9362 -0.4608  2.7139
   77MOL    H7029102   6.510   1.934   4.098 -0.4068 -2.2400 -1.9819
   77MOL    H7129103   6.274   2.015   3.972 -0.2586 -3.4248  2.1444
   77MOL    H7229104   6.442   2.084   3.953  2.0035 -1.1698  1.8172
   77MOL    H7329105   6.526   1.869   3.852 -0.2743 -2.8227  0.2853
   77MOL    H7429106   6.374   1.789   3.889 -0.7091  0.8045 -0.5118
   77MOL    H7529107   6.353   2.030   3.702  1.9111  0.2499  1.8015
   77MOL    H7629108   6.387   1.875   3.636 -2.7237  0.8240 -1.4842
   77MOL    H7729109   6.247   1.896   3.748  0.2813  0.6880  3.0345
   77MOL    C7829110   6.486   2.019   4.409 -1.0098 -0.3342 -0.7447
   77MOL    C7929111   6.538   1.926   4.520  0.5655 -0.3348 -0.4203
   77MOL    O8029112   6.639   1.985   4.593 -0.0292  0.3443  0.2261
   77MOL    C8129113   6.595   2.086   4.684 -0.2831 -0.1884  0.3357
   77MOL    C8229114   6.709   2.072   4.783  1.2449  0.4086 -0.1410
   77MOL    C8329115   6.847   2.098   4.733 -0.0124  0.4727  0.8897
   77MOL    C8429116   6.952   2.066   4.842  0.1537 -0.1641  0.3098
   77MOL    H8529117   6.469   2.116   4.457  1.4896 -0.0216 -0.3935
   77MOL    H8629118   6.566   2.051   4.342 -0.8703 -0.1370 -0.4856
   77MOL    H8729119   6.456   1.904   4.587 -0.3528 -0.7506 -1.6554
   77MOL    H8829120   6.499   2.077   4.734 -0.5245 -0.6669 -0.2146
   77MOL    H8929121   6.604   2.181   4.631  1.2237 -0.6409 -0.2401
   77MOL    H9029122   6.683   2.123   4.876  1.3280  4.1286 -2.0786
   77MOL    H9129123   6.706   1.965   4.806 -0.8084  0.2920 -0.8233
   77MOL    H9229124   6.846   2.201   4.698  0.2321  0.2980  0.3607
   77MOL    H9329125   6.871   2.036   4.647 -0.2720 -0.0972  1.2187
   77MOL    H9429126   7.055   2.069   4.807 -0.7203 -0.8985 -2.4252
   77MOL    H9529127   6.940   2.128   4.931  2.3460  0.3934  0.2573
   77MOL    H9629128   6.931   1.967   4.882 -0.1361 -0.7393 -1.2480
   77MOL    C9729129   6.605   1.792   4.466 -0.1791 -0.3767  0.6766
   77MOL    C9829130   6.600   1.679   4.575 -0.0422 -0.0555  0.3905
   77MOL    O9929131   6.457   1.651   4.598 -0.3768 -0.6535 -0.0262
   77MOL   C10029132   6.424   1.621   4.733 -0.2521  0.2068 -0.0885
   77MOL   C10129133   6.273   1.594   4.751  0.6517  0.6247 -0.3423
   77MOL   C10229134   6.176   1.716   4.750 -0.1254 -0.0499  0.0643
   77MOL   C10329135   6.187   1.818   4.858  0.3409  0.1030  0.3216
   77MOL   H10429136   6.707   1.819   4.437 -0.2506 -1.1718 -0.3505
   77MOL   H10529137   6.546   1.758   4.380 -1.6865  1.2691  1.0298
   77MOL   H10629138   6.648   1.708   4.668  1.9081 -1.2159 -0.2209
   77MOL   H10729139   6.458   1.701   4.798 -1.5201  1.5283 -1.0284
   77MOL   H10829140   6.484   1.534   4.760  0.4520  0.3987 -0.9965
   77MOL   H10929141   6.261   1.536   4.842 -0.1260  0.4650 -0.5437
   77MOL   H11029142   6.243   1.522   4.674  2.4340 -0.2492 -0.2456
   77MOL   H11129143   6.079   1.665   4.752 -1.2000  1.9595  3.5586
   77MOL   H11229144   6.186   1.763   4.652  0.5211  0.7883  0.5266
   77MOL   H11329145   6.239   1.909   4.832  0.3082  0.5073  1.6139
   77MOL   H11429146   6.084   1.852   4.872 -0.2997 -1.1885 -1.0586
   77MOL   H11529147   6.233   1.777   4.948  4.3968  2.0158 -0.7887
   77MOL   C11629148   6.674   1.549   4.530 -0.3526 -0.6266 -0.3069
   77MOL   C11729149   6.818   1.561   4.579 -0.7647  0.8420 -0.5470
   77MOL   O11829150   6.817   1.543   4.725  0.0458  0.2028 -0.0156
   77MOL   C11929151   6.916   1.620   4.791 -0.2357 -0.3938  0.0159
   77MOL   C12029152   6.922   1.583   4.941  0.3339  0.3605  0.4386
   77MOL   C12129153   6.970   1.436   4.964  0.1955 -0.4193 -0.0574
   77MOL   C12229154   7.049   1.420   5.100  0.1300  0.3860  0.3076
   77MOL   H12329155   6.629   1.466   4.585 -0.3618 -0.5608 -0.2158
   77MOL   H12429156   6.668   1.537   4.422  1.8010  1.4809 -0.6910
   77MOL   H12529157   6.848   1.664   4.557 -0.9441  1.8663  3.5229
   77MOL   H12629158   6.891   1.725   4.782  0.0172 -0.5388 -2.7948
   77MOL   H12729159   7.014   1.606   4.745 -1.3235 -0.2732 -2.4257
   77MOL   H12829160   6.826   1.590   4.993  2.1284  0.6963  3.8643
   77MOL   H12929161   6.998   1.638   4.996  1.1886 -1.0376  0.6972
   77MOL   H13029162   6.886   1.366   4.956  0.3188 -0.9144  2.4927
   77MOL   H13129163   7.043   1.415   4.886  1.4053  1.1520  0.6474
   77MOL   H13229164   6.995   1.471   5.180  1.8542  0.5006  1.4193
   77MOL   H13329165   7.140   1.478   5.091  0.3651  0.2331  1.6414
   77MOL   H13429166   7.083   1.318   5.119  0.8872  0.7951  1.2081
   77MOL   C13529167   6.899   1.448   4.514  0.4625 -0.5328  0.5623
   77MOL   C13629168   6.948   1.477   4.371 -0.1289 -0.4263  0.8816
   77MOL   O13729169   7.024   1.600   4.383 -0.8621  0.0537  0.2711
   77MOL   C13829170   7.055   1.670   4.267  0.3959  0.1767  0.5005
   77MOL   C13929171   7.136   1.793   4.299 -0.5484 -0.7513 -0.2192
   77MOL   C14029172   7.089   1.900   4.399  0.2450 -0.2393 -0.2636
   77MOL   C14129173   7.205   1.989   4.449 -0.5709  0.2260  1.2505
   77MOL   H14229174   6.841   1.358   4.536 -1.0708  0.2396 -0.2702
   77MOL   H14329175   6.986   1.430   4.578  0.4101  0.7937  1.0132
   77MOL   H14429176   6.855   1.503   4.321  0.9129  0.7378 -0.5032
   77MOL   H14529177   6.967   1.709   4.216  1.5446  2.5931  0.2869
   77MOL   H14629178   7.111   1.601   4.203  3.2600  2.0280  0.9432
   77MOL   H14729179   7.157   1.838   4.202 -0.0767 -1.0356 -0.2528
   77MOL   H14829180   7.238   1.763   4.325  0.2566  0.4861 -1.8294
   77MOL   H14929181   7.011   1.959   4.353 -1.0557 -1.0970  0.7994
   77MOL   H15029182   7.047   1.850   4.486 -1.7185 -0.1977 -1.1594
   77MOL   H15129183   7.269   1.921   4.504 -0.1771 -0.3003  0.1531
   77MOL   H15229184   7.257   2.049   4.374  1.6491 -0.9399  1.8212
   77MOL   H15329185   7.169   2.060   4.524 -2.8824 -1.5726  1.9260
   77MOL   C15429186   7.027   1.360   4.310  0.0812  0.5872 -0.5433
   77MOL   C15529187   6.957   1.223   4.287  0.1308  0.1756  0.0246
   77MOL   O15629188   7.043   1.115   4.312  0.0192  0.0449  0.5275
   77MOL   C15729189   7.057   1.092   4.457 -0.8087 -0.2240 -0.3470
   77MOL   C15829190   6.935   1.021   4.526  0.4077 -0.5432 -0.1641
   77MOL   C15929191   6.939   1.035   4.684 -0.2286 -0.6854 -0.1817
   77MOL   C16029192   6.878   1.163   4.748 -0.0831 -0.0840 -0.3152
   77MOL   H16129193   7.122   1.344   4.362  1.0733  1.4897 -2.0384
   77MOL   H16229194   7.061   1.381   4.208  0.8784 -1.3782 -0.7117
   77MOL   H16329195   6.874   1.217   4.357  0.2479 -0.3587  0.1226
   77MOL   H16429196   7.147   1.030   4.460 -0.3783  0.1164 -3.9229
   77MOL   H16529197   7.089   1.184   4.507 -1.2383 -0.9500  1.3055
   77MOL   H16629198   6.942   0.913   4.507 -1.1792 -0.4482 -1.4620
   77MOL   H16729199   6.837   1.064   4.504  0.2210 -0.6148  0.5205
   77MOL   H16829200   6.891   0.949   4.731 -1.8315  0.9016  1.1762
   77MOL   H16929201   7.037   1.034   4.731  0.2233  1.2878 -0.9979
   77MOL   H17029202   6.774   1.172   4.718 -1.1901 -1.3375  2.9476
   77MOL   H17129203   6.865   1.157   4.856  1.9127 -1.7461 -0.1348
   77MOL   H17229204   6.927   1.257   4.724  0.9434 -0.5917 -0.2772
   77MOL   C17329205   6.904   1.218   4.144  0.0035  0.2487 -0.2357
   77MOL   C17429206   6.819   1.090   4.125  0.2951 -0.2470  0.9922
   77MOL   O17529207   6.687   1.114   4.171  0.4514  0.1195  0.5804
   77MOL   C17629208   6.620   0.997   4.220 -0.1225  0.3491  1.0044
   77MOL   C17729209   6.503   1.049   4.309  0.0485 -0.4101 -0.3433
   77MOL   C17829210   6.560   1.107   4.442 -0.1415  0.4200  1.0367
   77MOL   C17929211   6.453   1.196   4.508 -0.0186 -0.0626  0.4426
   77MOL   H18029212   6.990   1.233   4.079 -0.3024 -1.4693 -1.1013
   77MOL   H18129213   6.831   1.298   4.128  0.4268  0.5336 -0.7522
   77MOL   H18229214   6.869   1.016   4.188 -0.3625  0.4030  2.2816
   77MOL   H18329215   6.685   0.936   4.283  1.0809  0.8963  0.3006
   77MOL   H18429216   6.584   0.928   4.144  1.9794 -1.4184  1.5666
   77MOL   H18529217   6.437   0.966   4.333 -1.6167  0.7331 -0.9093
   77MOL   H18629218   6.451   1.125   4.252 -1.6692 -1.4525 -0.1800
   77MOL   H18729219   6.597   1.023   4.501 -0.9284 -2.7826 -2.7641
   77MOL   H18829220   6.643   1.176   4.430 -0.7179  0.9471  0.0396
   77MOL   H18929221   6.487   1.238   4.602 -1.9475 -0.2363  1.2316
   77MOL   H19029222   6.445   1.270   4.428 -0.0190 -0.1511  0.3599
   77MOL   H19129223   6.362   1.140   4.527  0.2173 -0.7231 -0.2907
   77MOL   C19229224   6.817   1.035   3.978 -0.2329  0.5178 -0.5680
   77MOL   C19329225   6.938   0.962   3.919 -0.3619 -0.0991  0.0781
   77MOL   O19429226   6.901   0.893   3.802 -0.1707  0.0306  0.0868
   77MOL   C19529227   6.829   0.776   3.806  0.4865  0.1225  0.7711
   77MOL   C19629228   6.837   0.708   3.668 -0.1345  0.2439 -0.0706
   77MOL   C19729229   6.764   0.785   3.556  0.3138  0.4464 -0.1086
   77MOL   C19829230   6.780   0.733   3.417  0.2316  0.2037  0.1868
   77MOL   H19929231   6.793   1.114   3.907 -0.8445 -0.3676 -1.3657
   77MOL   H20029232   6.731   0.973   3.953 -1.2958  1.9892 -0.6491
   77MOL   H20129233   6.972   0.889   3.992  0.2821 -2.0681 -2.1541
   77MOL   H20229234   6.728   0.786   3.846  1.0070  0.6722  1.9866
   77MOL   H20329235   6.877   0.715   3.883  0.6313 -1.4154 -0.4991
   77MOL   H20429236   6.938   0.684   3.636 -0.6804  1.3152 -2.7306
   77MOL   H20529237   6.781   0.615   3.676 -0.8673  0.4637 -2.4090
   77MOL   H20629238   6.797   0.888   3.553 -0.2398  0.6936  1.9251
   77MOL   H20729239   6.660   0.789   3.588  0.3304 -1.2114  0.2133
   77MOL   H20829240   6.713   0.648   3.400 -0.5471  0.8160  0.1215
   77MOL   H20929241   6.747   0.808   3.344  4.2160 -0.0863 -2.0058
   77MOL   H21029242   6.886   0.737   3.392  0.3230 -2.5262  0.0135
   77MOL   C21129243   7.057   1.054   3.876 -0.1075  0.2128 -0.1930
   77MOL   C21229244   7.181   1.043   3.966 -0.5568 -0.3090 -0.9195
   77MOL   O21329245   7.236   0.927   3.915 -0.1926  0.4877 -0.4649
   77MOL   C21429246   7.268   0.830   4.013  0.1917  0.3364  0.5226
   77MOL   C21529247   7.281   0.697   3.936  0.5185 -0.2443  0.1303
   77MOL   C21629248   7.340   0.586   4.023  0.0919 -0.5104 -0.4043
   77MOL   C21729249   7.389   0.461   3.953  0.4646 -0.0684 -0.0400
   77MOL   H21829250   7.021   1.157   3.876 -2.3700 -0.5597  0.6443
   77MOL   H21929251   7.088   1.038   3.773 -2.5100  0.2293 -0.9341
   77MOL   H22029252   7.158   1.024   4.071 -0.4729 -0.5660 -0.9454
   77MOL   H22129253   7.359   0.856   4.067  0.7472  0.0524 -0.2737
   77MOL   H22229254   7.192   0.823   4.091 -1.8470  1.0757 -1.3307
   77MOL   H22329255   7.189   0.655   3.897  0.7392  0.7485 -1.4838
   77MOL   H22429256   7.349   0.703   3.851  1.4156 -0.7921  0.7955
   77MOL   H22529257   7.275   0.554   4.104  0.3409 -1.9434 -0.7509
   77MOL   H22629258   7.429   0.612   4.081  0.1467 -0.3141 -0.5745
   77MOL   H22729259   7.465   0.484   3.878  1.0091  0.3526  0.6358
   77MOL   H22829260   7.315   0.407   3.894  0.6374  0.0795 -0.3970
   77MOL   H22929261   7.447   0.407   4.028 -0.4426  0.8189  1.3359
   77MOL   C23029262   7.277   1.160   3.945  0.2376 -0.0932 -0.8979
   77MOL   C23129263   7.392   1.161   4.048 -0.3566  0.2458 -0.1083
   77MOL   O23229264   7.494   1.235   3.992 -0.3255 -0.3345  0.1617
   77MOL   C23329265   7.574   1.158   3.902  0.1158  0.0589 -0.7072
   77MOL   C23429266   7.701   1.116   3.981 -0.3295  0.1002  0.4928
   77MOL   C23529267   7.797   1.227   4.030 -0.4606 -0.1734 -0.0205
   77MOL   C23629268   0.111   1.174   4.105  0.2031 -0.2899 -0.0320
   77MOL   H23729269   7.233   1.259   3.945 -0.6622 -0.4603 -3.2618
   77MOL   H23829270   7.310   1.162   3.841 -0.7004 -0.8925 -1.2191
   77MOL   H23929271   7.430   1.061   4.070 -0.1256 -0.4553 -3.4272
   77MOL   H24029272   7.520   1.073   3.860  0.1855  0.8510 -2.4021
   77MOL   H24129273   7.611   1.217   3.819  1.0642  1.5978  0.7733
   77MOL   H24229274   7.661   1.061   4.067 -3.4269  0.5842 -0.5928
   77MOL   H24329275   7.746   1.038   3.920  0.7956 -0.7425  2.3293
   77MOL   H24429276   7.736   1.294   4.090 -0.6733  1.3385 -1.8828
   77MOL   H24529277   0.032   1.287   3.947 -0.0286 -0.6375 -0.1710
   77MOL   H24629278   0.172   1.111   4.041  1.9332  0.1783  1.1226
   77MOL   H24729279   0.087   1.121   4.197 -0.6966 -1.7245 -1.0708
   77MOL   H24829280   0.182   1.255   4.119  1.2210 -0.6641 -2.8069
   77MOL   C24929281   7.347   1.226   4.179 -0.0707 -0.3182 -0.2375
   77MOL   C25029282   7.425   1.180   4.307 -0.3875 -0.0815  0.2321
   77MOL   O25129283   7.380   1.049   4.334  0.2028 -0.5634 -0.2704
   77MOL   C25229284   7.484   0.959   4.369 -0.1510 -0.2434 -0.1808
   77MOL   C25329285   7.423   0.819   4.379  0.4782 -0.2856  0.4994
   77MOL   C25429286   7.524   0.711   4.423  0.2914 -0.3337 -0.5323
   77MOL   C25529287   7.574   0.726   4.569  0.1630  0.4708  0.0101
   77MOL   H25629288   7.242   1.207   4.200 -0.0637 -0.6495 -0.4995
   77MOL   H25729289   7.339   1.335   4.173 -0.6656 -0.0207  4.2394
   77MOL   H25829290   7.529   1.183   4.276 -0.9264 -1.2966 -1.8228
   77MOL   H25929291   7.515   0.989   4.469  3.0155 -1.8347 -0.6429
   77MOL   H26029292   7.571   0.955   4.304  0.8026  0.7461  1.0075
   77MOL   H26129293   7.347   0.817   4.456  0.1291 -2.9354  0.1521
   77MOL   H26229294   7.374   0.799   4.283  2.7068 -0.2576 -0.6974
   77MOL   H26329295   7.469   0.619   4.406 -0.7499  0.4202 -1.2707
   77MOL   H26429296   7.602   0.714   4.347  0.1379  1.2022 -0.6450
   77MOL   H26529297   7.487   0.746   4.632 -0.2249  1.6575 -0.8853
   77MOL   H26629298   7.637   0.813   4.582 -0.9457  1.3283 -0.2504
   77MOL   H26729299   7.628   0.644   4.617 -2.6168 -0.9562  0.8352
   77MOL   C26829300   7.412   1.261   4.443  0.7909  0.2406 -0.1553
   77MOL   C26929301   7.397   1.419   4.423 -0.0370  0.2933 -0.0572
   77MOL   O27029302   7.399   1.462   4.557 -0.5159  0.0588  0.3724
   77MOL   C27129303   7.296   1.550   4.581  0.6285 -1.0542  0.3615
   77MOL   C27229304   7.333   1.637   4.702  0.0520  0.3844 -0.2165
   77MOL   C27329305   7.326   1.575   4.844  0.1182 -0.5169  0.4365
   77MOL   C27429306   7.347   1.671   4.968  0.0362 -0.3726  0.2341
   77MOL   H27529307   7.328   1.223   4.500  2.4165 -0.4460  1.8657
   77MOL   H27629308   7.494   1.228   4.507  1.0816 -2.4253 -1.8034
   77MOL   H27729309   7.311   1.445   4.362  1.3171 -0.1619 -2.2129
   77MOL   H27829310   7.271   1.615   4.497  2.2178 -1.7102 -0.6639
   77MOL   H27929311   7.206   1.489   4.589  0.8719 -1.6188 -1.0204
   77MOL   H28029312   7.435   1.673   4.696  0.4444 -0.6379  0.2418
   77MOL   H28129313   7.263   1.721   4.705  0.3782  0.6914 -0.9854
   77MOL   H28229314   7.398   1.493   4.848  0.0551 -0.8310 -3.1516
   77MOL   H28329315   7.226   1.534   4.854 -0.1406 -0.4175 -1.5026
   77MOL   H28429316   7.446   1.716   4.965  0.3708 -0.8474  2.8710
   77MOL   H28529317   7.341   1.622   5.065  1.1482 -2.1093 -0.5516
   77MOL   H28629318   7.280   1.757   4.969  0.3622 -0.1240  1.0767
   77MOL   C28729319   7.527   1.469   4.355 -0.5849  0.1475 -0.5279
   77MOL   C28829320   7.669   1.478   4.427  0.0548 -0.0292  0.1348
   77MOL   O28929321   7.738   1.566   4.341 -0.1968 -0.7905 -0.1119
   77MOL   C29029322   0.033   1.657   4.395  0.7114  0.7481  0.2004
   77MOL   C29129323   0.080   1.771   4.301  0.2571 -0.0148 -0.0907
   77MOL   C29229324   0.127   1.716   4.170  0.6633 -0.1085 -0.2753
   77MOL   C29329325   0.217   1.811   4.093  0.0800 -0.3744  0.3272
   77MOL   H29429326   7.516   1.574   4.329 -0.8647 -0.2848 -2.2028
   77MOL   H29529327   7.560   1.412   4.267  2.2465  0.6556  0.1639
   77MOL   H29629328   7.654   1.517   4.527 -0.5468 -3.7287  1.5599
   77MOL   H29729329   7.800   1.708   4.485  1.3752  2.3364 -0.4137
   77MOL   H29829330   0.128   1.610   4.421  0.8392  0.8622 -0.0563
   77MOL   H29929331   0.156   1.835   4.346 -0.6590  0.2833  1.0628
   77MOL   H30029332   7.801   1.834   4.266  0.0750 -1.4247 -2.3314
   77MOL   H30129333   0.056   1.667   4.103 -0.9255  3.5746 -1.4512
   77MOL   H30229334   0.199   1.638   4.190  0.1139 -1.6226 -3.9192
   77MOL   H30329335   0.168   1.898   4.050  1.5045  0.4875  0.4255
   77MOL   H30429336   0.305   1.846   4.148 -0.7956  0.7182  1.0562
   77MOL   H30529337   0.252   1.766   4.000  0.8541  1.8509 -0.5036
   77MOL   C30629338   7.751   1.343   4.420 -0.1309 -1.1573  0.8802
   77MOL   C30729339   7.767   1.281   4.564 -0.0382  0.6856  0.1654
   77MOL   O30829340   0.071   1.339   4.631 -0.1261 -0.0464 -0.9325
   77MOL   C30929341   0.041   1.425   4.737  0.5199  0.3598  0.3333
   77MOL   C31029342   0.178   1.459   4.808 -0.1172  0.2468 -0.1101
   77MOL   C31129343   0.259   1.550   4.706 -0.2595  0.1739 -0.1880
   77MOL   C31229344   0.406   1.573   4.737  0.1606  0.6195 -0.5208
   77MOL   H31329345   7.692   1.270   4.365 -1.9667  1.6264 -0.9603
   77MOL   H31429346   0.046   1.365   4.374 -1.2278  3.1232  0.4819
   77MOL   H31529347   7.678   1.293   4.625 -0.9511  1.7234 -1.3250
   77MOL   H31629348   7.785   1.374   4.815 -1.5048  3.8299  1.2299
   77MOL   H31729349   7.783   1.511   4.706 -0.1392  0.4333  1.7228
   77MOL   H31829350   0.242   1.372   4.817 -1.5964 -0.9544 -1.0239
   77MOL   H31929351   0.173   1.516   4.901  1.9164  0.0436  0.1449
   77MOL   H32029352   0.256   1.495   4.611  0.9661  0.1926 -0.2430
   77MOL   H32129353   0.206   1.644   4.689 -1.8000 -0.6102  0.2366
   77MOL   H32229354   0.466   1.591   4.648  0.5063  0.5886 -0.2929
   77MOL   H32329355   0.434   1.478   4.784 -0.2608  1.5994  1.7508
   77MOL   H32429356   0.426   1.659   4.801 -0.1656  2.0772 -2.3480
   77MOL   C32529357   0.012   1.133   4.541  0.0421  0.6121 -0.5322
   77MOL   C32629358   0.028   1.061   4.674 -0.0076 -0.2065  1.1715
   77MOL   O32729359   7.700   1.029   4.728 -0.5873  0.7492 -0.6145
   77MOL   C32829360   7.685   1.033   4.871  0.0099 -0.2424 -0.6616
   77MOL   C32929361   7.539   1.041   4.912 -0.5665  0.1886 -0.2188
   77MOL   C33029362   7.460   1.169   4.852 -0.4620  0.2912 -0.5359
   77MOL   C33129363   7.325   1.183   4.911  0.3390  0.4456 -0.2696
   77MOL   H33229364   0.104   1.142   4.483  1.7771  0.7382  2.1352
   77MOL   H33329365   7.738   1.083   4.480 -0.3030  2.3376 -1.5459
   77MOL   H33429366   0.079   1.129   4.742  0.3345  0.7023  0.0134
   77MOL   H33529367   7.733   1.123   4.908  0.6687 -0.0011 -2.0539
   77MOL   H33629368   7.732   0.947   4.919 -1.1269  0.4691  1.8175
   77MOL   H33729369   7.487   0.947   4.890 -0.5278 -0.8388  3.7822
   77MOL   H33829370   7.540   1.052   5.020  1.5170 -1.7573 -0.0007
   77MOL   H33929371   7.451   1.153   4.745  2.1134  1.2643 -0.9358
   77MOL   H34029372   7.525   1.255   4.870  1.0707 -1.3534  2.2024
   77MOL   H34129373   7.256   1.255   4.867  0.2622  0.9926  0.7305
   77MOL   H34229374   7.334   1.207   5.017 -0.8251 -0.8715  0.1368
   77MOL   H34329375   7.275   1.088   4.895  1.8296 -0.3702 -0.2158
   77MOL   C34429376   0.111   0.931   4.663  0.4169 -0.2249  0.3814
   77MOL   C34529377   0.265   0.946   4.664 -0.0120  0.6755  0.2577
   77MOL   O34629378   0.302   0.987   4.526 -0.4000 -0.5040  0.5155
   77MOL   C34729379   0.381   1.105   4.523  0.1321  0.2517  0.4104
   77MOL   C34829380   0.421   1.138   4.378  0.5679 -0.0309  0.9500
   77MOL   C34929381   0.519   1.258   4.369 -0.4246 -0.0600  0.1780
   77MOL   C35029382   0.535   1.304   4.228  0.4305  0.4945  0.2727
   77MOL   H35129383   0.083   0.865   4.746 -1.8968 -0.3643 -0.4662
   77MOL   H35229384   0.074   0.880   4.574 -1.3411  1.7228 -0.0593
   77MOL   H35329385   0.285   1.024   4.738 -2.4082  0.4781  1.1696
   77MOL   H35429386   0.474   1.095   4.579  0.6825  2.2831 -0.0926
   77MOL   H35529387   0.332   1.175   4.591  1.6553  1.7600 -0.0144
   77MOL   H35629388   0.334   1.158   4.315  0.5138  0.9382  1.3138
   77MOL   H35729389   0.467   1.046   4.344 -1.0338  0.2645 -2.2763
   77MOL   H35829390   0.478   1.336   4.434  0.3742  0.8220 -0.3824
   77MOL   H35929391   0.610   1.226   4.420 -1.1209  0.3300  1.7009
   77MOL   H36029392   0.590   1.398   4.232 -1.3058  1.5612 -0.6176
   77MOL   H36129393   0.437   1.309   4.181  0.0583 -2.1151  0.6947
   77MOL   H36229394   0.603   1.240   4.171 -0.2622  0.7101 -0.8058
   77MOL   C36329395   0.340   0.820   4.700  0.2577  0.1169 -0.6794
   77MOL   C36429396   0.490   0.841   4.721  0.0248 -0.1154  0.2500
   77MOL   O36529397   0.541   0.733   4.789  0.0015  0.3781  0.5763
   77MOL   C36629398   0.681   0.732   4.793 -0.4795 -0.6918  0.5628
   77MOL   C36729399   0.738   0.605   4.848  0.8042 -0.8999 -0.0168
   77MOL   C36829400   0.893   0.613   4.855 -0.5638 -0.1809  0.2859
   77MOL   C36929401   0.961   0.525   4.960  0.3131 -0.2055  0.9743
   77MOL   H37029402   0.323   0.760   4.611 -1.2708  0.0465 -0.3535
   77MOL   H37129403   0.303   0.765   4.787 -0.9522  0.0260 -1.2476
   77MOL   H37229404   0.500   0.933   4.778 -0.8668  0.7845 -1.0218
   77MOL   H37329405   0.711   0.825   4.842  0.2538  1.3403 -3.5151
   77MOL   H37429406   0.718   0.743   4.691  0.3316 -1.6853  0.7423
   77MOL   H37529407   0.699   0.525   4.786  1.4108 -2.1839  1.2291
   77MOL   H37629408   0.706   0.593   4.952  0.4090  0.7726  0.0723
   77MOL   H37729409   0.928   0.707   4.897  1.5820  0.0262 -1.8841
   77MOL   H37829410   0.947   0.603   4.761 -0.8627 -1.2312  0.2183
   77MOL   H37929411   0.946   0.419   4.943 -0.1006  0.0631 -0.3804
   77MOL   H38029412   1.069   0.535   4.968  0.5193 -2.1445  0.8147
   77MOL   H38129413   0.915   0.548   5.057  1.8494 -0.3717  1.7497
   77MOL   H38229414   0.540   0.860   4.626 -1.0467  2.2744  0.1238
   78MOL     C129415   3.004   5.726   3.511  0.1684 -0.2342  0.4237
   78MOL     C229416   3.037   5.790   3.646  0.2266  0.2343  0.3512
   78MOL     O329417   2.931   5.876   3.675  0.0167 -0.9486  0.3795
   78MOL     C429418   2.979   5.998   3.728  0.0356  0.0616  0.2976
   78MOL     C529419   2.885   6.112   3.681 -0.7769  0.0895 -0.2453
   78MOL     C629420   2.884   6.131   3.528 -0.0966  0.0159 -0.4538
   78MOL     C729421   2.804   6.250   3.486 -0.1492  0.1518  0.1619
   78MOL     H829422   2.910   5.673   3.523 -0.3003  1.0475  2.7467
   78MOL     H929423   2.984   5.800   3.434  2.0145  0.7179  0.8318
   78MOL    H1029424   3.132   5.841   3.627 -0.1073 -0.4478 -3.5265
   78MOL    H1129425   2.978   5.999   3.837 -0.6141 -2.8768  0.3723
   78MOL    H1229426   3.077   6.029   3.693  0.4022 -0.9173  0.4371
   78MOL    H1329427   2.918   6.201   3.735 -0.3496 -1.1741  1.6571
   78MOL    H1429428   2.787   6.107   3.727  1.4500  1.6009  5.0924
   78MOL    H1529429   2.840   6.044   3.479 -0.0052 -0.0121 -0.4883
   78MOL    H1629430   2.990   6.144   3.502  0.3236 -0.8850  0.7988
   78MOL    H1729431   2.834   6.347   3.526 -1.6159 -0.7059  3.4257
   78MOL    H1829432   2.706   6.248   3.532 -0.2474  1.3149  0.0279
   78MOL    H1929433   2.798   6.254   3.377  2.6065  0.5485 -0.0241
   78MOL    H2029434   3.085   5.669   3.466  0.4310  0.6928 -0.2842
   78MOL    C2129435   3.044   5.689   3.755 -0.9137 -0.1392 -0.2027
   78MOL    C2229436   3.162   5.592   3.756  0.1524 -0.1117 -0.1432
   78MOL    O2329437   3.288   5.660   3.731 -0.3559 -0.8078 -0.4387
   78MOL    C2429438   3.367   5.579   3.647  0.4974 -0.2253  0.3899
   78MOL    C2529439   3.499   5.652   3.613  0.2665  0.1940  0.2713
   78MOL    C2629440   3.608   5.628   3.724  0.4463  0.4109 -0.2318
   78MOL    C2729441   3.565   5.638   3.873  0.4847 -0.2872  0.4295
   78MOL    H2829442   2.957   5.624   3.763 -1.8293  1.1938  1.1373
   78MOL    H2929443   3.039   5.733   3.855  0.1458 -0.6908  0.1033
   78MOL    H3029444   3.140   5.527   3.672 -1.6438 -0.8010  0.8090
   78MOL    H3129445   3.304   5.568   3.559  1.3268  1.4476 -0.4441
   78MOL    H3229446   3.382   5.478   3.685 -0.7357  0.5308  2.9903
   78MOL    H3329447   3.545   5.611   3.523  1.5932  0.0488  1.0025
   78MOL    H3429448   3.472   5.757   3.601  0.6964  0.0338 -2.4586
   78MOL    H3529449   3.654   5.531   3.708  0.9879  0.5655  0.3598
   78MOL    H3629450   3.686   5.704   3.725  2.2240 -1.3909  1.6897
   78MOL    H3729451   3.522   5.735   3.895 -0.8796 -0.9701  0.8857
   78MOL    H3829452   3.491   5.559   3.890 -0.8099  0.6779 -0.6293
   78MOL    H3929453   3.647   5.625   3.943 -0.6675 -0.3100  1.8166
   78MOL    C4029454   3.172   5.493   3.879  0.0493  0.2528 -0.0257
   78MOL    C4129455   3.041   5.421   3.921  0.1400 -0.0487  0.2563
   78MOL    O4229456   2.947   5.513   3.975  0.6228  0.3057  0.2879
   78MOL    C4329457   2.806   5.482   3.977 -0.2901  0.1454  0.0251
   78MOL    C4429458   2.740   5.602   4.050 -0.5199  0.3893  0.9370
   78MOL    C4529459   2.723   5.723   3.947  1.0541 -0.0692  0.4654
   78MOL    C4629460   2.665   5.849   4.005 -0.2653  0.1933 -0.3967
   78MOL    H4729461   3.217   5.542   3.965  0.8479  1.0365 -0.8786
   78MOL    H4829462   3.249   5.421   3.852 -0.3488 -0.5676  0.9901
   78MOL    H4929463   3.005   5.368   3.832  1.0676 -0.7626  0.2977
   78MOL    H5029464   2.788   5.393   4.036  1.1954 -0.4519 -0.3817
   78MOL    H5129465   2.766   5.464   3.877 -1.1980 -1.8544  0.7231
   78MOL    H5229466   2.786   5.645   4.139 -0.8736  0.3103  1.1618
   78MOL    H5329467   2.642   5.567   4.082 -0.8515  0.4664  0.0261
   78MOL    H5429468   2.667   5.700   3.857 -0.1007  2.0788  0.5867
   78MOL    H5529469   2.823   5.740   3.907  0.9921 -0.0599  0.3142
   78MOL    H5629470   2.565   5.835   4.045 -0.6580 -2.4345 -2.2171
   78MOL    H5729471   2.731   5.888   4.083  0.6489 -0.2267 -0.9498
   78MOL    H5829472   2.665   5.925   3.926 -1.2147  0.1748 -0.4103
   78MOL    C5929473   3.077   5.320   4.038  0.4890  0.1139 -0.3793
   78MOL    C6029474   3.181   5.215   4.009 -0.0872 -0.5215  0.2933
   78MOL    O6129475   3.202   5.151   4.140  0.6444 -0.5302  0.2429
   78MOL    C6229476   3.334   5.116   4.169 -0.1499  0.4202 -0.1434
   78MOL    C6329477   3.333   5.074   4.318 -0.0548  0.1735 -0.4916
   78MOL    C6429478   3.475   5.024   4.363 -0.4424 -0.5915 -0.5241
   78MOL    C6529479   3.493   4.927   4.483 -0.0900  0.0684 -0.2112
   78MOL    H6629480   3.114   5.375   4.124  0.8976  0.2832 -0.6650
   78MOL    H6729481   2.982   5.278   4.072  0.5186 -0.4423 -0.9686
   78MOL    H6829482   3.270   5.263   3.968 -1.1830  2.7587  1.6293
   78MOL    H6929483   3.411   5.190   4.149  1.4709 -0.7103  1.7533
   78MOL    H7029484   3.361   5.028   4.111  0.5725 -2.1855  3.9672
   78MOL    H7129485   3.321   5.160   4.384  0.7063  1.8964 -2.5634
   78MOL    H7229486   3.249   5.009   4.343 -0.4495  0.8464 -0.0408
   78MOL    H7329487   3.524   4.990   4.271  1.8888  0.1082  0.4288
   78MOL    H7429488   3.537   5.109   4.391 -1.7922 -0.0763  0.9903
   78MOL    H7529489   3.454   4.828   4.457  0.7227 -0.3514  0.1699
   78MOL    H7629490   3.596   4.917   4.517  0.1970 -2.1544 -1.5800
   78MOL    H7729491   3.433   4.969   4.564  0.9117  0.6899  0.2030
   78MOL    C7829492   3.139   5.098   3.919 -0.1866  0.3593 -0.3636
   78MOL    C7929493   3.189   5.101   3.771 -0.1296  0.4544 -0.3779
   78MOL    O8029494   3.132   4.981   3.711  0.5173  0.1270 -0.7160
   78MOL    C8129495   3.001   5.009   3.664  0.2015 -0.9212 -0.5192
   78MOL    C8229496   2.949   4.892   3.589 -0.3283  0.2353  0.2710
   78MOL    C8329497   3.020   4.874   3.456 -0.4604  0.7513 -0.1280
   78MOL    C8429498   2.959   4.759   3.373  0.7810 -0.4719  0.6430
   78MOL    H8529499   3.036   5.066   3.926  0.2172 -0.7627  0.6421
   78MOL    H8629500   3.187   5.008   3.957  2.2353  1.8836  0.3507
   78MOL    H8729501   3.159   5.194   3.722 -0.3875  0.7368  0.3109
   78MOL    H8829502   2.996   5.093   3.595  0.9388 -1.2031 -0.9302
   78MOL    H8929503   2.935   5.027   3.749  0.9349 -0.1758 -0.0974
   78MOL    H9029504   2.947   4.800   3.648  1.5423 -0.6517 -0.9818
   78MOL    H9129505   2.848   4.924   3.567  0.7696  2.0374 -2.4927
   78MOL    H9229506   3.122   4.846   3.483 -0.3552  0.6047 -0.6626
   78MOL    H9329507   3.005   4.967   3.401  0.0691  1.5077  0.9887
   78MOL    H9429508   3.018   4.754   3.282  0.7712 -2.0292  0.7129
   78MOL    H9529509   2.971   4.664   3.424 -1.5253 -2.4634 -2.3789
   78MOL    H9629510   2.851   4.766   3.362  0.9518 -0.4986 -1.0646
   78MOL    C9729511   3.342   5.079   3.764 -0.4254 -0.0215 -0.7272
   78MOL    C9829512   3.392   5.054   3.623 -0.2040 -0.3613  0.3264
   78MOL    O9929513   3.384   5.182   3.549  0.3539  0.3611  0.1837
   78MOL   C10029514   3.312   5.180   3.423  0.2088 -0.9591 -0.4232
   78MOL   C10129515   3.229   5.311   3.395  0.3546 -0.0647  0.5032
   78MOL   C10229516   3.089   5.292   3.326 -0.6173 -0.3622  0.0332
   78MOL   C10329517   2.989   5.414   3.339 -0.6993 -0.2566  0.2299
   78MOL   H10429518   3.369   4.997   3.831 -2.0570  1.6726  2.1506
   78MOL   H10529519   3.400   5.156   3.815  0.1487 -0.9415  0.0424
   78MOL   H10629520   3.330   4.977   3.578  0.7185 -0.7050 -0.3617
   78MOL   H10729521   3.245   5.094   3.417  0.8952 -1.5264 -0.1122
   78MOL   H10829522   3.393   5.161   3.352  0.5808  0.2994 -0.3451
   78MOL   H10929523   3.296   5.381   3.345 -0.5848  0.9609  0.6720
   78MOL   H11029524   3.207   5.365   3.487 -1.0573  0.5744 -0.2054
   78MOL   H11129525   3.033   5.209   3.369  0.5274 -0.0794  2.0983
   78MOL   H11229526   3.103   5.283   3.218 -1.8817 -2.7446  0.0321
   78MOL   H11329527   2.982   5.450   3.442  2.8558  1.7360 -0.1304
   78MOL   H11429528   3.013   5.504   3.283 -2.3619  0.6263  0.9120
   78MOL   H11529529   2.892   5.390   3.295 -1.9530  3.5373  0.7068
   78MOL   C11629530   3.537   5.003   3.607  0.0383  0.7870 -0.3071
   78MOL   C11729531   3.578   4.868   3.671  0.3736 -0.0326 -0.0956
   78MOL   O11829532   3.521   4.755   3.597 -0.7440  0.1678 -0.2939
   78MOL   C11929533   3.465   4.655   3.677 -0.0564 -0.7773  0.1075
   78MOL   C12029534   3.406   4.553   3.577  0.3787  0.3810 -0.1785
   78MOL   C12129535   3.504   4.464   3.484  0.1605 -0.2395 -0.1525
   78MOL   C12229536   3.439   4.350   3.421  0.2035 -0.1395  0.2425
   78MOL   H12329537   3.569   5.007   3.503  0.7212 -0.5402 -0.1599
   78MOL   H12429538   3.604   5.081   3.644 -0.9385  1.9517 -0.9716
   78MOL   H12529539   3.536   4.866   3.771  0.7954  2.3490  0.1451
   78MOL   H12629540   3.382   4.687   3.740 -0.3272 -1.3746  0.0562
   78MOL   H12729541   3.542   4.611   3.741  2.2952  2.6236 -0.2536
   78MOL   H12829542   3.337   4.604   3.509 -0.5499 -0.2040  0.3072
   78MOL   H12929543   3.332   4.486   3.622  0.6437 -0.8615 -1.5266
   78MOL   H13029544   3.557   4.533   3.419  0.1870  1.1097  1.2720
   78MOL   H13129545   3.582   4.426   3.550  1.4427  2.0818 -0.2816
   78MOL   H13229546   3.404   4.277   3.493  1.7421  0.9976  2.1894
   78MOL   H13329547   3.501   4.288   3.355 -0.4144 -1.1535  0.5936
   78MOL   H13429548   3.358   4.377   3.353  0.5720 -0.3241 -0.2764
   78MOL   C13529549   3.733   4.856   3.676 -0.6397  0.4266 -0.6797
   78MOL   C13629550   3.780   4.806   3.807 -0.4833  0.0405  0.0972
   78MOL   O13729551   3.911   4.775   3.793  0.1974 -0.1113 -0.2405
   78MOL   C13829552   3.929   4.635   3.774  0.0408  0.8641  0.2063
   78MOL   C13929553   4.074   4.595   3.758 -0.2701  1.0256  0.8141
   78MOL   C14029554   4.091   4.448   3.764  0.2972  0.0179 -0.0349
   78MOL   C14129555   4.235   4.392   3.778 -0.4027  0.0638  0.9589
   78MOL   H14229556   3.789   4.947   3.653 -1.0578  0.9827  0.4932
   78MOL   H14329557   3.768   4.793   3.593  0.3287  3.4980 -2.7212
   78MOL   H14429558   3.720   4.722   3.841 -1.3246  1.0645  1.2176
   78MOL   H14529559   3.891   4.601   3.678 -1.6542  0.6607  0.9257
   78MOL   H14629560   3.888   4.586   3.863  1.8687 -1.1004  0.0139
   78MOL   H14729561   4.143   4.642   3.829  1.0991  1.0697 -0.5136
   78MOL   H14829562   4.106   4.640   3.664 -3.1764 -0.5867 -1.0154
   78MOL   H14929563   4.035   4.422   3.854 -1.1961  0.7445 -0.7338
   78MOL   H15029564   4.031   4.397   3.689 -1.0017  0.2924  0.7904
   78MOL   H15129565   4.300   4.443   3.707 -3.1310  0.2503 -1.5025
   78MOL   H15229566   4.274   4.416   3.876  1.4200 -2.5801  0.9201
   78MOL   H15329567   4.234   4.284   3.760  0.2021  0.0321  1.0989
   78MOL   C15429568   3.769   4.920   3.916 -0.3576 -0.4876 -0.1223
   78MOL   C15529569   3.771   4.850   4.052  0.4193  0.3585  0.4016
   78MOL   O15629570   3.644   4.801   4.072  0.3351 -0.4749 -0.8735
   78MOL   C15729571   3.621   4.663   4.108 -0.3962 -0.6482 -0.3398
   78MOL   C15829572   3.475   4.628   4.075 -0.4256 -0.3544 -0.3923
   78MOL   C15929573   3.370   4.679   4.175 -0.0857  0.2651 -0.2007
   78MOL   C16029574   3.231   4.678   4.122  0.6403  0.4227 -0.1090
   78MOL   H16129575   3.679   4.977   3.898  1.1785  2.3003  0.7787
   78MOL   H16229576   3.854   4.987   3.903 -1.1929  0.3440 -1.3630
   78MOL   H16329577   3.843   4.769   4.068 -0.7855 -0.9600 -0.7390
   78MOL   H16429578   3.685   4.601   4.045  0.7274  0.5813 -0.4406
   78MOL   H16529579   3.648   4.636   4.210 -1.8899 -2.5399 -0.4112
   78MOL   H16629580   3.463   4.520   4.077  3.1387 -0.8359 -0.9910
   78MOL   H16729581   3.455   4.660   3.972  1.3164  1.1401 -0.2898
   78MOL   H16829582   3.372   4.631   4.272 -0.4920  0.4003 -0.1249
   78MOL   H16929583   3.399   4.778   4.211 -1.8262 -0.7202  4.1674
   78MOL   H17029584   3.153   4.737   4.170 -0.0350 -0.8712  0.3910
   78MOL   H17129585   3.226   4.714   4.019 -0.0166  1.7459  0.3724
   78MOL   H17229586   3.200   4.574   4.133 -2.2458  1.3677  1.1355
   78MOL   C17329587   3.802   4.935   4.178 -0.9271  0.1959 -0.1319
   78MOL   C17429588   3.950   4.968   4.191 -0.1508 -0.3966 -0.0972
   78MOL   O17529589   3.995   5.041   4.071  0.0863  0.1953 -0.2687
   78MOL   C17629590   4.114   4.997   4.008 -0.1014  1.1164 -0.2528
   78MOL   C17729591   4.151   5.067   3.871  0.1940  0.3746  0.1095
   78MOL   C17829592   4.140   5.217   3.890 -0.7780  0.4812  0.8182
   78MOL   C17929593   4.178   5.300   3.760  0.5815 -0.5942  0.6174
   78MOL   H18029594   3.763   4.875   4.261  1.6189 -0.5749  0.5412
   78MOL   H18129595   3.749   5.030   4.186 -2.6779 -0.8015  0.3916
   78MOL   H18229596   3.996   4.870   4.201 -1.3319 -0.8580  0.8768
   78MOL   H18329597   4.112   4.889   3.992 -1.0125  1.0972 -0.0428
   78MOL   H18429598   4.193   5.012   4.082  1.4757  1.8175 -2.0290
   78MOL   H18529599   4.078   5.034   3.797  0.5648 -2.3079  0.8854
   78MOL   H18629600   4.248   5.036   3.832 -0.1434 -2.1900  1.2069
   78MOL   H18729601   4.043   5.249   3.926 -1.4016  0.3121 -0.6777
   78MOL   H18829602   4.216   5.239   3.966 -0.6856  2.1465  0.2675
   78MOL   H18929603   4.159   5.404   3.785 -0.1938 -1.2037  2.6829
   78MOL   H19029604   4.278   5.284   3.721  0.7860  0.7076  0.5722
   78MOL   H19129605   4.109   5.270   3.681 -0.6636 -0.5838  1.6801
   78MOL   C19229606   4.004   5.044   4.317  0.6697 -0.5963 -0.1052
   78MOL   C19329607   3.950   4.997   4.447 -0.4012 -0.1121 -0.7366
   78MOL   O19429608   3.984   4.860   4.450  0.2027  0.3034 -0.2281
   78MOL   C19529609   3.902   4.772   4.532 -0.1792  0.3016  0.2875
   78MOL   C19629610   3.932   4.623   4.516 -0.3754 -0.5016 -0.3145
   78MOL   C19729611   4.078   4.581   4.550 -0.5525 -0.1398 -0.2005
   78MOL   C19829612   4.106   4.601   4.698  0.1426 -0.1065  0.1236
   78MOL   H19929613   3.990   5.152   4.310 -2.1028 -1.0209 -1.7061
   78MOL   H20029614   4.112   5.029   4.328  0.7559 -1.6656 -2.2121
   78MOL   H20129615   3.843   5.009   4.461 -0.1062  2.0508 -0.0540
   78MOL   H20229616   3.801   4.776   4.491  0.6273  1.2689 -1.6545
   78MOL   H20329617   3.901   4.802   4.637 -1.2149 -1.0023  0.6641
   78MOL   H20429618   3.860   4.579   4.585 -2.4079  2.2201 -0.6121
   78MOL   H20529619   3.905   4.583   4.418 -2.3835  3.1324 -1.3398
   78MOL   H20629620   4.156   4.630   4.491  0.5025 -1.8865 -0.2970
   78MOL   H20729621   4.095   4.475   4.531 -0.6412 -0.3490  0.8925
   78MOL   H20829622   4.208   4.575   4.725 -0.4169 -0.7842  1.6356
   78MOL   H20929623   4.096   4.705   4.729 -1.4017  0.4774 -2.2099
   78MOL   H21029624   4.033   4.539   4.751  0.8810 -2.0347 -1.0579
   78MOL   C21129625   4.023   5.065   4.570 -0.0668  0.7084  0.1667
   78MOL   C21229626   4.006   5.221   4.588  1.0980 -0.4873  0.7430
   78MOL   O21329627   4.090   5.275   4.491 -0.3598 -0.1644  0.6680
   78MOL   C21429628   4.150   5.395   4.531  0.0494  0.5827 -0.9228
   78MOL   C21529629   4.207   5.445   4.400 -0.3634  0.0349  0.0344
   78MOL   C21629630   4.095   5.452   4.289 -0.6412  0.2229 -0.2814
   78MOL   C21729631   4.150   5.506   4.157 -0.5541 -0.9846 -0.9117
   78MOL   H21829632   4.130   5.044   4.571 -0.1288  0.4563  1.9022
   78MOL   H21929633   3.982   5.015   4.657 -2.4082 -0.1941 -1.4294
   78MOL   H22029634   4.046   5.242   4.687 -1.9456  1.0977  1.7051
   78MOL   H22129635   4.085   5.471   4.575  1.1733  2.7087 -2.7893
   78MOL   H22229636   4.231   5.380   4.603  0.2046  0.9369 -1.0183
   78MOL   H22329637   4.267   5.537   4.402 -0.0134 -0.1483 -1.3483
   78MOL   H22429638   4.278   5.375   4.358 -0.1306 -0.1855  0.7858
   78MOL   H22529639   4.013   5.515   4.325  0.9129  1.7400  0.6785
   78MOL   H22629640   4.061   5.350   4.270  0.3732 -0.0074 -0.9058
   78MOL   H22729641   4.247   5.458   4.142  0.4783  0.0527  2.0602
   78MOL   H22829642   4.174   5.612   4.154  0.0764 -1.0530  1.0463
   78MOL   H22929643   4.090   5.484   4.068 -0.1345  0.4407 -1.5579
   78MOL   C23029644   3.860   5.284   4.572 -0.3453 -0.3134 -0.0169
   78MOL   C23129645   3.763   5.284   4.697 -0.4673  0.1609 -0.1474
   78MOL   O23229646   3.815   5.365   4.805  0.0174 -0.3096 -0.3878
   78MOL   C23329647   3.802   5.311   4.939  0.7976  0.3301  0.3512
   78MOL   C23429648   3.912   5.213   4.995 -0.1418 -0.0386 -0.1378
   78MOL   C23529649   3.867   5.152   5.129 -0.0799 -0.2835  0.2067
   78MOL   C23629650   3.979   5.111   5.228  0.0778 -0.7491  0.5604
   78MOL   H23729651   3.810   5.218   4.501  1.4373 -0.6747 -0.9491
   78MOL   H23829652   3.879   5.381   4.526 -1.1043 -0.2414 -0.1973
   78MOL   H23929653   3.760   5.184   4.740 -1.0725  0.2537  0.0397
   78MOL   H24029654   3.793   5.390   5.015 -2.9948  0.8362 -0.5371
   78MOL   H24129655   3.709   5.255   4.945  0.9798 -0.3418 -2.5419
   78MOL   H24229656   3.938   5.142   4.917  1.4120  0.4896 -0.1272
   78MOL   H24329657   4.005   5.268   5.007 -1.3043  1.7338  1.0668
   78MOL   H24429658   3.784   5.082   5.118  0.3648 -1.0921  1.8421
   78MOL   H24529659   3.817   5.230   5.187  2.1437  1.1527  0.2292
   78MOL   H24629660   4.053   5.182   5.265  0.5611 -0.7303 -0.4213
   78MOL   H24729661   4.030   5.020   5.197  0.9952 -0.0203 -0.1002
   78MOL   H24829662   3.929   5.073   5.317  1.0127  2.1591  2.3648
   78MOL   C24929663   3.625   5.319   4.652  0.2293 -0.2207 -0.1304
   78MOL   C25029664   3.503   5.289   4.738 -0.6069 -0.2200  0.5955
   78MOL   O25129665   3.491   5.151   4.745 -0.4572 -0.3562 -0.1040
   78MOL   C25229666   3.464   5.097   4.872 -0.1588 -0.1488 -0.2998
   78MOL   C25329667   3.458   4.945   4.861 -0.0604 -0.2255 -0.2615
   78MOL   C25429668   3.599   4.893   4.830  0.0082 -0.3882 -0.1069
   78MOL   C25529669   3.594   4.740   4.796 -0.1043  0.9848  0.4234
   78MOL   H25629670   3.607   5.259   4.563 -0.7359 -0.8663  0.4927
   78MOL   H25729671   3.629   5.423   4.620  2.6914 -0.0244  0.7438
   78MOL   H25829672   3.493   5.343   4.831  0.8888  0.6489  0.2591
   78MOL   H25929673   3.368   5.137   4.905 -1.5126 -1.9586 -1.9284
   78MOL   H26029674   3.537   5.124   4.948 -0.2816 -0.9798  0.1222
   78MOL   H26129675   3.436   4.900   4.958  0.4666  1.6483  0.7473
   78MOL   H26229676   3.387   4.910   4.787 -1.2670 -0.5413  1.0255
   78MOL   H26329677   3.627   4.945   4.739  1.2648 -1.7088 -0.5035
   78MOL   H26429678   3.675   4.919   4.904  1.2284  1.9884 -2.1248
   78MOL   H26529679   3.515   4.712   4.727 -0.1806  1.6679  0.2235
   78MOL   H26629680   3.575   4.684   4.888  2.5016 -2.0350 -0.7790
   78MOL   H26729681   3.696   4.707   4.775 -0.2605  0.5158  0.4012
   78MOL   C26829682   3.382   5.343   4.668 -0.0355 -0.7469 -0.4403
   78MOL   C26929683   3.338   5.484   4.683  0.2012  0.1842  0.8672
   78MOL   O27029684   3.254   5.515   4.573 -0.0464 -0.6801  0.4983
   78MOL   C27129685   3.323   5.560   4.451 -0.0348  0.2375 -0.3983
   78MOL   C27229686   3.222   5.612   4.350  0.7996  0.4013 -0.3928
   78MOL   C27329687   3.292   5.688   4.242 -0.1900 -0.3741 -0.7418
   78MOL   C27429688   3.200   5.772   4.146  0.2290 -0.1733 -0.0793
   78MOL   H27529689   3.403   5.311   4.566 -1.5343 -0.7107 -0.7713
   78MOL   H27629690   3.295   5.288   4.705 -1.3675  1.6177  0.0496
   78MOL   H27729691   3.422   5.554   4.682 -0.1530  0.6038  0.5615
   78MOL   H27829692   3.386   5.645   4.481 -0.9470  0.6271  0.4530
   78MOL   H27929693   3.394   5.487   4.412  2.6062  2.9145 -0.8162
   78MOL   H28029694   3.169   5.525   4.312 -0.5920  0.8317  0.5486
   78MOL   H28129695   3.156   5.685   4.396 -2.6983 -2.1832 -1.1412
   78MOL   H28229696   3.346   5.616   4.181  0.7205 -1.4323  1.2633
   78MOL   H28329697   3.367   5.754   4.287 -0.4532 -1.6615  1.6749
   78MOL   H28429698   3.263   5.811   4.066  1.8906 -1.7573  0.4314
   78MOL   H28529699   3.163   5.861   4.198  0.1791 -0.5846  0.5810
   78MOL   H28629700   3.112   5.717   4.111 -0.4726  0.3229  0.8720
   78MOL   C28729701   3.262   5.524   4.809 -0.1755  0.1455 -0.4301
   78MOL   C28829702   3.230   5.677   4.818 -0.3887  0.4038  0.1106
   78MOL   O28929703   3.364   5.727   4.847  0.0924  0.3630  0.1488
   78MOL   C29029704   3.428   5.824   4.769 -0.1259 -0.2108  0.5668
   78MOL   C29129705   3.367   5.967   4.792  0.7530 -0.0143  1.1960
   78MOL   C29229706   3.243   6.004   4.710 -1.4818  0.4604 -0.4348
   78MOL   C29329707   3.223   6.147   4.667 -0.0530 -0.1476 -1.1038
   78MOL   H29429708   3.324   5.510   4.898 -2.8692  0.7861  1.6446
   78MOL   H29529709   3.171   5.464   4.819 -0.2284  0.4344  1.0735
   78MOL   H29629710   3.198   5.726   4.725  2.3055  1.1526 -0.4448
   78MOL   H29729711   3.531   5.823   4.806 -0.6367 -2.7586  2.0506
   78MOL   H29829712   3.432   5.801   4.662  1.0068 -1.6639  0.8951
   78MOL   H29929713   3.449   6.037   4.773 -0.4931  1.4500  1.1007
   78MOL   H30029714   3.346   5.991   4.897 -0.0060  0.1921  0.9978
   78MOL   H30129715   3.152   5.967   4.756 -0.8070 -1.0331 -0.2499
   78MOL   H30229716   3.243   5.941   4.621 -0.7117 -0.5197  0.2400
   78MOL   H30329717   3.206   6.212   4.752  1.3534 -2.2196  0.8195
   78MOL   H30429718   3.305   6.195   4.613  0.3498 -0.3332 -0.6532
   78MOL   H30529719   3.127   6.164   4.617 -0.7484  1.6954  0.7916
   78MOL   C30629720   3.121   5.709   4.929 -0.4812  0.1021  0.0371
   78MOL   C30729721   2.972   5.659   4.892 -0.2571  0.5743 -0.5398
   78MOL   O30829722   2.894   5.774   4.873  0.3966  0.3765  0.0238
   78MOL   C30929723   2.876   5.813   4.735 -0.1975  1.1470  0.6468
   78MOL   C31029724   2.851   5.966   4.736  0.4205  0.0347  0.4805
   78MOL   C31129725   2.861   6.034   4.598  0.3281  0.0680  0.1964
   78MOL   C31229726   2.823   6.181   4.610 -0.1555  0.6629 -0.3463
   78MOL   H31329727   3.139   5.676   5.032  1.2491  0.7879 -0.0251
   78MOL   H31429728   3.116   5.816   4.952 -1.3731  0.3372 -1.2056
   78MOL   H31529729   2.969   5.587   4.810  1.0559  0.0465 -0.1396
   78MOL   H31629730   2.793   5.757   4.693  1.2702 -0.3656 -0.3278
   78MOL   H31729731   2.955   5.777   4.669  0.4035  0.5059  1.6826
   78MOL   H31829732   2.924   6.014   4.801  3.5514 -3.6090 -0.1171
   78MOL   H31929733   2.753   5.975   4.784 -0.7540 -1.1375 -1.6093
   78MOL   H32029734   2.961   6.016   4.558  0.5571 -2.4249  1.7826
   78MOL   H32129735   2.792   5.977   4.535  1.5586 -0.5217 -0.6555
   78MOL   H32229736   2.910   6.247   4.606 -1.0875  1.9130 -0.2768
   78MOL   H32329737   2.771   6.193   4.705 -1.4426  2.0426 -1.1865
   78MOL   H32429738   2.757   6.217   4.531 -0.8215  0.3187  0.0427
   78MOL   C32529739   2.903   5.575   4.997  0.5895  0.3575  0.4620
   78MOL   C32629740   2.761   5.532   4.967  0.4432  0.6736  0.2938
   78MOL   O32729741   2.763   5.456   4.843  0.2317 -0.1624 -0.0853
   78MOL   C32829742   2.639   5.437   4.784  0.3653  0.4315 -0.1714
   78MOL   C32929743   2.664   5.403   4.635  0.8343  0.1965  0.6547
   78MOL   C33029744   2.718   5.520   4.555  0.5270  0.4233  0.4586
   78MOL   C33129745   2.740   5.498   4.403  0.3527  0.1766 -0.1812
   78MOL   H33229746   2.902   5.639   5.085  0.1146 -0.0218  0.7360
   78MOL   H33329747   2.969   5.492   5.023 -0.7448 -1.4440 -1.6742
   78MOL   H33429748   2.703   5.623   4.954 -0.1792  0.1877 -0.3750
   78MOL   H33529749   2.564   5.516   4.787  1.0791  1.0904  0.2729
   78MOL   H33629750   2.580   5.358   4.831 -1.5898  2.1677  0.3847
   78MOL   H33729751   2.729   5.320   4.608  0.6005  0.1690  0.1564
   78MOL   H33829752   2.571   5.368   4.589 -0.0766  1.7990  1.2300
   78MOL   H33929753   2.808   5.559   4.603  1.0813  0.1386 -0.3418
   78MOL   H34029754   2.655   5.606   4.576  2.1565  1.5026  1.0397
   78MOL   H34129755   2.806   5.577   4.366  0.6117  1.0672  2.1202
   78MOL   H34229756   2.642   5.481   4.359 -0.6183  0.1324  1.9537
   78MOL   H34329757   2.796   5.409   4.375 -0.7747 -0.6334  0.0985
   78MOL   C34429758   2.704   5.439   5.082  0.7306  0.4894 -0.6956
   78MOL   C34529759   2.684   5.519   5.217  0.1321  0.0730 -0.1816
   78MOL   O34629760   2.665   5.417   5.305  0.4135  0.4803  0.4453
   78MOL   C34729761   2.718   5.430   5.436 -0.0710  0.1877 -0.3649
   78MOL   C34829762   2.874   5.415   5.451 -0.3852  0.4278 -0.8857
   78MOL   C34929763   2.918   5.285   5.380  0.0726  0.1362  0.5172
   78MOL   C35029764   3.066   5.261   5.369 -0.1387 -0.5475  0.1611
   78MOL   H35129765   2.606   5.394   5.066  1.1104 -0.5294 -0.2215
   78MOL   H35229766   2.780   5.362   5.094  0.9985  0.8082 -0.3313
   78MOL   H35329767   2.776   5.571   5.242 -0.9000  0.3190  3.4265
   78MOL   H35429768   2.675   5.360   5.508 -0.0981  1.6856  1.1017
   78MOL   H35529769   2.693   5.526   5.481  2.0172  0.1051  1.0191
   78MOL   H35629770   2.879   5.389   5.557  0.0788  0.6258 -0.8566
   78MOL   H35729771   2.936   5.499   5.421 -0.2115  0.4747 -0.3883
   78MOL   H35829772   2.873   5.201   5.434 -0.0564 -1.7373 -2.3875
   78MOL   H35929773   2.867   5.290   5.284  2.4240  1.4582 -0.6975
   78MOL   H36029774   3.120   5.352   5.342 -2.6047  1.5016  1.8091
   78MOL   H36129775   3.096   5.171   5.315 -0.9802 -1.6865  1.5766
   78MOL   H36229776   3.109   5.237   5.466 -0.5945  0.8122  0.7171
   78MOL   C36329777   2.570   5.625   5.227 -0.3448  0.0975 -0.8912
   78MOL   C36429778   2.555   5.707   5.354  0.1280  0.1240 -0.0958
   78MOL   O36529779   2.490   5.826   5.331 -0.1158  0.4110 -0.8857
   78MOL   C36629780   2.486   5.923   5.435  0.6156 -0.3590 -0.1264
   78MOL   C36729781   2.405   6.038   5.393  0.3111 -0.2062  0.7201
   78MOL   C36829782   2.249   6.002   5.388 -0.0723 -0.4459 -0.2939
   78MOL   C36929783   2.167   6.127   5.346 -0.2734  0.0977 -0.0549
   78MOL   H37029784   2.473   5.575   5.222 -1.1105  1.4742 -0.0783
   78MOL   H37129785   2.588   5.684   5.137 -0.9131  1.0634 -0.3812
   78MOL   H37229786   2.649   5.743   5.395  0.8839 -0.6255 -1.1620
   78MOL   H37329787   2.585   5.955   5.469 -0.1546  1.3149  0.6049
   78MOL   H37429788   2.448   5.886   5.530  0.7430  1.1893  0.5469
   78MOL   H37529789   2.436   6.059   5.290 -3.2721  0.4410 -0.3003
   78MOL   H37629790   2.445   6.119   5.455 -3.8570  0.2735  2.9120
   78MOL   H37729791   2.208   5.980   5.486 -1.7452 -3.1410 -1.5288
   78MOL   H37829792   2.228   5.924   5.315 -1.2428  0.0456 -0.5109
   78MOL   H37929793   2.061   6.105   5.333 -0.6919  1.8834  0.2153
   78MOL   H38029794   2.176   6.208   5.418 -1.5294 -0.8622  1.2239
   78MOL   H38129795   2.201   6.152   5.245 -0.1971 -1.7137 -0.5070
   78MOL   H38229796   2.497   5.648   5.425  0.1993 -0.0713 -0.2010
   79MOL     C129797   4.965   1.123   6.269 -0.0265  0.8140 -0.0101
   79MOL     C229798   4.881   1.097   6.393  0.0823 -0.0119 -0.0983
   79MOL     O329799   4.885   1.216   6.477 -1.1989  0.1944 -0.2997
   79MOL     C429800   4.973   1.221   6.591  0.5468 -0.3499 -0.1074
   79MOL     C529801   4.905   1.167   6.717 -0.0300 -0.0997 -0.3003
   79MOL     C629802   4.784   1.256   6.762 -0.2048  0.4389  0.1115
   79MOL     C729803   4.708   1.203   6.885 -0.0255 -0.4239  0.0921
   79MOL     H829804   5.069   1.149   6.287  0.3776 -1.6656  1.3678
   79MOL     H929805   4.954   1.038   6.202  0.5315 -0.1131  1.0478
   79MOL    H1029806   4.922   1.016   6.453 -1.7861 -0.0628  1.1517
   79MOL    H1129807   5.070   1.175   6.569  1.9099  0.8531  3.1207
   79MOL    H1229808   4.994   1.327   6.609 -1.0911 -0.1191  0.4777
   79MOL    H1329809   4.975   1.155   6.800 -0.2826 -0.3611 -0.1222
   79MOL    H1429810   4.871   1.066   6.694 -1.8062  0.9218 -2.4211
   79MOL    H1529811   4.711   1.258   6.681  1.9759 -2.0752 -2.0010
   79MOL    H1629812   4.813   1.359   6.782  0.7589 -0.2810  2.5985
   79MOL    H1729813   4.675   1.100   6.870  0.2643 -0.3724 -0.9370
   79MOL    H1829814   4.623   1.271   6.892  1.1519  1.0539  0.0482
   79MOL    H1929815   4.761   1.215   6.979 -1.0800 -0.4904  0.7087
   79MOL    H2029816   4.926   1.208   6.213 -0.9173 -0.9181 -2.0524
   79MOL    C2129817   4.734   1.050   6.374 -0.3233 -0.2823 -0.1192
   79MOL    C2229818   4.675   0.942   6.477 -0.0065  0.6331 -0.1703
   79MOL    O2329819   4.534   0.937   6.467 -0.0353 -0.5126  0.4991
   79MOL    C2429820   4.464   1.047   6.524  0.6516 -0.2596 -0.4726
   79MOL    C2529821   4.322   0.999   6.526 -0.4321  0.7338  0.3010
   79MOL    C2629822   4.303   0.874   6.612  0.5707 -0.5047 -0.7715
   79MOL    C2729823   4.160   0.817   6.626  0.8882 -0.0764 -0.0928
   79MOL    H2829824   4.709   1.018   6.272  0.6902  0.0934 -0.4917
   79MOL    H2929825   4.672   1.139   6.379 -2.3751 -1.6826  0.0610
   79MOL    H3029826   4.703   0.964   6.580  0.4291 -0.5287 -0.0270
   79MOL    H3129827   4.480   1.145   6.479  1.6013  0.8235  2.1142
   79MOL    H3229828   4.489   1.062   6.629  1.9908  1.8847 -1.0708
   79MOL    H3329829   4.253   1.081   6.546 -0.1803  0.8160  0.8432
   79MOL    H3429830   4.300   0.968   6.425  0.8869 -0.2262  0.2944
   79MOL    H3529831   4.373   0.795   6.584  1.0234 -1.0017  1.6106
   79MOL    H3629832   4.339   0.896   6.712 -2.5081  0.3487  0.2113
   79MOL    H3729833   4.108   0.796   6.532  0.3376  1.2901 -0.0963
   79MOL    H3829834   4.167   0.723   6.682  0.5820 -0.8106 -1.2706
   79MOL    H3929835   4.094   0.878   6.688 -1.1284 -1.6967 -0.5573
   79MOL    C4029836   4.719   0.792   6.435  0.2288  0.0708  1.4934
   79MOL    C4129837   4.657   0.682   6.523  0.1065  0.6548 -0.3361
   79MOL    O4229838   4.715   0.695   6.655  0.7132  0.0404 -0.0469
   79MOL    C4329839   4.618   0.738   6.754  0.0347 -0.3679 -0.2314
   79MOL    C4429840   4.708   0.781   6.869 -0.7253  0.2971  0.5608
   79MOL    C4529841   4.630   0.838   6.984  0.4015 -0.1068  0.1079
   79MOL    C4629842   4.582   0.734   7.089  0.1228  0.0983  0.1266
   79MOL    H4729843   4.827   0.778   6.444  0.2699 -1.8187 -1.4228
   79MOL    H4829844   4.684   0.776   6.334 -2.0992 -2.1684  2.6000
   79MOL    H4929845   4.548   0.693   6.520 -0.0938 -1.1214  0.0490
   79MOL    H5029846   4.558   0.651   6.779 -0.5311  0.1289  0.1442
   79MOL    H5129847   4.559   0.818   6.711  0.8084 -0.3764 -1.3404
   79MOL    H5229848   4.771   0.863   6.835  0.1007 -1.4122 -2.2416
   79MOL    H5329849   4.774   0.704   6.907 -2.0648 -0.0133  2.3198
   79MOL    H5429850   4.545   0.903   6.961  1.0478  1.3549  1.7370
   79MOL    H5529851   4.692   0.912   7.034 -1.3814 -0.3651  2.8143
   79MOL    H5629852   4.558   0.770   7.190  1.0447 -0.2618  0.4745
   79MOL    H5729853   4.500   0.669   7.057 -0.2585  0.9677 -0.6875
   79MOL    H5829854   4.669   0.671   7.102 -0.2932 -0.2856  1.0955
   79MOL    C5929855   4.695   0.542   6.463  0.6024 -0.3873  0.4623
   79MOL    C6029856   4.656   0.410   6.529  0.0007 -0.1258  0.0742
   79MOL    O6129857   4.517   0.407   6.519  0.3020 -0.3014  0.2673
   79MOL    C6229858   4.447   0.350   6.627  0.0946  0.4745 -0.6202
   79MOL    C6329859   4.302   0.313   6.603  0.0845 -0.1416  0.1410
   79MOL    C6429860   4.293   0.198   6.496 -0.3683 -0.7139 -0.3495
   79MOL    C6529861   4.152   0.135   6.491 -0.5143  0.5649 -0.2936
   79MOL    H6629862   4.661   0.554   6.360  0.9740 -0.2727  0.3519
   79MOL    H6729863   4.804   0.540   6.471  0.8151  1.1322 -1.7620
   79MOL    H6829864   4.677   0.412   6.636 -2.1713 -1.4944  0.5652
   79MOL    H6929865   4.450   0.430   6.701 -1.1883 -0.7377  0.7568
   79MOL    H7029866   4.501   0.270   6.676 -0.5895  0.5822  0.3156
   79MOL    H7129867   4.247   0.294   6.695  0.4842  1.0655  0.6478
   79MOL    H7229868   4.250   0.401   6.563 -2.6970 -1.2777  1.1380
   79MOL    H7329869   4.324   0.244   6.402 -0.7440  0.3127  0.0143
   79MOL    H7429870   4.374   0.126   6.510 -0.9712 -1.2705  0.2854
   79MOL    H7529871   4.152   0.045   6.430 -0.5555 -0.4183  1.1547
   79MOL    H7629872   4.126   0.115   6.594  2.1618  0.1502  0.3431
   79MOL    H7729873   4.078   0.200   6.444  2.5769  2.7320 -2.3676
   79MOL    C7829874   4.704   0.279   6.468  0.0634  0.0633  0.5088
   79MOL    C7929875   4.859   0.245   6.455  0.8931  0.3067 -0.2231
   79MOL    O8029876   4.924   0.306   6.562  0.4896  0.5588  0.2359
   79MOL    C8129877   4.919   0.228   6.681 -0.1559  0.0749  0.0723
   79MOL    C8229878   4.986   0.312   6.786  0.1189 -0.3027 -0.2236
   79MOL    C8329879   5.136   0.347   6.764 -0.1256  0.1518 -0.2289
   79MOL    C8429880   5.189   0.459   6.858 -0.1494 -0.1095  0.0604
   79MOL    H8529881   4.659   0.266   6.370  0.8241  2.9136 -0.2867
   79MOL    H8629882   4.662   0.198   6.528 -1.6251 -0.3029 -1.1078
   79MOL    H8729883   4.853   0.136   6.461 -3.2926  0.3706 -1.9119
   79MOL    H8829884   4.967   0.132   6.663  2.4129  1.1584  0.8941
   79MOL    H8929885   4.817   0.212   6.716 -1.7139  2.4793 -3.1305
   79MOL    H9029886   4.928   0.404   6.797  1.6933  1.1197 -3.1749
   79MOL    H9129887   4.971   0.266   6.883 -0.0228 -3.2531 -1.6011
   79MOL    H9229888   5.135   0.389   6.663  0.2444  1.4226  0.2914
   79MOL    H9329889   5.206   0.263   6.769  1.6972  1.5484 -1.1795
   79MOL    H9429890   5.181   0.435   6.964 -0.6104 -0.6952 -0.1060
   79MOL    H9529891   5.292   0.483   6.833 -0.1342 -1.0382 -0.7907
   79MOL    H9629892   5.133   0.552   6.846 -0.1923 -0.3834 -1.9371
   79MOL    C9729893   4.926   0.290   6.324  0.2486  1.1922  0.5521
   79MOL    C9829894   5.051   0.217   6.290  0.2994 -0.3512  0.3190
   79MOL    O9929895   5.056   0.216   6.142  0.5355 -0.0959 -0.6000
   79MOL   C10029896   4.989   0.111   6.085 -0.4906  0.5122  0.2566
   79MOL   C10129897   4.970   0.157   5.939 -0.2419  0.3642 -0.4474
   79MOL   C10229898   4.844   0.234   5.913  0.8769  0.1767 -0.3210
   79MOL   C10329899   4.813   0.271   5.765 -0.0392  0.4838  0.1006
   79MOL   H10429900   4.944   0.397   6.312  1.1399  0.9641 -0.1281
   79MOL   H10529901   4.856   0.266   6.244  2.6623  0.2341 -1.3324
   79MOL   H10629902   5.059   0.118   6.334 -0.2611  0.1467  1.5686
   79MOL   H10729903   4.894   0.088   6.133  1.0454 -1.9343  2.2188
   79MOL   H10829904   5.049   0.021   6.072 -2.1111 -0.6764  0.8478
   79MOL   H10929905   4.970   0.065   5.881  1.3024 -0.2569  0.4949
   79MOL   H11029906   5.061   0.204   5.901  1.1716 -2.4514 -0.7247
   79MOL   H11129907   4.873   0.327   5.962 -0.5834  1.4398 -1.8194
   79MOL   H11229908   4.760   0.184   5.961 -0.0336  0.8950 -1.1595
   79MOL   H11329909   4.892   0.333   5.723 -0.3067 -0.0449 -1.1831
   79MOL   H11429910   4.799   0.187   5.699 -1.0982 -0.5728  1.6339
   79MOL   H11529911   4.733   0.344   5.753  1.2036  1.7334 -0.7957
   79MOL   C11629912   5.174   0.301   6.342  0.3294  0.0183  0.5267
   79MOL   C11729913   5.308   0.236   6.336 -0.4196  0.3076  0.6433
   79MOL   O11829914   5.305   0.118   6.431  0.3354  0.0579  0.6703
   79MOL   C11929915   5.436   0.090   6.475 -1.0992  0.0996  0.2348
   79MOL   C12029916   5.436   0.020   6.609 -0.2278  0.1825 -0.0556
   79MOL   C12129917   5.369   7.690   6.609 -0.1227 -0.6183 -0.5804
   79MOL   C12229918   5.393   7.597   6.727  0.8648  0.0519  0.5923
   79MOL   H12329919   5.180   0.385   6.272 -1.7217 -0.2401  0.0063
   79MOL   H12429920   5.147   0.338   6.440 -1.0526 -0.6225  0.4013
   79MOL   H12529921   5.381   0.306   6.377 -0.8235 -0.1855  2.2460
   79MOL   H12629922   5.510   0.169   6.482 -1.6291  0.9092 -2.4693
   79MOL   H12729923   5.481   0.020   6.404 -1.1762  1.1775 -0.9059
   79MOL   H12829924   5.396   0.085   6.687 -0.1459  1.0241 -0.7077
   79MOL   H12929925   5.539   7.796   6.636 -0.7166 -1.0403  0.6560
   79MOL   H13029926   5.262   7.697   6.587 -0.1520 -0.5799 -0.4227
   79MOL   H13129927   5.411   7.639   6.522  0.3373  1.0139 -1.3422
   79MOL   H13229928   5.378   7.490   6.707 -0.0548  0.5690 -1.5805
   79MOL   H13329929   5.331   7.625   6.813  2.5926  1.4866  1.3985
   79MOL   H13429930   5.493   7.606   6.768  0.6307 -0.6051  1.3435
   79MOL   C13529931   5.351   0.187   6.187  0.1465 -0.4937 -0.3377
   79MOL   C13629932   5.369   0.308   6.088  0.4317 -0.1071 -0.0702
   79MOL   O13729933   5.465   0.394   6.137  0.1510  0.4030  0.0872
   79MOL   C13829934   5.434   0.532   6.162  0.6978 -0.0259 -0.5225
   79MOL   C13929935   5.548   0.604   6.222  0.6555 -0.1973  0.1558
   79MOL   C14029936   5.654   0.646   6.125  0.8033 -0.2737  0.3295
   79MOL   C14129937   5.772   0.712   6.198 -0.4698  0.4478  0.4194
   79MOL   H14229938   5.286   0.106   6.153  0.5597 -0.7820 -0.4374
   79MOL   H14329939   5.445   0.133   6.201 -0.8936 -2.0185  1.0769
   79MOL   H14429940   5.273   0.358   6.076  0.6608  0.6868  1.3536
   79MOL   H14529941   5.346   0.537   6.227  1.0380 -1.6949  0.0958
   79MOL   H14629942   5.422   0.576   6.063  0.6962 -0.8723 -0.9015
   79MOL   H14729943   5.583   0.544   6.306  0.3276  1.9067  1.8611
   79MOL   H14829944   5.512   0.698   6.264  1.4204 -0.4547  1.4099
   79MOL   H14929945   5.671   0.555   6.067  2.0738 -0.1026  0.4210
   79MOL   H15029946   5.604   0.716   6.058  0.1776 -1.3359 -0.3353
   79MOL   H15129947   5.786   0.681   6.301 -0.4851 -4.6816 -1.0012
   79MOL   H15229948   5.854   0.684   6.131 -0.9081  0.5003 -0.1418
   79MOL   H15329949   5.785   0.820   6.190 -1.0591  0.4165 -1.0916
   79MOL   C15429950   5.393   0.254   5.947 -0.1158 -0.0378 -0.2673
   79MOL   C15529951   5.407   0.357   5.827  0.4724 -0.4168 -0.3585
   79MOL   O15629952   5.354   0.291   5.713  0.1854  0.4658 -0.3415
   79MOL   C15729953   5.241   0.352   5.651  0.0794  0.4598  0.2611
   79MOL   C15829954   5.226   0.288   5.513 -0.5041  0.5167  0.7673
   79MOL   C15929955   5.340   0.319   5.413 -0.6119  0.1864  0.2098
   79MOL   C16029956   5.360   0.213   5.305 -0.5926 -0.5106  0.0361
   79MOL   H16129957   5.312   0.185   5.923  1.9756 -2.0921 -1.6852
   79MOL   H16229958   5.485   0.197   5.941 -0.8212 -1.7354  3.8046
   79MOL   H16329959   5.348   0.442   5.860  1.3368  0.5845 -1.3971
   79MOL   H16429960   5.150   0.342   5.711  0.8135 -0.2777  1.2561
   79MOL   H16529961   5.269   0.456   5.633  3.0020 -0.7111 -2.3765
   79MOL   H16629962   5.130   0.317   5.470 -1.7026 -0.5198  2.6937
   79MOL   H16729963   5.214   0.182   5.535 -0.7469 -0.2131 -2.5657
   79MOL   H16829964   5.317   0.412   5.361 -3.0325 -1.2242 -1.3449
   79MOL   H16929965   5.431   0.332   5.472  0.6087 -1.4245 -1.2860
   79MOL   H17029966   5.271   0.213   5.241  0.1209  0.9002 -0.9678
   79MOL   H17129967   5.453   0.236   5.253 -0.7307 -1.3544 -0.6017
   79MOL   H17229968   5.382   0.114   5.345 -0.9740  0.1620  1.9336
   79MOL   C17329969   5.556   0.402   5.812 -0.2406  0.7210 -0.2410
   79MOL   C17429970   5.561   0.538   5.739 -0.1196 -0.5912 -0.2820
   79MOL   O17529971   5.511   0.645   5.824 -0.0040 -0.0630 -0.4768
   79MOL   C17629972   5.393   0.710   5.780  0.6021  0.0079 -0.5797
   79MOL   C17729973   5.329   0.777   5.898  0.2793  0.7386 -0.0069
   79MOL   C17829974   5.216   0.874   5.857  1.0991  0.2667  0.3588
   79MOL   C17929975   5.148   0.949   5.975 -0.6336  0.3388  0.0513
   79MOL   H18029976   5.615   0.331   5.754 -0.4325  1.1705 -0.9920
   79MOL   H18129977   5.611   0.400   5.906 -0.3457 -0.7229 -0.1934
   79MOL   H18229978   5.514   0.535   5.640  0.7422 -0.2640 -0.7127
   79MOL   H18329979   5.313   0.651   5.736  1.1866  0.2873 -2.0449
   79MOL   H18429980   5.424   0.785   5.708  1.9024 -0.3449 -0.3966
   79MOL   H18529981   5.412   0.835   5.937 -0.4417 -0.3971  3.3875
   79MOL   H18629982   5.280   0.713   5.971  1.8514  0.1376  0.5391
   79MOL   H18729983   5.242   0.931   5.767  0.3712  0.0500  0.0072
   79MOL   H18829984   5.143   0.800   5.824 -1.0979  2.1064  1.0203
   79MOL   H18929985   5.049   0.984   5.947 -0.3823  0.2629 -0.9527
   79MOL   H19029986   5.158   0.903   6.073 -1.5279  1.2687  0.5771
   79MOL   H19129987   5.205   1.038   5.998 -1.0720 -0.0588  2.8341
   79MOL   C19229988   5.707   0.564   5.692  0.5636 -0.6340 -0.3930
   79MOL   C19329989   5.721   0.674   5.589 -0.7596 -0.2421 -0.0413
   79MOL   O19429990   5.848   0.737   5.617 -0.7063  0.0611 -0.2451
   79MOL   C19529991   5.825   0.858   5.684  0.0287  0.5705 -0.2295
   79MOL   C19629992   5.967   0.906   5.734  0.1078  0.2174 -0.1742
   79MOL   C19729993   6.039   0.811   5.826  0.0255  0.1063  0.7303
   79MOL   C19829994   6.150   0.886   5.898  0.2915  0.3078 -0.0276
   79MOL   H19929995   5.757   0.471   5.663  0.4161 -0.5088 -1.0552
   79MOL   H20029996   5.768   0.594   5.777 -0.8747  1.9010 -0.2092
   79MOL   H20129997   5.638   0.743   5.600 -0.2181  0.5573 -0.9426
   79MOL   H20229998   5.754   0.855   5.767  0.1905  0.9973 -0.0790
   79MOL   H20329999   5.781   0.923   5.608  2.5623  1.5038 -0.9437
   79MOL   H20430000   6.027   0.938   5.649 -0.6368  1.4485 -0.2477
   79MOL   H20530001   5.950   0.998   5.789  0.6088  1.6250 -2.3031
   79MOL   H20630002   6.075   0.728   5.765 -0.3534 -0.2825  1.0364
   79MOL   H20730003   5.954   0.774   5.884  1.8049 -2.5735  1.7228
   79MOL   H20830004   6.210   0.931   5.819  1.1795 -1.5569 -0.4337
   79MOL   H20930005   6.107   0.971   5.952 -0.8679  1.0886 -2.0940
   79MOL   H21030006   6.213   0.821   5.958  2.0848  0.9885 -1.1426
   79MOL   C21130007   5.734   0.619   5.451  0.1085  0.2499  0.3110
   79MOL   C21230008   5.692   0.708   5.331 -0.2556 -0.5412 -0.0530
   79MOL   O21330009   5.734   0.645   5.215 -0.2916  0.1508  0.2319
   79MOL   C21430010   5.871   0.633   5.191  0.2597 -0.1939  0.2192
   79MOL   C21530011   5.885   0.595   5.037 -0.1632 -0.1269 -0.3065
   79MOL   C21630012   5.827   0.699   4.931  0.2058 -0.2199  0.1681
   79MOL   C21730013   5.886   0.674   4.793  0.3913  0.2408 -0.3626
   79MOL   H21830014   5.682   0.523   5.444  0.8390 -0.0354 -1.3158
   79MOL   H21930015   5.840   0.592   5.445 -0.2777 -1.2128 -0.1489
   79MOL   H22030016   5.738   0.806   5.345  1.5078 -1.0699 -1.8862
   79MOL   H22130017   5.928   0.723   5.213  1.5501 -0.5800 -1.4587
   79MOL   H22230018   5.932   0.570   5.256 -0.0158 -0.5582  0.1310
   79MOL   H22330019   5.993   0.584   5.034 -0.2806 -1.3383 -0.4727
   79MOL   H22430020   5.850   0.493   5.022 -1.1980  0.0450  0.8287
   79MOL   H22530021   5.868   0.793   4.968  2.7307 -0.8003 -1.0466
   79MOL   H22630022   5.718   0.695   4.936  0.0411  0.9342 -2.1364
   79MOL   H22730023   5.882   0.770   4.742  0.4583  0.3905 -0.0865
   79MOL   H22830024   5.821   0.598   4.750 -0.3253  0.3095  0.5770
   79MOL   H22930025   5.989   0.640   4.806  0.2572  1.0775  3.8383
   79MOL   C23030026   5.537   0.719   5.319  0.2115  0.2396 -0.4911
   79MOL   C23130027   5.492   0.768   5.180  0.1195 -0.4718  0.1644
   79MOL   O23230028   5.347   0.753   5.164 -0.3294 -0.2740  0.4386
   79MOL   C23330029   5.288   0.626   5.177 -0.4382 -0.4340  0.1790
   79MOL   C23430030   5.159   0.627   5.093 -0.0406 -0.3691 -1.1107
   79MOL   C23530031   5.064   0.515   5.129  0.3603 -0.1000 -0.4579
   79MOL   C23630032   5.006   0.530   5.266 -0.4831  0.2614  0.2842
   79MOL   H23730033   5.484   0.779   5.394 -0.7963  0.7948 -1.6265
   79MOL   H23830034   5.501   0.617   5.330  1.5850 -0.1583  0.5418
   79MOL   H23930035   5.536   0.708   5.100  1.5517  0.5410  0.1610
   79MOL   H24030036   5.350   0.538   5.157  1.1085  0.6258  0.3070
   79MOL   H24130037   5.269   0.609   5.283 -2.1402  0.6701  0.0679
   79MOL   H24230038   5.119   0.728   5.100 -1.4774 -1.0828  1.9893
   79MOL   H24330039   5.186   0.605   4.990 -0.4842 -0.5506 -1.1892
   79MOL   H24430040   5.108   0.415   5.129  0.8244  0.1053 -0.7898
   79MOL   H24530041   4.980   0.516   5.059 -0.2477 -0.0836  0.2605
   79MOL   H24630042   4.946   0.622   5.260  1.4143  1.5262  0.2898
   79MOL   H24730043   5.075   0.547   5.349 -0.7104 -0.7341  0.6868
   79MOL   H24830044   4.939   0.450   5.297  0.3055 -0.2145  0.7562
   79MOL   C24930045   5.529   0.914   5.165  0.6064  0.1378 -0.0510
   79MOL   C25030046   5.486   0.980   5.031 -0.2410  0.1103 -0.3497
   79MOL   O25130047   5.553   0.921   4.925 -0.2277 -0.1594  0.3322
   79MOL   C25230048   5.473   0.910   4.805 -0.2430  0.2568 -0.5889
   79MOL   C25330049   5.561   0.922   4.683  0.1400  0.4621  0.4293
   79MOL   C25430050   5.495   0.887   4.546  0.0115 -0.3017 -0.3519
   79MOL   C25530051   5.589   0.880   4.424  0.1727 -0.3268  0.2869
   79MOL   H25630052   5.638   0.925   5.166  0.4150  3.1050 -2.4308
   79MOL   H25730053   5.484   0.962   5.252  0.1166  1.5086 -1.0348
   79MOL   H25830054   5.379   0.958   5.028 -0.1712 -0.1713 -0.7919
   79MOL   H25930055   5.397   0.988   4.805  0.6724  1.1795 -2.4029
   79MOL   H26030056   5.419   0.815   4.818  1.0168 -0.4020 -0.1081
   79MOL   H26130057   5.602   1.023   4.684  0.2045  0.4483 -0.4095
   79MOL   H26230058   5.644   0.855   4.707 -0.7905 -0.6408  0.5838
   79MOL   H26330059   5.456   0.787   4.562  1.4715 -0.6211  1.4485
   79MOL   H26430060   5.405   0.947   4.531 -0.8987 -0.7582  2.8603
   79MOL   H26530061   5.547   0.867   4.325  3.3365  2.1963 -1.4697
   79MOL   H26630062   5.664   0.801   4.435 -0.6235 -1.0670  0.4936
   79MOL   H26730063   5.635   0.978   4.413  0.9547 -0.7376 -0.2236
   79MOL   C26830064   5.522   1.124   5.029  0.2384  0.0393  0.3529
   79MOL   C26930065   5.421   1.200   5.122 -0.4199  1.0748  0.5267
   79MOL   O27030066   5.466   1.335   5.140  0.0956  0.0760  0.0156
   79MOL   C27130067   5.532   1.371   5.258 -0.4489  0.0777  0.3082
   79MOL   C27230068   5.566   1.524   5.261 -0.0387 -0.1722  0.0429
   79MOL   C27330069   5.451   1.619   5.288 -0.8181 -0.0346 -0.1489
   79MOL   C27430070   5.406   1.619   5.434  0.5143  0.2859 -0.2403
   79MOL   H27530071   5.627   1.144   5.047  0.1251  1.9327 -0.9420
   79MOL   H27630072   5.504   1.166   4.930 -1.4465  0.2961  0.7594
   79MOL   H27730073   5.414   1.158   5.222  0.5069 -0.4308 -0.0068
   79MOL   H27830074   5.474   1.339   5.345  0.5841  1.2893  1.4769
   79MOL   H27930075   5.623   1.315   5.276 -0.8570 -0.8604 -0.5307
   79MOL   H28030076   5.625   1.541   5.352 -1.8142  1.2776  0.9436
   79MOL   H28130077   5.633   1.555   5.180 -2.3588  0.3370 -1.7166
   79MOL   H28230078   5.366   1.600   5.222 -1.3751 -4.3271  1.6571
   79MOL   H28330079   5.498   1.714   5.262 -0.5879 -0.2537 -0.5431
   79MOL   H28430080   5.340   1.702   5.459  0.2701 -0.5897  2.1158
   79MOL   H28530081   5.488   1.622   5.506 -0.1982 -1.1204  0.6683
   79MOL   H28630082   5.332   1.540   5.445  0.9565 -0.2950 -1.3310
   79MOL   C28730083   5.274   1.211   5.074 -0.4041  0.7125  0.1721
   79MOL   C28830084   5.170   1.272   5.173 -0.4979  0.8318 -0.1806
   79MOL   O28930085   5.089   1.166   5.225 -0.1277 -0.0079  0.0635
   79MOL   C29030086   5.132   1.094   5.330  0.6122  0.6752  0.1837
   79MOL   C29130087   5.028   0.986   5.369  0.0471  0.0239  0.3715
   79MOL   C29230088   5.062   0.889   5.490 -0.0526 -0.3619  0.0979
   79MOL   C29330089   5.169   0.786   5.460  0.5010 -0.0961 -0.5997
   79MOL   H29430090   5.231   1.120   5.031 -1.3642  1.7832 -1.1886
   79MOL   H29530091   5.284   1.285   4.995  1.2979 -1.5072 -1.7939
   79MOL   H29630092   5.224   1.319   5.256 -0.6921 -0.7245  0.8369
   79MOL   H29730093   5.229   1.054   5.302  0.4176  0.3355 -0.0106
   79MOL   H29830094   5.154   1.159   5.415 -0.5686 -0.0059  1.0402
   79MOL   H29930095   5.000   0.935   5.277  2.8621 -0.6073 -0.1814
   79MOL   H30030096   4.935   1.037   5.396  0.9241  0.4174  2.7144
   79MOL   H30130097   4.972   0.829   5.504 -2.3342  2.5577 -1.5749
   79MOL   H30230098   5.065   0.937   5.588  1.5383 -0.1518 -0.0367
   79MOL   H30330099   5.152   0.772   5.354  1.7677  1.1548 -0.9866
   79MOL   H30430100   5.276   0.801   5.476  0.4616  1.1530 -1.4034
   79MOL   H30530101   5.149   0.699   5.522 -0.7311  0.0867 -0.7265
   79MOL   C30630102   5.076   1.368   5.112 -0.7106  0.4028 -0.1654
   79MOL   C30730103   4.973   1.436   5.209 -0.1752  1.2757 -0.0964
   79MOL   O30830104   4.918   1.541   5.133  0.1339 -0.2573  0.4854
   79MOL   C30930105   4.788   1.514   5.077 -0.2855  0.4625  0.9715
   79MOL   C31030106   4.728   1.631   5.015 -0.7049 -0.6422  0.2971
   79MOL   C31130107   4.702   1.750   5.118  0.2017 -0.5644 -0.0863
   79MOL   C31230108   4.630   1.863   5.045  0.2144  0.5746  0.3965
   79MOL   H31330109   5.135   1.453   5.079 -2.0551  1.5386  0.2924
   79MOL   H31430110   5.025   1.321   5.028 -1.6370  1.0602  0.0246
   79MOL   H31530111   4.896   1.362   5.233  0.2281  1.2682  1.2333
   79MOL   H31630112   4.723   1.496   5.163  0.4066  2.6784  1.9964
   79MOL   H31730113   4.792   1.429   5.009 -0.5831  0.9949  0.2870
   79MOL   H31830114   4.629   1.611   4.976 -1.0866  1.0798  0.3196
   79MOL   H31930115   4.788   1.678   4.937 -1.4868  0.2814  0.2356
   79MOL   H32030116   4.640   1.715   5.201  1.0333 -0.9392  0.3856
   79MOL   H32130117   4.793   1.785   5.166 -0.1150  0.3107 -0.1171
   79MOL   H32230118   4.524   1.837   5.034  0.4367 -0.6139  1.0063
   79MOL   H32330119   4.675   1.878   4.947 -1.1307 -1.2626 -0.5375
   79MOL   H32430120   4.628   1.953   5.107 -0.1128  0.2516  0.8627
   79MOL   C32530121   5.030   1.500   5.339 -0.4990  0.3974 -0.4467
   79MOL   C32630122   4.937   1.581   5.438 -0.6352 -0.1195  0.1959
   79MOL   O32730123   4.859   1.500   5.519 -0.2255  0.1846  0.2978
   79MOL   C32830124   4.730   1.472   5.461 -0.6476  0.6322 -0.3805
   79MOL   C32930125   4.636   1.403   5.566 -0.3528 -0.0615  0.3571
   79MOL   C33030126   4.632   1.481   5.694 -0.4033  0.1264  0.2303
   79MOL   C33130127   4.541   1.414   5.792  0.0251 -0.7543  0.1343
   79MOL   H33230128   5.110   1.561   5.297  1.4209 -2.3575 -0.9091
   79MOL   H33330129   5.079   1.423   5.398 -0.8673 -0.5979 -1.4134
   79MOL   H33430130   4.882   1.658   5.383 -1.7865 -2.2470 -1.6914
   79MOL   H33530131   4.745   1.415   5.369 -1.1408  3.2929 -2.1616
   79MOL   H33630132   4.681   1.563   5.427  2.7714  1.8887 -2.1806
   79MOL   H33730133   4.537   1.403   5.520 -0.2746 -1.1951  0.1781
   79MOL   H33830134   4.673   1.302   5.581  0.3860  0.4401  1.9856
   79MOL   H33930135   4.589   1.580   5.680  0.2262  0.4104  0.2901
   79MOL   H34030136   4.731   1.485   5.740  0.5931 -2.4139 -1.5321
   79MOL   H34130137   4.560   1.307   5.802 -0.5511 -0.8978 -0.2286
   79MOL   H34230138   4.435   1.420   5.765 -0.3254 -0.4926  1.5399
   79MOL   H34330139   4.539   1.474   5.883 -0.5331  0.1614 -0.4751
   79MOL   C34430140   5.021   1.677   5.527 -0.2452 -0.5972 -0.1987
   79MOL   C34530141   4.954   1.805   5.580 -0.6493 -0.1689  0.0294
   79MOL   O34630142   4.917   1.890   5.472  0.1019  0.1858 -0.2027
   79MOL   C34730143   4.787   1.931   5.475 -0.3829  0.7026  0.9263
   79MOL   C34830144   4.769   2.031   5.365 -0.0246 -1.5403  0.4463
   79MOL   C34930145   4.846   2.163   5.375  0.1799  0.3937 -0.0542
   79MOL   C35030146   4.833   2.245   5.502 -0.8676  1.3461 -0.4204
   79MOL   H35130147   5.054   1.613   5.610 -1.7913 -0.7797  0.2978
   79MOL   H35230148   5.108   1.707   5.469 -0.0443  0.2544  0.5337
   79MOL   H35330149   4.868   1.764   5.634 -0.5902 -1.1048 -0.5798
   79MOL   H35430150   4.770   1.987   5.567 -0.1070  1.2622  0.6373
   79MOL   H35530151   4.721   1.847   5.456  1.8444 -1.3178  1.8731
   79MOL   H35630152   4.669   2.070   5.352  0.2447 -0.2550  2.0422
   79MOL   H35730153   4.805   1.986   5.272  0.0348  1.0038 -0.8063
   79MOL   H35830154   4.951   2.142   5.356 -0.0606 -1.3948  0.5343
   79MOL   H35930155   4.822   2.227   5.289 -1.0715 -0.6380 -0.4913
   79MOL   H36030156   4.887   2.340   5.497 -1.2583  1.4820 -2.0199
   79MOL   H36130157   4.891   2.187   5.574  0.4628  1.7282 -1.1670
   79MOL   H36230158   4.731   2.263   5.536 -0.5413  1.8376  0.3183
   79MOL   C36330159   5.041   1.899   5.671  0.4573  0.0113 -0.0967
   79MOL   C36430160   5.166   1.963   5.609 -0.4327  1.0207  0.0050
   79MOL   O36530161   5.231   2.031   5.719 -0.2653  0.4730  0.5456
   79MOL   C36630162   5.349   2.108   5.679 -0.8390 -0.0103  0.9264
   79MOL   C36730163   5.393   2.201   5.786  0.0979  0.1685 -0.4841
   79MOL   C36830164   5.275   2.291   5.845 -0.7143 -0.2488  0.6686
   79MOL   C36930165   5.318   2.327   5.996 -0.0044  0.4773 -0.3192
   79MOL   H37030166   5.068   1.847   5.763  0.6931 -1.1764 -0.8248
   79MOL   H37130167   4.986   1.987   5.704 -0.5838 -0.7754  0.3016
   79MOL   H37230168   5.139   2.030   5.527 -0.3692  0.6076 -0.3521
   79MOL   H37330169   5.329   2.162   5.586 -1.2652 -0.6757  0.6261
   79MOL   H37430170   5.432   2.041   5.655 -0.9487 -0.1690  0.9950
   79MOL   H37530171   5.482   2.256   5.759  0.3624  0.5367  1.0790
   79MOL   H37630172   5.426   2.131   5.863  2.6902  0.9350 -0.8574
   79MOL   H37730173   5.174   2.250   5.842 -1.3670  1.4384 -1.4370
   79MOL   H37830174   5.277   2.384   5.788  2.2616 -0.0920  0.9915
   79MOL   H37930175   5.393   2.406   6.003  0.4921  0.0947 -1.2942
   79MOL   H38030176   5.237   2.363   6.060 -0.3212 -0.2520 -0.3101
   79MOL   H38130177   5.355   2.240   6.051 -1.8568 -1.0355 -1.4167
   79MOL   H38230178   5.241   1.893   5.573  1.5622  0.9133  4.0860
   80MOL     C130179   5.449   6.632   7.524  0.2428 -0.2134  0.8240
   80MOL     C230180   5.327   6.592   7.446  0.1843  0.2174  0.0522
   80MOL     O330181   5.212   6.625   7.525  0.2711 -0.0422 -0.3389
   80MOL     C430182   5.185   6.531   7.629  0.6540  0.0747 -0.6306
   80MOL     C530183   5.065   6.582   7.714 -0.0656 -0.1839  0.8848
   80MOL     C630184   5.022   6.484   0.020 -0.6100 -0.4114 -0.2501
   80MOL     C730185   4.944   6.548   0.133  0.6812  0.2421 -0.4129
   80MOL     H830186   5.534   6.611   7.460  0.7915 -0.9514  1.7733
   80MOL     H930187   5.447   6.739   7.543 -0.6091  0.4374 -2.5979
   80MOL    H1030188   5.341   6.488   7.415  1.0779  0.4829 -0.4502
   80MOL    H1130189   5.172   6.433   7.583  1.2829 -0.8197  1.0268
   80MOL    H1230190   5.267   6.519   7.700  0.7675  1.3274 -0.5366
   80MOL    H1330191   4.984   6.607   7.647  0.5571 -0.2912  0.0788
   80MOL    H1430192   5.095   6.675   7.762 -2.3850  1.2478 -0.4279
   80MOL    H1530193   5.116   6.442   0.057 -0.7477  0.4025  1.0505
   80MOL    H1630194   4.965   6.410   7.765  1.2012 -3.1220  1.3426
   80MOL    H1730195   5.004   6.626   0.179  2.0839 -1.1851  0.2561
   80MOL    H1830196   4.916   6.472   0.207 -0.1920  0.6565 -0.3172
   80MOL    H1930197   4.860   6.600   0.088 -0.0942 -1.1015 -0.5369
   80MOL    H2030198   5.463   6.589   7.624  0.4276  0.7066  1.2031
   80MOL    C2130199   5.306   6.678   7.321  0.2080 -0.3708 -0.4267
   80MOL    C2230200   5.202   6.621   7.220  0.2794  0.5048  0.2780
   80MOL    O2330201   5.167   6.725   7.127  0.0275 -0.0886 -0.0523
   80MOL    C2430202   5.084   6.829   7.185 -0.0238  0.4781 -0.5160
   80MOL    C2530203   5.095   6.964   7.104 -0.6104 -0.0629  0.5403
   80MOL    C2630204   5.229   7.024   7.111  0.9162 -0.3558 -0.5012
   80MOL    C2730205   5.229   7.167   7.053  0.7823 -0.3418  0.4790
   80MOL    H2830206   5.399   6.686   7.264  1.0965 -1.4132  0.8691
   80MOL    H2930207   5.287   6.782   7.348 -2.9209 -0.5781 -1.6406
   80MOL    H3030208   5.116   6.589   7.279  0.3796  2.1229  1.3562
   80MOL    H3130209   5.110   6.853   7.288 -1.5411 -1.2283  0.2807
   80MOL    H3230210   4.977   6.809   7.175 -0.2493  1.0115  0.7500
   80MOL    H3330211   5.076   6.957   6.997 -1.3142 -0.3528  0.6795
   80MOL    H3430212   5.005   7.017   7.134 -1.2609 -2.1127  2.3501
   80MOL    H3530213   5.262   7.037   7.214 -1.6473 -1.7548  0.5379
   80MOL    H3630214   5.302   6.965   7.056  0.8640  1.5768 -2.7230
   80MOL    H3730215   5.321   7.209   7.014  0.1706  1.6499  1.1093
   80MOL    H3830216   5.172   7.157   6.960 -2.0246  2.3838  1.7885
   80MOL    H3930217   5.181   7.236   7.123 -2.2752 -1.2572 -0.6217
   80MOL    C4030218   5.254   6.498   7.138  0.1182  0.6983 -0.3982
   80MOL    C4130219   5.154   6.392   7.100  0.3726  0.6995 -0.5663
   80MOL    O4230220   5.234   6.300   7.027  0.2158  0.4350  0.1117
   80MOL    C4330221   5.267   6.183   7.093 -0.1529 -0.3573 -0.0184
   80MOL    C4430222   5.318   6.083   6.986 -0.0556 -0.1969  0.5319
   80MOL    C4530223   5.308   5.940   7.034  0.7771  0.2606 -0.6832
   80MOL    C4630224   5.371   5.846   6.928  0.7348 -0.7748 -0.2460
   80MOL    H4730225   5.339   6.455   7.190 -0.1332  1.1679  0.4048
   80MOL    H4830226   5.292   6.545   7.047  0.2304  0.2541 -0.5799
   80MOL    H4930227   5.119   6.352   7.195 -0.2269 -1.0717 -1.5064
   80MOL    H5030228   5.188   6.132   7.149 -0.9010 -1.8446 -2.3463
   80MOL    H5130229   5.350   6.212   7.158 -1.4590 -2.0537  2.4826
   80MOL    H5230230   5.422   6.109   6.963 -0.2466  0.7883  0.7745
   80MOL    H5330231   5.264   6.105   6.894  1.8291 -1.0709 -0.8249
   80MOL    H5430232   5.201   5.921   7.043  0.7773  0.9070  0.7451
   80MOL    H5530233   5.354   5.936   7.133  1.4845  0.4912 -0.9949
   80MOL    H5630234   5.465   5.873   6.880  0.1961  2.1739  0.2598
   80MOL    H5730235   5.389   5.749   6.975 -1.3759 -0.2021  1.8318
   80MOL    H5830236   5.311   5.819   6.842 -1.6977  1.3582  0.7223
   80MOL    C5930237   5.035   6.441   7.019  0.5985  0.0781  0.1560
   80MOL    C6030238   4.944   6.330   6.976 -0.3314  0.0120  0.4556
   80MOL    O6130239   4.884   6.287   7.088 -0.1070  0.2209 -0.2289
   80MOL    C6230240   4.840   6.151   7.087  0.0408 -0.0080  0.2068
   80MOL    C6330241   4.782   6.117   7.223  0.7705  0.2082  0.3062
   80MOL    C6430242   4.893   6.114   7.328 -1.2476  0.2102 -0.4457
   80MOL    C6530243   4.863   6.016   7.444 -0.3137  0.5304  0.1024
   80MOL    H6630244   4.965   6.502   7.077 -0.5084 -2.1754  1.2562
   80MOL    H6730245   5.070   6.500   6.934  0.2975 -1.0118 -0.7353
   80MOL    H6830246   5.006   6.248   6.941 -0.3797 -0.1427  0.7297
   80MOL    H6930247   4.931   6.093   7.069  0.4230  1.7908 -4.2785
   80MOL    H7030248   4.787   6.123   6.996  0.1181 -3.0265  1.0326
   80MOL    H7130249   4.704   6.184   7.259  1.0215  0.3988  0.4931
   80MOL    H7230250   4.738   6.017   7.234  2.5309 -0.7509 -1.0405
   80MOL    H7330251   4.985   6.075   7.283  0.1998  2.2281  0.6661
   80MOL    H7430252   4.922   6.208   7.376  0.6566 -0.8728  0.5574
   80MOL    H7530253   4.826   5.918   7.416 -3.3547  1.6973 -0.1683
   80MOL    H7630254   4.951   5.994   7.503 -0.8827 -0.8123  0.4629
   80MOL    H7730255   4.788   6.053   7.514 -1.3223 -0.8786 -0.2021
   80MOL    C7830256   4.838   6.374   6.869 -0.5637  0.2701 -0.4209
   80MOL    C7930257   4.890   6.397   6.723 -0.0633 -0.8933 -0.6142
   80MOL    O8030258   4.803   6.485   6.660  0.0900  0.5262  0.5593
   80MOL    C8130259   4.839   6.620   6.667  0.1157 -0.5909 -0.4532
   80MOL    C8230260   4.848   6.681   6.524  0.0347 -0.1697  0.4654
   80MOL    C8330261   4.884   6.835   6.535 -0.1429 -0.4858  0.6323
   80MOL    C8430262   4.880   6.895   6.398 -0.2154 -0.0513  0.1615
   80MOL    H8530263   4.783   6.463   6.895  2.2203  1.4551  1.7097
   80MOL    H8630264   4.761   6.297   6.859  0.6576 -1.4010  2.3733
   80MOL    H8730265   4.995   6.426   6.732 -0.6353  1.3912 -1.0839
   80MOL    H8830266   4.927   6.655   6.720  0.0785 -0.9886 -0.1325
   80MOL    H8930267   4.759   6.673   6.718  1.7616  0.7218  0.8372
   80MOL    H9030268   4.929   6.631   6.471 -1.1977 -2.6198  0.7978
   80MOL    H9130269   4.759   6.656   6.467  0.1554  0.6605 -0.0945
   80MOL    H9230270   4.981   6.848   6.583 -0.4932 -2.2282  1.8937
   80MOL    H9330271   4.811   6.886   6.598 -0.9493  2.0951 -2.3138
   80MOL    H9430272   4.939   6.846   6.321  0.9465  2.7410 -0.7766
   80MOL    H9530273   4.779   6.878   6.360  0.3691 -2.9114 -0.2434
   80MOL    H9630274   4.896   7.002   6.406  0.9739 -0.0894 -1.4912
   80MOL    C9730275   4.898   6.273   6.633  0.1020 -0.0796 -0.2774
   80MOL    C9830276   4.988   6.284   6.509 -0.4427 -0.0460  0.3901
   80MOL    O9930277   5.115   6.291   6.569 -0.3414 -0.6374  0.5197
   80MOL   C10030278   5.216   6.350   6.487  0.7245 -0.0953  0.2952
   80MOL   C10130279   5.333   6.384   6.582 -0.5081 -0.9434 -0.4167
   80MOL   C10230280   5.401   6.257   6.625  0.5384 -0.5142 -0.0404
   80MOL   C10330281   5.501   6.269   6.740 -0.1327  0.0582  0.1935
   80MOL   H10430282   4.798   6.237   6.611 -0.3766  1.6286 -0.9888
   80MOL   H10530283   4.931   6.192   6.699 -1.9615 -1.4515 -0.8794
   80MOL   H10630284   4.974   6.379   6.457 -1.5717 -0.6545 -0.4354
   80MOL   H10730285   5.184   6.438   6.430 -2.1565  0.3942  2.5490
   80MOL   H10830286   5.248   6.284   6.406 -0.8133 -1.8155  1.0543
   80MOL   H10930287   5.290   6.436   6.668  1.2730 -1.6319  0.9247
   80MOL   H11030288   5.397   6.454   6.529 -2.2668  0.2196 -1.0590
   80MOL   H11130289   5.448   6.221   6.533 -0.4290 -1.1502 -0.2919
   80MOL   H11230290   5.326   6.187   6.663 -0.3016 -0.2833 -1.2552
   80MOL   H11330291   5.448   6.294   6.831  0.9018  0.5689  0.6659
   80MOL   H11430292   5.541   6.170   6.763 -2.0409 -1.1813 -1.6976
   80MOL   H11530293   5.586   6.336   6.725 -0.1582  0.6834  2.6815
   80MOL   C11630294   4.972   6.171   6.411  0.4713  0.7798 -0.9610
   80MOL   C11730295   4.830   6.142   6.356 -0.0286 -0.2404  0.4029
   80MOL   O11830296   4.778   6.259   6.297 -0.3484  0.3756  0.4180
   80MOL   C11930297   4.667   6.324   6.357 -0.5669 -0.2504  0.1459
   80MOL   C12030298   4.646   6.460   6.296 -0.2408 -0.9336  0.7973
   80MOL   C12130299   4.525   6.534   6.351  0.0134 -0.0958  0.5436
   80MOL   C12230300   4.525   6.675   6.297  0.3069 -0.3446 -0.1263
   80MOL   H12330301   5.038   6.182   6.325  1.2161  0.4654 -0.4421
   80MOL   H12430302   5.010   6.086   6.468 -0.5164  0.5674 -0.6138
   80MOL   H12530303   4.764   6.108   6.435 -1.8055  0.1803 -0.8568
   80MOL   H12630304   4.661   6.323   6.466  0.1018  2.2081  0.2324
   80MOL   H12730305   4.579   6.260   6.344  0.5057 -1.8548  0.5885
   80MOL   H12830306   4.629   6.449   6.189 -0.9345 -2.1673  1.0209
   80MOL   H12930307   4.726   6.531   6.318 -0.9608  0.4756 -0.9562
   80MOL   H13030308   4.432   6.481   6.335 -0.5458  1.0317 -0.0177
   80MOL   H13130309   4.530   6.537   6.460 -1.1501  1.2629  0.5755
   80MOL   H13230310   4.466   6.736   6.366  1.3838  2.3724 -1.5362
   80MOL   H13330311   4.490   6.659   6.195 -1.7874 -2.3560  0.8520
   80MOL   H13430312   4.623   6.723   6.294  0.5118 -0.8626 -2.4673
   80MOL   C13530313   4.827   6.035   6.242  0.2844 -0.0400  0.1978
   80MOL   C13630314   4.872   5.887   6.275  0.3766 -0.4111  0.6744
   80MOL   O13730315   4.788   5.826   6.371  0.6769  0.1209  0.2811
   80MOL   C13830316   4.652   5.794   6.326 -0.5879 -0.2024 -0.1809
   80MOL   C13930317   4.567   5.788   6.457  0.1043  0.7085  0.5966
   80MOL   C14030318   4.572   5.909   6.545  0.1276  0.1076  0.2926
   80MOL   C14130319   4.493   6.029   6.504  0.5880  0.5443 -0.2311
   80MOL   H14230320   4.892   6.073   6.163  0.0788 -1.3324 -0.6244
   80MOL   H14330321   4.731   6.040   6.189  0.8420 -1.6811 -1.0532
   80MOL   H14430322   4.961   5.891   6.339 -1.0202 -3.6604  2.9356
   80MOL   H14530323   4.654   5.699   6.273 -0.7579 -1.1472  1.4857
   80MOL   H14630324   4.606   5.869   6.260  1.7032  0.6331 -0.8603
   80MOL   H14730325   4.608   5.703   6.512 -0.1766 -0.3733 -0.8275
   80MOL   H14830326   4.462   5.760   6.448 -0.4370  2.3893  1.5422
   80MOL   H14930327   4.540   5.886   6.647  1.8921  0.2276  0.8886
   80MOL   H15030328   4.675   5.942   6.542  0.4154 -0.9220 -1.8005
   80MOL   H15130329   4.392   6.035   6.546  0.5615  0.2834 -0.2616
   80MOL   H15230330   4.546   6.116   6.543 -1.1314  0.4369  2.4766
   80MOL   H15330331   4.489   6.037   6.395  1.5336  0.2330 -0.2928
   80MOL   C15430332   4.905   5.798   6.155  0.2757 -0.7068 -0.5554
   80MOL   C15530333   5.005   5.860   6.053 -0.1084 -0.4700 -0.2898
   80MOL   O15630334   5.022   5.763   5.952 -0.4153 -0.3937 -0.1204
   80MOL   C15730335   4.924   5.771   5.849  0.2306 -0.4898 -0.2420
   80MOL   C15830336   4.920   5.639   5.769  0.0562 -0.1818 -0.6447
   80MOL   C15930337   4.801   5.627   5.673 -0.5195 -0.2644 -0.2251
   80MOL   C16030338   4.800   5.503   5.581  0.1513  0.1135  0.3348
   80MOL   H16130339   4.806   5.776   6.116  0.6765 -1.1132 -1.3426
   80MOL   H16230340   4.950   5.702   6.178  2.4699  0.1732 -1.0603
   80MOL   H16330341   4.973   5.951   6.003  0.8058  0.3463  0.6179
   80MOL   H16430342   4.821   5.782   5.885 -0.1894  0.8478 -1.7631
   80MOL   H16530343   4.947   5.856   5.784  2.9795 -1.3430 -0.4241
   80MOL   H16630344   4.911   5.552   5.834 -2.0192  0.0330 -0.6157
   80MOL   H16730345   5.017   5.633   5.719  0.7178  2.0413  0.3181
   80MOL   H16830346   4.710   5.626   5.732 -1.1295 -2.7706 -1.1528
   80MOL   H16930347   4.800   5.714   5.607  2.0712 -1.5240 -2.0328
   80MOL   H17030348   4.701   5.489   5.538  0.0157 -2.2385  1.3700
   80MOL   H17130349   4.876   5.512   5.503 -2.6285  0.0575 -2.5060
   80MOL   H17230350   4.831   5.417   5.640  3.2384  0.8675 -0.0691
   80MOL   C17330351   5.148   5.885   6.107 -0.0121  0.1980 -0.4515
   80MOL   C17430352   5.234   5.968   6.005  0.4276 -0.2950 -0.2955
   80MOL   O17530353   5.170   6.095   6.018 -0.0270 -0.0106  0.1567
   80MOL   C17630354   5.181   6.184   5.901 -0.0024 -0.1435  0.5099
   80MOL   C17730355   5.084   6.313   5.924 -0.2119  0.6984 -0.2352
   80MOL   C17830356   4.936   6.291   5.935 -0.3021  0.0512 -0.2963
   80MOL   C17930357   4.839   6.375   5.853  0.0389  0.2771 -0.1971
   80MOL   H18030358   5.198   5.794   6.142 -0.3484 -0.3287 -1.3143
   80MOL   H18130359   5.139   5.935   6.203 -2.1452  1.5020 -1.2927
   80MOL   H18230360   5.214   5.923   5.908  1.8904  0.0421 -0.7645
   80MOL   H18330361   5.166   6.147   5.799 -1.2769  3.0393 -0.4956
   80MOL   H18430362   5.286   6.212   5.909 -0.6848  2.9636 -1.0129
   80MOL   H18530363   5.107   6.371   5.835 -1.6000 -0.6738 -1.5228
   80MOL   H18630364   5.096   6.369   6.017  1.9288 -2.7801  1.7471
   80MOL   H18730365   4.920   6.188   5.905  1.0325 -0.3994  0.4765
   80MOL   H18830366   4.907   6.284   6.040  1.1321  0.3057  0.1338
   80MOL   H18930367   4.762   6.311   5.810 -1.3051  0.0099  2.5087
   80MOL   H19030368   4.806   6.459   5.915 -1.5954 -2.2909  2.5465
   80MOL   H19130369   4.889   6.407   5.761  2.5708  1.9909  1.7195
   80MOL   C19230370   5.385   5.977   6.051 -0.0168 -1.2204 -0.2910
   80MOL   C19330371   5.470   5.852   6.058  0.1188  0.4963  0.1767
   80MOL   O19430372   5.483   5.814   5.920  0.2329 -0.0473 -0.3196
   80MOL   C19530373   5.465   5.675   5.889  0.1841  0.6453  0.2455
   80MOL   C19630374   5.515   5.644   5.749  0.0640  0.0386 -1.1237
   80MOL   C19730375   5.471   5.731   5.637 -0.2829  0.9808 -0.4484
   80MOL   C19830376   5.324   5.701   5.596 -0.1897  0.6937 -0.1143
   80MOL   H19930377   5.382   6.016   6.153 -0.3496  0.7981 -1.0368
   80MOL   H20030378   5.448   6.053   6.004  2.1870 -2.0727  1.2482
   80MOL   H20130379   5.406   5.777   6.106  0.7439  0.2797  0.6786
   80MOL   H20230380   5.360   5.651   5.906  0.6940 -1.1634  1.0003
   80MOL   H20330381   5.520   5.615   5.962 -0.2413 -0.7003 -0.5360
   80MOL   H20430382   5.622   5.633   5.767  0.0267  0.7366 -0.4214
   80MOL   H20530383   5.492   5.543   5.715  1.2225 -0.0369 -1.7016
   80MOL   H20630384   5.538   5.710   5.554  0.0531 -1.6846  0.4662
   80MOL   H20730385   5.496   5.833   5.668 -0.5783  1.3628 -1.4639
   80MOL   H20830386   5.312   5.598   5.562  1.3630  0.4292  0.1225
   80MOL   H20930387   5.255   5.719   5.678  2.4932  1.3424  2.0752
   80MOL   H21030388   5.302   5.769   5.513 -0.9456  2.2259  1.3099
   80MOL   C21130389   5.603   5.873   6.127 -0.1054 -0.6287  0.6078
   80MOL   C21230390   5.598   5.904   6.283 -0.0573  0.0017  0.8154
   80MOL   O21330391   5.505   5.814   6.345 -0.4366 -0.3969 -0.0072
   80MOL   C21430392   5.440   5.873   6.455  0.0629 -0.1262 -0.0115
   80MOL   C21530393   5.336   5.774   6.512 -0.4069 -0.4835  0.2177
   80MOL   C21630394   5.226   5.739   6.413  0.2480  0.0879 -0.7070
   80MOL   C21730395   5.150   5.604   6.440  0.1359  0.1432 -0.5858
   80MOL   H21830396   5.652   5.954   6.072 -1.4244 -0.4718 -0.3900
   80MOL   H21930397   5.661   5.783   6.109 -1.8503 -1.7457  0.3929
   80MOL   H22030398   5.565   6.008   6.280  1.4107  0.4914  1.1876
   80MOL   H22130399   5.511   5.892   6.535 -1.5591  1.0813  1.1785
   80MOL   H22230400   5.388   5.967   6.435  1.1373  0.5169  0.1582
   80MOL   H22330401   5.404   5.692   6.538 -0.7880 -1.5070 -1.8870
   80MOL   H22430402   5.296   5.811   6.606  0.6743  0.8730  0.1673
   80MOL   H22530403   5.262   5.725   6.311 -1.3749 -2.5654 -0.9824
   80MOL   H22630404   5.155   5.820   6.397 -0.6463 -1.0363 -2.5797
   80MOL   H22730405   5.222   5.522   6.432 -2.7533 -2.7290  1.3612
   80MOL   H22830406   5.061   5.585   6.379 -0.0224  1.3574 -0.7361
   80MOL   H22930407   5.123   5.584   6.543  1.5629  2.2494  0.2127
   80MOL   C23030408   5.741   5.875   6.351  0.3067  0.2607  0.2742
   80MOL   C23130409   5.837   5.994   6.328  1.0753 -0.1905  0.3091
   80MOL   O23230410   5.780   6.110   6.392  0.0613 -0.2330 -0.5177
   80MOL   C23330411   5.825   6.232   6.336  0.0030  0.4834 -0.9734
   80MOL   C23430412   5.731   6.345   6.390 -0.8377  1.2607  0.2427
   80MOL   C23530413   5.770   6.479   6.342 -1.0843  0.4752 -0.4155
   80MOL   C23630414   5.686   6.588   6.412 -0.0921  0.3734  0.2975
   80MOL   H23730415   5.781   5.780   6.317  2.9226  1.5712 -0.4548
   80MOL   H23830416   5.726   5.864   6.459 -0.7327  1.0994  0.2277
   80MOL   H23930417   5.822   6.006   6.220 -1.4378  0.0096  0.6364
   80MOL   H24030418   5.931   6.244   6.357 -0.4851  2.2246  0.6226
   80MOL   H24130419   5.817   6.229   6.227  1.2599  2.6278 -1.1534
   80MOL   H24230420   5.631   6.325   6.352 -0.9225  1.9433  0.1004
   80MOL   H24330421   5.723   6.347   6.499 -1.6492  1.1030  0.1896
   80MOL   H24430422   5.757   6.482   6.234  0.9550 -1.0256 -0.7217
   80MOL   H24530423   5.874   6.491   6.370 -1.0614  0.9090 -0.6832
   80MOL   H24630424   5.721   6.603   6.514 -0.7066  2.9314  0.1647
   80MOL   H24730425   5.579   6.568   6.410 -0.4121  1.9283  0.9004
   80MOL   H24830426   5.696   6.682   6.357 -2.5245 -0.3480 -1.4514
   80MOL   C24930427   5.980   5.964   6.370 -0.1231  0.9242  0.8239
   80MOL   C25030428   6.069   5.894   6.261  0.0584 -0.4394 -0.2921
   80MOL   O25130429   6.050   5.749   6.281 -0.1815 -0.3472  0.0948
   80MOL   C25230430   6.035   5.662   6.162 -0.3852  0.1602 -0.2844
   80MOL   C25330431   6.165   5.674   6.074 -0.0891  0.3031 -0.3354
   80MOL   C25430432   6.160   5.579   5.955 -0.2222 -0.4501 -0.2055
   80MOL   C25530433   6.283   5.581   5.851 -0.4599  0.1135  0.1521
   80MOL   H25630434   5.984   5.912   6.466 -0.1049  1.0150  0.8724
   80MOL   H25730435   6.024   6.059   6.400  2.3317  0.5920 -1.5615
   80MOL   H25830436   6.030   5.933   6.167 -1.7266  0.9005  0.9771
   80MOL   H25930437   5.935   5.674   6.121 -1.2873  0.2132  1.9098
   80MOL   H26030438   6.027   5.562   6.205  0.8371 -0.0825 -0.5895
   80MOL   H26130439   6.175   5.773   6.028  0.4104  0.2505 -0.3381
   80MOL   H26230440   6.257   5.654   6.128 -0.3207  0.1192 -0.0094
   80MOL   H26330441   6.133   5.485   6.003  0.4740 -0.0283  1.0457
   80MOL   H26430442   6.074   5.606   5.895 -0.6836 -2.3543 -0.4575
   80MOL   H26530443   6.283   5.673   5.793 -1.1758  1.7717  2.6973
   80MOL   H26630444   6.276   5.499   5.780  1.4466 -0.8389  1.0452
   80MOL   H26730445   6.375   5.562   5.905 -0.7256  0.0652  0.5938
   80MOL   C26830446   6.211   5.933   6.286 -0.1140  0.6222  0.3407
   80MOL   C26930447   6.248   6.083   6.244 -0.1059 -0.8195  0.3942
   80MOL   O27030448   6.345   6.126   6.336  0.1847 -0.5582  0.1538
   80MOL   C27130449   6.304   6.176   6.464  0.1220 -0.1144  0.0032
   80MOL   C27230450   6.439   6.209   6.539  0.3000  0.0980 -0.0398
   80MOL   C27330451   6.415   6.247   6.686  0.4642  0.1127  0.2339
   80MOL   C27430452   6.337   6.375   6.730  0.1357  0.5679  0.1529
   80MOL   H27530453   6.232   5.909   6.390 -2.3772 -1.4039  0.3609
   80MOL   H27630454   6.279   5.869   6.230 -0.5603 -0.3945  0.9530
   80MOL   H27730455   6.164   6.152   6.245  2.0555  2.0054 -2.5067
   80MOL   H27830456   6.237   6.259   6.443 -1.8709 -1.5318  0.5761
   80MOL   H27930457   6.259   6.101   6.529 -2.1185  1.8794  0.8176
   80MOL   H28030458   6.499   6.119   6.526  1.0645  0.6099 -0.0938
   80MOL   H28130459   6.493   6.296   6.501  1.8394  0.0190  1.8879
   80MOL   H28230460   6.512   6.242   6.736 -0.4740 -0.7410  2.0240
   80MOL   H28330461   6.365   6.158   6.725  1.2239 -0.9833 -1.2265
   80MOL   H28430462   6.255   6.392   6.660  0.0856 -0.1617  0.0328
   80MOL   H28530463   6.392   6.467   6.709  0.1579  0.3894 -0.5842
   80MOL   H28630464   6.298   6.371   6.832 -1.7680  2.2533 -0.4826
   80MOL   C28730465   6.315   6.107   6.102 -0.5863  0.1117 -0.5055
   80MOL   C28830466   6.217   6.080   5.980  0.2727  0.4662  0.8100
   80MOL   O28930467   6.302   6.099   5.862 -0.1306 -0.4284  0.3082
   80MOL   C29030468   6.255   6.038   5.745 -0.0851 -0.1910 -0.5244
   80MOL   C29130469   6.357   6.042   5.634  0.0105 -0.2432  0.2520
   80MOL   C29230470   6.397   6.182   5.587  0.4938  0.5128  0.9556
   80MOL   C29330471   6.494   6.178   5.470  0.1383 -0.1696 -0.1059
   80MOL   H29430472   6.398   6.037   6.093  1.0233  1.7399  1.2028
   80MOL   H29530473   6.358   6.207   6.100 -0.0810 -0.0730  0.6809
   80MOL   H29630474   6.182   5.977   5.992 -0.9145  0.6624 -0.9466
   80MOL   H29730475   6.219   5.937   5.760  0.3888  0.0944  3.1454
   80MOL   H29830476   6.170   6.097   5.710 -0.0537  1.6616  2.3191
   80MOL   H29930477   6.339   5.971   5.554 -2.0950  0.2392  0.2775
   80MOL   H30030478   6.448   5.999   5.676  0.3912  0.6477  0.3671
   80MOL   H30130479   6.448   6.224   5.673  0.1198 -1.6823  2.2888
   80MOL   H30230480   6.313   6.245   5.558  0.6609  0.3690  0.1210
   80MOL   H30330481   6.441   6.148   5.379  0.3357  2.0315 -0.9691
   80MOL   H30430482   6.531   6.276   5.442  0.0335  0.1313  0.8023
   80MOL   H30530483   6.579   6.112   5.487 -1.4380 -2.2582 -0.0882
   80MOL   C30630484   6.092   6.168   5.984 -0.8434 -0.2396 -0.2918
   80MOL   C30730485   6.092   6.327   5.978  0.7442  0.0383  0.3256
   80MOL   O30830486   6.151   6.368   6.099 -0.2147 -0.2193 -0.1227
   80MOL   C30930487   6.248   6.469   6.077 -0.0632 -0.2482 -0.4994
   80MOL   C31030488   6.304   6.505   6.214 -1.0400 -0.3743  0.7165
   80MOL   C31130489   6.209   6.574   6.314 -0.0053  0.7525  0.1909
   80MOL   C31230490   6.283   6.640   6.434  0.3944 -0.1323 -0.1222
   80MOL   H31330491   6.024   6.122   5.912  0.0351 -3.1649  0.7004
   80MOL   H31430492   6.027   6.141   6.068 -0.7411  1.0418  0.2085
   80MOL   H31530493   6.152   6.358   5.892 -3.2177  0.8477 -2.3013
   80MOL   H31630494   6.205   6.557   6.028 -2.7990 -0.2037  1.8732
   80MOL   H31730495   6.329   6.435   6.013  0.0034 -1.6287  0.3097
   80MOL   H31830496   6.400   6.556   6.207 -0.8897 -0.5821  1.1855
   80MOL   H31930497   6.333   6.411   6.260  1.1148 -0.3015 -0.4548
   80MOL   H32030498   6.145   6.643   6.258  0.8004  2.7471  1.6635
   80MOL   H32130499   6.142   6.498   6.354  1.9554 -1.2023 -0.1703
   80MOL   H32230500   6.328   6.734   6.402  0.3912  0.6429  2.0058
   80MOL   H32330501   6.362   6.567   6.451  1.6742  1.8742  3.2010
   80MOL   H32430502   6.215   6.663   6.516  0.6888 -1.3076  0.4610
   80MOL   C32530503   5.955   6.397   5.967 -0.3703  0.0863 -1.0360
   80MOL   C32630504   5.868   6.376   5.837  0.3917  0.8911  0.6770
   80MOL   O32730505   5.742   6.439   5.861  0.2639 -0.1473  0.0184
   80MOL   C32830506   5.649   6.358   5.931 -1.1831  0.1075  0.5436
   80MOL   C32930507   5.556   6.434   6.017  0.6816  0.3741  0.0371
   80MOL   C33030508   5.453   6.527   5.952  0.0580 -0.6574  1.3159
   80MOL   C33130509   5.338   6.574   6.038  0.3966  0.3005 -0.9297
   80MOL   H33230510   5.964   6.502   5.993  3.0230 -0.3388 -0.2514
   80MOL   H33330511   5.896   6.365   6.053  1.0980 -1.8067 -0.6863
   80MOL   H33430512   5.856   6.275   5.798  0.3045  0.4462  1.8429
   80MOL   H33530513   5.700   6.292   6.001 -0.6777 -0.2836 -0.1903
   80MOL   H33630514   5.598   6.291   5.862 -1.2568  0.4043  0.3120
   80MOL   H33730515   5.518   6.361   6.089 -0.7109  0.9342 -0.1039
   80MOL   H33830516   5.608   6.498   6.088  1.3073 -1.1034  0.9362
   80MOL   H33930517   5.415   6.485   5.859 -0.2699  2.5998 -0.0715
   80MOL   H34030518   5.505   6.615   5.914 -1.5795 -0.4259 -0.4392
   80MOL   H34130519   5.286   6.657   5.990 -0.8756  0.3763  0.5217
   80MOL   H34230520   5.370   6.623   6.130 -2.7481  2.0511 -0.7027
   80MOL   H34330521   5.267   6.494   6.061  0.7418  0.7655  2.0113
   80MOL   C34430522   5.921   6.451   5.717  0.1518  0.1045 -0.1245
   80MOL   C34530523   5.829   6.423   5.593 -0.1066  0.5643 -0.3761
   80MOL   O34630524   5.911   6.451   5.478 -0.1048  0.5070  0.1360
   80MOL   C34730525   5.965   6.334   5.421  0.2296  0.3888 -0.3296
   80MOL   C34830526   6.080   6.375   5.333 -0.0184  0.4477 -0.1874
   80MOL   C34930527   6.047   6.431   5.199  0.4336 -0.1631  0.4731
   80MOL   C35030528   6.169   6.458   5.110  0.2600 -0.1103 -0.1242
   80MOL   H35130529   5.925   6.559   5.733 -0.3538  0.0921  0.0912
   80MOL   H35230530   6.019   6.405   5.704 -0.7653 -1.6306 -1.1545
   80MOL   H35330531   5.799   6.318   5.594 -0.4955  0.6798  0.8361
   80MOL   H35430532   5.887   6.276   5.371  2.0835 -0.1638 -2.6791
   80MOL   H35530533   5.998   6.256   5.490  0.2875 -0.6066 -1.4571
   80MOL   H35630534   6.141   6.284   5.332  1.7944  1.5429  2.9780
   80MOL   H35730535   6.140   6.450   5.385 -1.0348 -0.1820  1.9487
   80MOL   H35830536   5.976   6.370   5.142 -1.7064  3.1011 -0.5036
   80MOL   H35930537   5.999   6.527   5.212 -0.0318 -0.4025  0.5176
   80MOL   H36030538   6.226   6.374   5.070 -0.3900 -0.9816  0.7570
   80MOL   H36130539   6.250   6.523   5.141  0.9962 -0.0626 -2.0611
   80MOL   H36230540   6.131   6.514   5.025 -1.3353 -2.2901 -0.8807
   80MOL   C36330541   5.703   6.517   5.582 -0.7092  0.0934 -0.2582
   80MOL   C36430542   5.622   6.479   5.460 -0.2949  0.1397 -0.8294
   80MOL   O36530543   5.512   6.566   5.442  0.4978 -0.0617 -0.8556
   80MOL   C36630544   5.456   6.528   5.320  0.4359 -0.0302  0.4758
   80MOL   C36730545   5.308   6.576   5.306 -0.3803 -0.2121  0.2733
   80MOL   C36830546   5.210   6.493   5.384 -1.0366  0.1460 -0.2451
   80MOL   C36930547   5.073   6.550   5.403  0.2351 -0.0010 -0.1314
   80MOL   H37030548   5.741   6.618   5.571 -1.3776  0.3000 -0.6690
   80MOL   H37130549   5.637   6.527   5.668  0.9451 -2.3889  1.3864
   80MOL   H37230550   5.604   6.372   5.470  0.4478 -0.0923 -1.8240
   80MOL   H37330551   5.445   6.420   5.312 -3.0340  0.2718  0.2894
   80MOL   H37430552   5.516   6.550   5.231 -0.1855  1.5370  0.4208
   80MOL   H37530553   5.277   6.568   5.202 -0.6222 -0.7290  0.3865
   80MOL   H37630554   5.294   6.681   5.333 -2.5879 -0.6903  1.1055
   80MOL   H37730555   5.247   6.472   5.485  0.4782  0.7112 -0.6754
   80MOL   H37830556   5.210   6.395   5.335 -1.5689 -0.2059  0.4518
   80MOL   H37930557   5.004   6.486   5.458  3.7747 -1.9133  2.3622
   80MOL   H38030558   5.085   6.642   5.461  0.8879 -1.0847  1.5034
   80MOL   H38130559   5.031   6.575   5.306 -1.1224  1.9450  0.9240
   80MOL   H38230560   5.687   6.487   5.373 -0.0568  1.6458 -0.5182
   81MOL     C130561   4.641   4.236   4.783 -0.5943  0.1290  0.6072
   81MOL     C230562   4.573   4.208   4.922 -0.2182 -0.3674  0.5550
   81MOL     O330563   4.630   4.085   4.963  0.3758  0.7254  0.1366
   81MOL     C430564   4.539   3.970   4.949  0.1239 -0.4703  0.2624
   81MOL     C530565   4.425   3.970   5.049  0.1110 -0.2503  0.0485
   81MOL     C630566   4.470   3.954   5.197  0.3161 -0.5640  0.2862
   81MOL     C730567   4.352   3.952   5.292  0.1439 -0.3397 -1.0502
   81MOL     H830568   4.750   4.231   4.780 -0.5693  0.3702  1.0154
   81MOL     H930569   4.613   4.157   4.714 -1.9750  0.8025  0.3738
   81MOL    H1030570   4.466   4.200   4.908 -0.3362  0.6339  0.8964
   81MOL    H1130571   4.505   3.973   4.846 -0.2578  2.9347  0.4038
   81MOL    H1230572   4.598   3.880   4.962  0.7616  0.0980  1.4174
   81MOL    H1330573   4.361   3.887   5.021 -1.8736  2.3058 -3.3706
   81MOL    H1430574   4.359   4.056   5.041  0.9475  0.5130  1.0976
   81MOL    H1530575   4.525   4.038   5.238 -0.8981 -0.4675  1.7489
   81MOL    H1630576   4.538   3.871   5.218  1.7417  0.4356 -0.2969
   81MOL    H1730577   4.291   4.041   5.279 -0.0098 -0.3966 -0.6938
   81MOL    H1830578   4.393   3.955   5.393 -0.0836  0.6410 -0.9849
   81MOL    H1930579   4.288   3.865   5.278 -1.2618  0.0880  2.3063
   81MOL    H2030580   4.609   4.326   4.731  1.5778  0.4699 -0.1951
   81MOL    C2130581   4.606   4.317   5.019 -0.5801  0.0694  0.7964
   81MOL    C2230582   4.549   4.453   4.989 -0.5209  1.0763  0.0733
   81MOL    O2330583   4.446   4.479   5.085  0.1991 -0.2891 -0.1819
   81MOL    C2430584   4.329   4.394   5.077  0.7423 -0.5092 -0.7034
   81MOL    C2530585   4.222   4.430   5.183  0.4692 -0.1700 -0.6356
   81MOL    C2630586   4.101   4.324   5.170  0.3901 -0.0629  0.1297
   81MOL    C2730587   4.009   4.357   5.293  0.1533 -0.2206  0.6305
   81MOL    H2830588   4.715   4.319   5.018 -0.5367 -2.0726 -0.8144
   81MOL    H2930589   4.588   4.292   5.124 -4.1372 -0.8816  0.0432
   81MOL    H3030590   4.495   4.472   4.896  0.4522 -0.2596 -0.7761
   81MOL    H3130591   4.359   4.289   5.087  2.9359 -0.1146 -2.5139
   81MOL    H3230592   4.292   4.398   4.975  0.0625 -0.5524 -0.4578
   81MOL    H3330593   4.268   4.423   5.282  1.4302  1.2696 -0.9713
   81MOL    H3430594   4.185   4.531   5.168  1.3781  0.2889  0.1561
   81MOL    H3530595   4.051   4.337   5.074  0.3415 -0.4133  0.1071
   81MOL    H3630596   4.130   4.220   5.173 -1.0975 -0.5215 -0.5988
   81MOL    H3730597   3.912   4.306   5.287  0.1151  0.0063 -1.2440
   81MOL    H3830598   4.064   4.337   5.384 -2.0794 -2.4058  1.5676
   81MOL    H3930599   3.995   4.464   5.302  1.5245  0.1558 -1.3460
   81MOL    C4030600   4.661   4.551   5.015 -0.1386  0.0741 -0.5443
   81MOL    C4130601   4.749   4.586   4.890  0.1389 -0.2252  0.2133
   81MOL    O4230602   4.855   4.664   4.947  0.1709 -0.8225  0.4477
   81MOL    C4330603   4.987   4.645   4.899 -0.4053  0.6232  0.2172
   81MOL    C4430604   5.082   4.744   4.955  0.2190 -0.7641 -0.9595
   81MOL    C4530605   5.225   4.700   4.924 -0.4516 -0.3059 -0.2467
   81MOL    C4630606   5.332   4.778   4.997  0.1751 -0.4213  0.1340
   81MOL    H4730607   4.726   4.518   5.096 -0.7918 -2.3760 -1.0032
   81MOL    H4830608   4.624   4.648   5.048  0.3387  0.1732 -0.2885
   81MOL    H4930609   4.800   4.495   4.858 -0.3572  0.4670 -2.6797
   81MOL    H5030610   4.990   4.638   4.790 -1.8155  3.8535 -0.0955
   81MOL    H5130611   5.009   4.543   4.931  0.2163  0.3403 -1.0605
   81MOL    H5230612   5.073   4.757   5.063  0.5624  1.5959 -1.1688
   81MOL    H5330613   5.054   4.838   4.908 -0.9988 -1.4962 -1.7135
   81MOL    H5430614   5.255   4.699   4.819  0.5048 -1.3494  0.0137
   81MOL    H5530615   5.229   4.593   4.949  1.0360 -0.2904 -0.3371
   81MOL    H5630616   5.437   4.763   4.968 -0.4074 -0.8096 -1.8872
   81MOL    H5730617   5.312   4.881   4.969 -4.3337 -1.0785  0.6292
   81MOL    H5830618   5.321   4.774   5.105 -3.4321 -0.3698 -0.1718
   81MOL    C5930619   4.680   4.659   4.779 -0.2993 -0.3101 -0.1642
   81MOL    C6030620   4.748   4.667   4.642 -0.0185  0.5657 -0.5971
   81MOL    O6130621   4.792   4.540   4.605  0.1283  0.2697 -0.3043
   81MOL    C6230622   4.903   4.550   4.522 -0.1261 -0.7264 -0.1521
   81MOL    C6330623   4.946   4.406   4.496  0.1611  0.1109 -0.3773
   81MOL    C6430624   5.008   4.332   4.625 -0.4677 -1.0780  0.8141
   81MOL    C6530625   5.033   4.181   4.604  0.3424 -0.7655 -0.9826
   81MOL    H6630626   4.580   4.621   4.759 -0.0918 -0.5026 -0.8568
   81MOL    H6730627   4.655   4.761   4.809  2.3612  0.1522  0.6215
   81MOL    H6830628   4.825   4.745   4.644  0.9233 -0.3100 -2.0182
   81MOL    H6930629   4.979   4.616   4.562  0.1111 -1.5275  0.7154
   81MOL    H7030630   4.876   4.593   4.425  0.0833 -0.6989 -0.1973
   81MOL    H7130631   4.856   4.353   4.466  0.3377 -0.2200 -0.3378
   81MOL    H7230632   5.006   4.399   4.405  0.5895 -3.4796  0.0747
   81MOL    H7330633   5.102   4.379   4.655 -0.2874 -0.4437 -0.6869
   81MOL    H7430634   4.940   4.353   4.707  0.4756  0.1310  1.3155
   81MOL    H7530635   4.936   4.132   4.595  0.8813 -1.6911 -1.8759
   81MOL    H7630636   5.087   4.153   4.514 -0.8112  1.5727 -2.4653
   81MOL    H7730637   5.078   4.137   4.693 -0.8910 -1.9283 -0.9126
   81MOL    C7830638   4.657   4.726   4.532 -0.1242 -0.1204 -0.2007
   81MOL    C7930639   4.587   4.855   4.559  1.0047 -0.1745  0.0637
   81MOL    O8030640   4.499   4.866   4.445 -0.1585 -0.6086  0.3097
   81MOL    C8130641   4.375   4.803   4.437 -0.3897  0.9028 -0.6206
   81MOL    C8230642   4.350   4.795   4.287  0.1043 -0.3176 -0.0230
   81MOL    C8330643   4.447   4.705   4.210  0.0340 -0.0186 -0.0772
   81MOL    C8430644   4.387   4.679   4.073  0.0576 -0.2213 -0.0375
   81MOL    H8530645   4.587   4.645   4.508  0.9256 -0.8144 -0.9428
   81MOL    H8630646   4.709   4.738   4.437 -0.5989  0.3366 -0.4076
   81MOL    H8730647   4.526   4.849   4.650  0.0639 -1.4622 -0.6317
   81MOL    H8830648   4.295   4.854   4.491  0.7798  0.9074  1.1557
   81MOL    H8930649   4.374   4.703   4.481  0.6357  1.2999  0.3355
   81MOL    H9030650   4.247   4.769   4.264 -0.4933  1.7172  0.2147
   81MOL    H9130651   4.350   4.894   4.243 -0.9478  0.9072  2.6101
   81MOL    H9230652   4.491   4.620   4.262 -0.0847 -1.2369 -1.9211
   81MOL    H9330653   4.537   4.764   4.194 -0.6106  0.7905 -0.7892
   81MOL    H9430654   4.464   4.628   4.015 -1.9531 -0.2877 -2.7065
   81MOL    H9530655   4.299   4.616   4.065  0.2549 -0.5501  0.3516
   81MOL    H9630656   4.379   4.776   4.023 -0.1132 -1.1106 -1.7736
   81MOL    C9730657   4.674   4.979   4.541 -0.1867 -0.3502 -0.1211
   81MOL    C9830658   4.608   5.121   4.540 -0.0310  0.4386 -0.2242
   81MOL    O9930659   4.555   5.127   4.671  0.0692 -0.1552 -0.1166
   81MOL   C10030660   4.426   5.186   4.680 -0.2603 -0.4026  0.1831
   81MOL   C10130661   4.365   5.145   4.811 -0.0673  0.4918 -0.3812
   81MOL   C10230662   4.322   5.000   4.820 -0.3831  0.3399  0.0758
   81MOL   C10330663   4.227   4.975   4.935  0.4967  0.6115 -0.6954
   81MOL   H10430664   4.737   4.968   4.453  0.0806  2.0802 -0.2612
   81MOL   H10530665   4.741   4.979   4.627  2.3548  1.0596 -2.0470
   81MOL   H10630666   4.527   5.126   4.468 -0.5460  0.4043  0.3463
   81MOL   H10730667   4.361   5.150   4.600 -0.4913 -1.7578  0.9510
   81MOL   H10830668   4.434   5.293   4.665 -1.9592 -0.3003 -0.0670
   81MOL   H10930669   4.272   5.199   4.823 -0.2796  0.1083 -0.3083
   81MOL   H11030670   4.429   5.179   4.893  0.1288 -0.5813 -0.0830
   81MOL   H11130671   4.413   4.944   4.839 -0.1708  0.9543  0.9105
   81MOL   H11230672   4.271   4.976   4.727 -1.0320 -1.2530  0.8239
   81MOL   H11330673   4.120   4.991   4.918  0.2444 -1.4530 -1.1546
   81MOL   H11430674   4.251   4.877   4.976  1.8408  1.5413  0.7669
   81MOL   H11530675   4.260   5.023   5.027 -1.0973 -1.3418  0.9450
   81MOL   C11630676   4.704   5.238   4.512  0.5354  0.2743 -0.3820
   81MOL   C11730677   4.763   5.232   4.368  0.3401  0.1194 -0.4435
   81MOL   O11830678   4.653   5.242   4.281  0.2310 -0.1521  0.1596
   81MOL   C11930679   4.666   5.152   4.177  0.0249 -0.7396  0.4711
   81MOL   C12030680   4.574   5.190   4.064 -0.5833 -0.2433  0.3806
   81MOL   C12130681   4.628   5.299   3.970 -0.5907 -0.8563 -0.2638
   81MOL   C12230682   4.534   5.339   3.859  0.4692  0.7769 -0.5114
   81MOL   H12330683   4.655   5.335   4.520  1.5218  0.6432  1.5429
   81MOL   H12430684   4.783   5.235   4.588 -1.4842 -0.9817  1.7453
   81MOL   H12530685   4.822   5.141   4.366 -0.6873 -0.6871  2.9060
   81MOL   H12630686   4.616   5.061   4.209 -0.5746  0.5099  3.2446
   81MOL   H12730687   4.769   5.130   4.148  0.4118  0.5882  0.7933
   81MOL   H12830688   4.477   5.219   4.103 -0.4291  0.9741 -0.1173
   81MOL   H12930689   4.563   5.099   4.004  3.7408 -0.5219 -0.1721
   81MOL   H13030690   4.646   5.391   4.027 -2.7573 -0.2526 -0.5112
   81MOL   H13130691   4.721   5.253   3.937 -0.1857  0.1806 -0.5881
   81MOL   H13230692   4.471   5.422   3.891 -0.7942 -0.6546  0.8053
   81MOL   H13330693   4.474   5.252   3.833  0.7064  0.3462  0.3568
   81MOL   H13430694   4.581   5.370   3.766 -1.1940 -0.1434 -1.6745
   81MOL   C13530695   4.856   5.359   4.342  0.0756  0.5850  1.0065
   81MOL   C13630696   5.006   5.335   4.364  0.1109  0.0191  0.1561
   81MOL   O13730697   5.058   5.292   4.243 -0.4111  0.5489  0.5132
   81MOL   C13830698   5.186   5.233   4.259 -0.4438  0.2737  0.1641
   81MOL   C13930699   5.227   5.178   4.123 -0.4910 -0.3003 -0.8499
   81MOL   C14030700   5.122   5.070   4.077 -0.5626  0.3518  0.2443
   81MOL   C14130701   5.147   5.005   3.945 -0.4004 -0.2346  0.1416
   81MOL   H14230702   4.820   5.428   4.419 -2.4195  0.5292 -0.0480
   81MOL   H14330703   4.830   5.394   4.243  1.1041 -2.9583 -0.6167
   81MOL   H14430704   5.026   5.258   4.439 -1.0094 -0.1280  0.3081
   81MOL   H14530705   5.182   5.148   4.328  0.7023  0.4470  0.4587
   81MOL   H14630706   5.267   5.298   4.292 -0.5939  0.4635  0.1552
   81MOL   H14730707   5.319   5.123   4.141  0.4442  0.4996 -3.0487
   81MOL   H14830708   5.251   5.254   4.049  0.7812  0.4973  0.3614
   81MOL   H14930709   5.099   5.005   4.161 -2.8530  1.3649  0.4464
   81MOL   H15030710   5.039   5.137   4.056 -0.4938 -0.2120 -1.9953
   81MOL   H15130711   5.166   5.072   3.861 -2.6454  0.1886 -0.0451
   81MOL   H15230712   5.231   4.936   3.951  0.8606  1.1043 -1.5885
   81MOL   H15330713   5.057   4.951   3.916 -1.4094  0.4420  1.9420
   81MOL   C15430714   5.081   5.467   4.413 -0.0682 -0.1653 -0.6101
   81MOL   C15530715   5.052   5.523   4.553  0.4098  0.1959 -0.7959
   81MOL   O15630716   5.134   5.639   4.580  0.2834 -0.6494 -0.1679
   81MOL   C15730717   5.079   5.762   4.546  0.6537  0.0799  0.2577
   81MOL   C15830718   5.172   5.868   4.618  0.3310 -0.1093  0.2395
   81MOL   C15930719   5.178   5.854   4.770  0.5757  0.2133  0.8255
   81MOL   C16030720   5.063   5.929   4.839 -1.0149 -0.7951  0.5419
   81MOL   H16130721   5.064   5.550   4.345 -0.0805  1.3650  1.2309
   81MOL   H16230722   5.187   5.440   4.413  0.2777  1.1451  0.2002
   81MOL   H16330723   4.945   5.547   4.558  0.3706 -0.1608  0.1666
   81MOL   H16430724   5.083   5.774   4.438  0.9108 -0.1374  0.2432
   81MOL   H16530725   4.973   5.780   4.568  0.1444 -0.4023 -1.7292
   81MOL   H16630726   5.164   5.971   4.585  1.6357 -0.6762 -1.9482
   81MOL   H16730727   5.271   5.839   4.582  0.5715 -1.0039  1.5747
   81MOL   H16830728   5.178   5.752   4.808 -0.3453 -0.4559 -0.8933
   81MOL   H16930729   5.268   5.903   4.807  1.2871  0.5897 -1.3256
   81MOL   H17030730   5.064   6.033   4.806 -0.0863 -0.5521  1.3079
   81MOL   H17130731   4.970   5.884   4.804 -1.8918  0.2917  1.4639
   81MOL   H17230732   5.058   5.909   4.946 -1.8119  0.4093  0.7307
   81MOL   C17330733   5.058   5.423   4.672 -0.1858 -0.6876  0.3440
   81MOL   C17430734   4.990   5.459   4.804 -0.2585  0.0759 -0.3208
   81MOL   O17530735   4.851   5.471   4.774 -0.4707 -0.0056  0.4494
   81MOL   C17630736   4.792   5.596   4.815  0.5679  0.1311  0.4949
   81MOL   C17730737   4.773   5.599   4.974  0.4299 -0.1424 -0.4589
   81MOL   C17830738   4.669   5.500   5.032  0.2302 -0.2872  0.2602
   81MOL   C17930739   4.642   5.512   5.187  0.8781  0.5437  0.0647
   81MOL   H18030740   5.163   5.417   4.698  0.5230  3.1001 -1.3444
   81MOL   H18130741   5.027   5.324   4.639  0.6225 -0.6768 -0.4613
   81MOL   H18230742   5.022   5.561   4.828 -1.4293 -0.3815  3.5276
   81MOL   H18330743   4.692   5.603   4.774  0.5761  0.1983  0.4862
   81MOL   H18430744   4.846   5.678   4.767  0.6207  1.0385  2.0622
   81MOL   H18530745   4.750   5.703   5.000  0.6344 -0.0514 -0.6382
   81MOL   H18630746   4.870   5.575   5.018  0.5695  2.0667  0.5080
   81MOL   H18730747   4.576   5.509   4.976  0.4954  0.6793 -0.0466
   81MOL   H18830748   4.705   5.400   5.007 -1.2909 -0.6247 -0.6478
   81MOL   H18930749   4.573   5.437   5.226  2.3210 -1.2637 -0.7820
   81MOL   H19030750   4.736   5.511   5.244 -0.0342  0.7261  1.5902
   81MOL   H19130751   4.588   5.605   5.198 -1.0607 -0.4121 -1.2204
   81MOL   C19230752   5.026   5.360   4.918  0.3481  0.3940 -0.2237
   81MOL   C19330753   5.159   5.386   5.001  0.0445  0.4857  0.0476
   81MOL   O19430754   5.147   5.488   5.092  0.1972  0.1252 -0.3746
   81MOL   C19530755   5.265   5.555   5.135 -0.2373  0.4943 -0.3697
   81MOL   C19630756   5.219   5.653   5.240  0.0310 -0.8659 -0.3892
   81MOL   C19730757   5.143   5.774   5.182  0.1164 -0.4450 -0.0972
   81MOL   C19830758   5.077   5.860   5.291 -0.2588  0.6264  0.0142
   81MOL   H19930759   5.011   5.261   4.875  2.9283 -0.0597 -0.1692
   81MOL   H20030760   4.954   5.372   4.998 -0.6386 -0.6865 -0.9333
   81MOL   H20130761   5.227   5.415   4.921  1.5279 -2.4630  0.1631
   81MOL   H20230762   5.321   5.601   5.053 -1.4510 -1.2125 -2.1862
   81MOL   H20330763   5.329   5.489   5.192 -1.4780  0.2901  0.8170
   81MOL   H20430764   5.150   5.598   5.303  0.7567 -0.7307  0.5284
   81MOL   H20530765   5.297   5.688   5.308 -2.3425  0.0002  1.9806
   81MOL   H20630766   5.064   5.735   5.118 -0.1092 -0.3373  0.1103
   81MOL   H20730767   5.209   5.833   5.119  0.2175 -1.6348 -1.1167
   81MOL   H20830768   5.013   5.804   5.359  1.0758  1.0897  1.7049
   81MOL   H20930769   5.142   5.920   5.355  0.0852  0.3583 -0.0841
   81MOL   H21030770   5.016   5.934   5.239  1.6798  2.1264 -0.2204
   81MOL   C21130771   5.221   5.257   5.078  0.2416 -0.0248 -0.2018
   81MOL   C21230772   5.116   5.200   5.177 -0.4810 -0.2165 -0.3372
   81MOL   O21330773   5.018   5.138   5.090 -0.8650  0.0559  0.0065
   81MOL   C21430774   4.880   5.138   5.143 -0.3347 -0.0643 -0.2024
   81MOL   C21530775   4.782   5.117   5.025 -0.4471  0.3948  0.5842
   81MOL   C21630776   4.656   5.042   5.075  0.2941  0.1307 -0.5356
   81MOL   C21730777   4.551   5.129   5.144  0.2360 -0.1805 -0.1094
   81MOL   H21830778   5.311   5.288   5.131  0.6574  2.3838 -2.2608
   81MOL   H21930779   5.259   5.177   5.015  1.6045  0.6222 -0.2235
   81MOL   H22030780   5.063   5.273   5.238  0.3417 -0.7250  1.0035
   81MOL   H22130781   4.867   5.064   5.222 -1.8373 -1.0941 -1.3956
   81MOL   H22230782   4.857   5.232   5.193 -2.3042  0.1205 -1.4004
   81MOL   H22330783   4.763   5.210   4.971 -0.6179  0.3627  0.5900
   81MOL   H22430784   4.837   5.049   4.960 -0.7077  0.3058  0.4542
   81MOL   H22530785   4.683   4.960   5.142  0.2964 -0.4504 -1.2440
   81MOL   H22630786   4.607   4.988   4.994 -0.4661  0.2210 -0.1432
   81MOL   H22730787   4.567   5.141   5.251 -0.5970  1.3062 -0.1293
   81MOL   H22830788   4.454   5.080   5.135  1.7749 -3.1187 -1.5265
   81MOL   H22930789   4.536   5.223   5.090  0.1924 -1.3432 -2.1828
   81MOL   C23030790   5.168   5.076   5.258  0.0056 -0.3363  0.0364
   81MOL   C23130791   5.287   5.101   5.360 -0.7184  0.5560  0.3561
   81MOL   O23230792   5.413   5.136   5.301 -0.1071  0.0651  0.1515
   81MOL   C23330793   5.494   5.035   5.251  0.3729 -0.3346 -0.2859
   81MOL   C23430794   5.627   5.101   5.191  0.6526  0.8620  0.3299
   81MOL   C23530795   5.614   5.180   5.060 -0.2620  0.6889 -0.3410
   81MOL   C23630796   5.563   5.102   4.931  0.2291 -0.2794  0.2922
   81MOL   H23730797   5.196   5.009   5.177 -0.1102  2.2421 -2.1993
   81MOL   H23830798   5.083   5.035   5.312 -0.2743  1.4850  0.9910
   81MOL   H23930799   5.302   5.009   5.415 -2.5711  0.4281  0.6949
   81MOL   H24030800   5.520   4.976   5.339  1.3349  1.1121  0.4104
   81MOL   H24130801   5.439   4.971   5.182  0.9895 -0.5193 -0.6086
   81MOL   H24230802   5.694   5.146   5.266 -0.6955  2.1594  0.7910
   81MOL   H24330803   5.691   5.016   5.171  0.4311  0.8914 -0.4994
   81MOL   H24430804   5.715   5.214   5.037 -0.3451  0.5514 -0.9113
   81MOL   H24530805   5.555   5.271   5.065 -2.2869 -0.6071  0.0601
   81MOL   H24630806   5.508   5.168   4.864 -0.1238 -1.8727 -0.9891
   81MOL   H24730807   5.484   5.031   4.954  0.1181 -0.5019 -0.7779
   81MOL   H24830808   5.638   5.037   4.885  1.6228  1.3296  0.1924
   81MOL   C24930809   5.236   5.206   5.464  0.6339 -0.1904 -0.2451
   81MOL   C25030810   5.313   5.206   5.597  0.1576  0.3936  0.2322
   81MOL   O25130811   5.242   5.294   5.687 -0.1000  0.0383 -0.1857
   81MOL   C25230812   5.171   5.225   5.789  0.1823 -0.0318 -0.0330
   81MOL   C25330813   5.161   5.315   5.913 -0.5044  0.5798  0.3052
   81MOL   C25430814   5.291   5.346   5.993  0.3848  0.5415  1.0782
   81MOL   C25530815   5.265   5.431   6.121 -0.0824  0.8228 -0.6249
   81MOL   H25630816   5.138   5.174   5.498  1.9249  0.2339  4.1826
   81MOL   H25730817   5.221   5.304   5.417 -1.3515  0.2541  1.2574
   81MOL   H25830818   5.301   5.105   5.636 -1.7341 -0.8566 -3.3504
   81MOL   H25930819   5.208   5.127   5.820 -0.6722 -1.0650 -2.1867
   81MOL   H26030820   5.071   5.205   5.752  1.1590 -3.5533 -0.9913
   81MOL   H26130821   5.124   5.414   5.889 -0.3554  0.7446  0.7602
   81MOL   H26230822   5.081   5.274   5.975 -1.2509  2.8252  0.8674
   81MOL   H26330823   5.359   5.265   6.019 -1.0536 -1.0266 -0.0163
   81MOL   H26430824   5.350   5.399   5.918  0.8657  0.5237  1.4369
   81MOL   H26530825   5.364   5.453   6.161 -1.3735  0.7127  2.7818
   81MOL   H26630826   5.204   5.377   6.193  0.8731  0.7463  0.1521
   81MOL   H26730827   5.215   5.524   6.098 -1.4753  0.3933  0.5810
   81MOL   C26830828   5.455   5.250   5.585 -0.2504 -0.0745  0.5893
   81MOL   C26930829   5.541   5.234   5.708  0.5345 -0.2527  0.4531
   81MOL   O27030830   5.558   5.094   5.725  0.1372  0.2080 -0.4619
   81MOL   C27130831   5.504   5.043   5.836 -0.1097  0.3796  0.8156
   81MOL   C27230832   5.597   4.946   5.907  0.6316  0.4359 -0.0764
   81MOL   C27330833   5.523   4.860   6.005 -0.1980 -0.5838  0.1832
   81MOL   C27430834   5.442   4.931   6.118 -0.1328 -0.3659 -0.8928
   81MOL   H27530835   5.505   5.207   5.498 -1.5619 -0.6866  0.1253
   81MOL   H27630836   5.449   5.357   5.564  0.6212 -0.0314  0.5608
   81MOL   H27730837   5.503   5.285   5.796  0.1758  0.7627 -0.2855
   81MOL   H27830838   5.472   5.115   5.912 -0.0741  0.4089  0.8019
   81MOL   H27930839   5.412   4.992   5.806  0.1254  0.3020  0.2314
   81MOL   H28030840   5.635   4.878   5.832  0.7325  2.9985 -2.4159
   81MOL   H28130841   5.682   4.995   5.953  1.2645 -1.8927  1.3350
   81MOL   H28230842   5.599   4.796   6.048  1.7686  1.9350  0.5801
   81MOL   H28330843   5.458   4.785   5.960 -1.7608  0.4375  0.6676
   81MOL   H28430844   5.413   4.852   6.187  0.0173 -1.8459 -2.4642
   81MOL   H28530845   5.349   4.977   6.086 -0.0859  0.0437 -0.4453
   81MOL   H28630846   5.494   5.004   6.180 -2.5487  0.0851  0.6422
   81MOL   C28730847   5.676   5.295   5.684  0.1173  0.0817 -0.0790
   81MOL   C28830848   5.773   5.301   5.802 -0.3279  0.0960 -0.3371
   81MOL   O28930849   5.694   5.379   5.895 -0.7505 -0.1582 -0.0168
   81MOL   C29030850   5.716   5.336   6.025 -0.7046  0.4858 -0.2591
   81MOL   C29130851   5.691   5.441   6.133 -0.3028 -0.2869 -0.1748
   81MOL   C29230852   5.686   5.376   6.271 -0.2121  0.0253 -0.1626
   81MOL   C29330853   5.626   5.479   6.378 -0.2428  0.1579 -0.5626
   81MOL   H29430854   5.666   5.400   5.657  2.3363  0.4629  0.5055
   81MOL   H29530855   5.720   5.247   5.596 -2.0627  0.1874 -1.2716
   81MOL   H29630856   5.801   5.200   5.832  1.1972  0.4737 -0.4343
   81MOL   H29730857   5.649   5.252   6.045 -0.4156 -0.2089 -2.1778
   81MOL   H29830858   5.820   5.305   6.036 -0.6075  0.4551 -1.2107
   81MOL   H29930859   5.590   5.480   6.116 -0.5569 -0.8658 -0.0061
   81MOL   H30030860   5.759   5.526   6.135 -1.8818  0.9912  0.3732
   81MOL   H30130861   5.788   5.363   6.309 -0.7177 -1.7379  0.6145
   81MOL   H30230862   5.631   5.282   6.273  0.7976 -0.5641  1.8486
   81MOL   H30330863   5.520   5.494   6.361 -0.4891  1.8915  2.3168
   81MOL   H30430864   5.633   5.442   6.480 -2.9771 -0.7267 -0.6649
   81MOL   H30530865   5.679   5.573   6.363 -2.2549  1.2584 -0.9391
   81MOL   C30630866   5.896   5.380   5.785  0.2659  0.4694  0.6571
   81MOL   C30730867   5.988   5.326   5.669  0.3620 -0.1012  0.7868
   81MOL   O30830868   5.919   5.345   5.540  0.1147  0.4346  0.2283
   81MOL   C30930869   5.931   5.469   5.478 -0.2780  0.6257  0.5704
   81MOL   C31030870   5.893   5.459   5.331  0.1663 -0.1833 -0.4982
   81MOL   C31130871   5.749   5.419   5.307 -0.1670  0.4085  0.6317
   81MOL   C31230872   5.639   5.518   5.347 -0.2056 -0.6638 -0.9723
   81MOL   H31330873   5.857   5.478   5.758 -3.9599 -1.4760 -0.8016
   81MOL   H31430874   5.949   5.385   5.880 -0.5682 -3.2255  1.4192
   81MOL   H31530875   6.081   5.383   5.662  1.9417 -2.7486 -0.4979
   81MOL   H31630876   6.037   5.490   5.489 -0.1522  0.5348 -0.4279
   81MOL   H31730877   5.872   5.535   5.543 -0.4724  1.9371 -0.8932
   81MOL   H31830878   5.958   5.392   5.274  1.8392  1.4526 -0.5633
   81MOL   H31930879   5.901   5.560   5.291 -0.3004  0.3208  0.6539
   81MOL   H32030880   5.734   5.397   5.201  0.8401 -1.4380  0.8615
   81MOL   H32130881   5.732   5.322   5.353  2.0061 -0.7023 -0.7837
   81MOL   H32230882   5.540   5.502   5.303 -0.2044 -3.4700 -0.0783
   81MOL   H32330883   5.677   5.619   5.333 -0.5997 -0.4244 -0.3449
   81MOL   H32430884   5.615   5.496   5.451  0.3892 -0.3988 -0.7787
   81MOL   C32530885   6.038   5.175   5.691  0.2734  0.0021  0.1466
   81MOL   C32630886   6.162   5.147   5.599  0.4837 -0.4286 -0.4078
   81MOL   O32730887   6.217   5.025   5.650 -0.5724  0.3338 -0.2303
   81MOL   C32830888   6.346   5.045   5.717 -0.2480 -0.3691 -0.4446
   81MOL   C32930889   6.415   4.910   5.726  0.0690 -0.4390 -0.2720
   81MOL   C33030890   6.546   4.928   5.805  0.2375 -0.1215 -0.2825
   81MOL   C33130891   6.521   4.938   5.957 -0.3153 -0.2965  0.0271
   81MOL   H33230892   5.955   5.107   5.670  0.9168 -1.1528  1.2161
   81MOL   H33330893   6.077   5.157   5.792  1.0495  1.9549  0.2271
   81MOL   H33430894   6.238   5.224   5.616 -0.5356  0.4254  0.3856
   81MOL   H33530895   6.330   5.075   5.820  0.9112 -3.4973  0.7070
   81MOL   H33630896   6.413   5.113   5.664  0.5739 -0.7546  0.0834
   81MOL   H33730897   6.353   4.829   5.762  0.1656  1.2433  3.8952
   81MOL   H33830898   6.445   4.895   5.622  2.7264 -0.3931  0.4537
   81MOL   H33930899   6.587   5.023   5.771  0.2547 -0.3284 -0.8472
   81MOL   H34030900   6.618   4.848   5.787  2.1358  1.5855 -0.4373
   81MOL   H34130901   6.608   4.989   5.999  0.3762 -2.1015  0.8707
   81MOL   H34230902   6.543   4.840   6.000  1.9915  0.3026  0.3341
   81MOL   H34330903   6.431   4.989   5.990  1.0944  0.5087  2.8634
   81MOL   C34430904   6.129   5.134   5.448 -0.0840  0.2261  0.1951
   81MOL   C34530905   6.258   5.137   5.366  1.2337  0.1294  0.2981
   81MOL   O34630906   6.286   5.273   5.354 -0.3931 -0.4670 -0.4787
   81MOL   C34730907   6.426   5.304   5.364 -0.2647  0.8375 -0.1469
   81MOL   C34830908   6.456   5.450   5.337 -0.2717  0.0191 -0.2740
   81MOL   C34930909   6.415   5.530   5.461  0.6257 -0.1793  0.5010
   81MOL   C35030910   6.444   5.674   5.449  0.3424 -0.3669  0.3775
   81MOL   H35130911   6.080   5.037   5.441 -0.0225  0.3159 -1.8510
   81MOL   H35230912   6.058   5.204   5.405  2.0883  2.1161 -0.4458
   81MOL   H35330913   6.328   5.072   5.418 -0.0953 -1.1499  0.5368
   81MOL   H35430914   6.472   5.238   5.291 -0.2119  0.3517  0.3275
   81MOL   H35530915   6.467   5.281   5.462  0.5105 -1.1377 -0.9190
   81MOL   H35630916   6.410   5.473   5.241 -1.0876 -1.9583 -0.3894
   81MOL   H35730917   6.562   5.467   5.318  0.0361 -1.4652  0.0332
   81MOL   H35830918   6.312   5.512   5.492  0.7012 -2.0275 -0.2032
   81MOL   H35930919   6.463   5.499   5.554  4.8264  0.4767 -1.3579
   81MOL   H36030920   6.394   5.717   5.535  0.0382 -0.7430  0.3894
   81MOL   H36130921   6.397   5.705   5.356 -0.1557  0.4552  0.8983
   81MOL   H36230922   6.551   5.696   5.452  0.3718 -0.6664  3.4805
   81MOL   C36330923   6.241   5.078   5.223  0.5360  0.5199 -1.1356
   81MOL   C36430924   6.171   5.159   5.117  0.7607 -0.6099 -0.2703
   81MOL   O36530925   6.133   5.086   4.998 -0.3125 -0.1359 -0.1769
   81MOL   C36630926   6.077   5.166   4.893  0.2304  0.2801  0.0955
   81MOL   C36730927   6.071   5.074   4.759 -0.2960 -0.3972 -0.0042
   81MOL   C36830928   6.009   5.154   4.646 -0.2382  0.7207 -0.1761
   81MOL   C36930929   5.855   5.181   4.677 -0.5009 -0.2869 -0.0894
   81MOL   H37030930   6.186   4.985   5.232  0.4227  0.8016  1.3068
   81MOL   H37130931   6.344   5.061   5.192  1.5097  1.6032  1.4067
   81MOL   H37230932   6.240   5.238   5.085 -0.4749  0.5183 -0.2167
   81MOL   H37330933   6.141   5.251   4.870  0.8630 -0.5891 -1.4790
   81MOL   H37430934   5.978   5.189   4.933 -0.1719 -1.6585  0.2579
   81MOL   H37530935   6.029   4.976   4.780 -1.8354 -0.0877 -1.4839
   81MOL   H37630936   6.174   5.049   4.735 -0.6005 -2.1882  0.4685
   81MOL   H37730937   6.004   5.096   4.554  2.7880  1.3400 -0.7687
   81MOL   H37830938   6.066   5.243   4.620  1.7109 -0.3652  0.2830
   81MOL   H37930939   5.809   5.246   4.603 -0.1848 -2.3230 -2.1472
   81MOL   H38030940   5.797   5.089   4.682  0.7211 -1.2063 -2.0835
   81MOL   H38130941   5.841   5.232   4.772 -1.3101 -1.3396  0.3716
   81MOL   H38230942   6.088   5.216   5.158  0.2109 -0.8339 -1.0524
   82MOL     C130943   6.592   4.934   5.037  0.8033  0.0847 -0.1702
   82MOL     C230944   6.572   4.865   4.900 -0.0238 -1.0168  0.4673
   82MOL     O330945   6.643   4.740   4.904  0.3718 -0.4079 -0.5253
   82MOL     C430946   6.757   4.731   4.818  0.9422  0.0127  0.0467
   82MOL     C530947   6.838   4.601   4.846  0.2425 -0.3484  0.3804
   82MOL     C630948   6.826   4.557   4.993  0.7899  0.0607  0.0072
   82MOL     C730949   6.895   4.434   5.032 -0.0596 -0.0977  0.4961
   82MOL     H830950   6.700   4.941   5.053  0.8176  2.4513 -1.1572
   82MOL     H930951   6.551   5.034   5.037 -1.0154 -0.5822 -2.9554
   82MOL    H1030952   6.613   4.931   4.824 -0.6604 -1.2802 -0.1129
   82MOL    H1130953   6.722   4.738   4.715  0.6236  0.4821  0.1802
   82MOL    H1230954   6.821   4.817   4.833  0.4784  0.3851 -0.0796
   82MOL    H1330955   6.940   4.597   4.807  0.7595  0.9077  1.5483
   82MOL    H1430956   6.781   4.523   4.795 -0.9673  1.1252 -0.5513
   82MOL    H1530957   6.721   4.546   5.021  0.6173 -0.3538 -0.8124
   82MOL    H1630958   6.852   4.636   5.064  2.2279 -1.1223  0.8332
   82MOL    H1730959   6.847   4.345   4.991  1.3489 -1.0183  0.8310
   82MOL    H1830960   6.887   4.423   5.140 -0.2856  2.7862  0.8130
   82MOL    H1930961   6.998   4.440   4.999 -0.0283  0.7570  0.7524
   82MOL    H2030962   6.563   4.887   5.131 -1.1244 -0.2821 -0.9274
   82MOL    C2130963   6.425   4.852   4.867  0.4638  0.4697 -0.6770
   82MOL    C2230964   6.391   4.802   4.728 -0.5917  0.0432  0.0099
   82MOL    O2330965   6.484   4.859   4.634 -0.2036 -0.6250 -0.0288
   82MOL    C2430966   6.425   4.954   4.557 -0.1182 -0.5269  0.3300
   82MOL    C2530967   6.529   5.036   4.470  0.0622 -0.5189 -0.5265
   82MOL    C2630968   6.466   5.144   4.379 -0.6246  0.0622 -0.8303
   82MOL    C2730969   6.566   5.247   4.327  0.3676  0.1186  0.0646
   82MOL    H2830970   6.390   4.953   4.885 -1.8026 -0.2468 -0.8819
   82MOL    H2930971   6.380   4.789   4.944  1.8272 -1.6457 -1.5603
   82MOL    H3030972   6.285   4.824   4.711 -0.3074  1.5010  0.1115
   82MOL    H3130973   6.375   5.033   4.612 -0.3540  0.2225 -0.9503
   82MOL    H3230974   6.346   4.915   4.492 -0.7918  0.6684  0.4276
   82MOL    H3330975   6.609   5.071   4.536 -1.2044  0.9383  0.2749
   82MOL    H3430976   6.582   4.959   4.414  1.9353  0.0669  0.3909
   82MOL    H3530977   6.402   5.116   4.296  0.2331  0.4909 -1.6511
   82MOL    H3630978   6.394   5.198   4.440  0.9704  1.0688  0.2099
   82MOL    H3730979   6.644   5.207   4.261  0.4190 -0.2774  0.3691
   82MOL    H3830980   6.512   5.326   4.274 -0.2514  0.6699  1.5042
   82MOL    H3930981   6.617   5.294   4.410  0.8779  1.4421 -0.9770
   82MOL    C4030982   6.400   4.645   4.719 -0.2665 -0.4391  0.1577
   82MOL    C4130983   6.340   4.581   4.592 -0.6144  0.1088  0.2375
   82MOL    O4230984   6.196   4.607   4.597 -0.3318 -0.1393 -0.2355
   82MOL    C4330985   6.147   4.696   4.501  0.1458  0.0957 -0.0873
   82MOL    C4430986   5.995   4.680   4.516  1.0798 -0.2710 -0.1196
   82MOL    C4530987   5.921   4.798   4.458  0.3046 -0.1760  0.9442
   82MOL    C4630988   5.765   4.795   4.466 -0.0111 -0.7337 -0.1901
   82MOL    H4730989   6.350   4.600   4.805 -0.6033  0.8175  0.6262
   82MOL    H4830990   6.507   4.625   4.727 -0.4431 -0.8742  1.6233
   82MOL    H4930991   6.387   4.625   4.504 -0.0098  2.8174  1.8572
   82MOL    H5030992   6.175   4.663   4.401  0.4642 -2.1836  0.7339
   82MOL    H5130993   6.183   4.798   4.515 -2.0202  0.6010  2.1344
   82MOL    H5230994   5.963   4.670   4.620  0.5955  0.0917 -0.2323
   82MOL    H5330995   5.948   4.595   4.465 -1.3571  0.6149  0.5671
   82MOL    H5430996   5.961   4.815   4.358 -0.3530  0.5773  0.8041
   82MOL    H5530997   5.940   4.896   4.501 -2.3364  0.9219 -0.2460
   82MOL    H5630998   5.720   4.708   4.417 -0.7367 -0.5656  0.1728
   82MOL    H5730999   5.730   4.805   4.569  0.6435 -0.1107 -0.0233
   82MOL    H5831000   5.734   4.884   4.412 -0.5201 -2.4703 -2.8775
   82MOL    C5931001   6.361   4.432   4.583  0.0340  0.6307  0.5375
   82MOL    C6031002   6.280   4.373   4.459 -0.2526 -0.2936 -0.2685
   82MOL    O6131003   6.356   4.407   4.347 -0.3855  0.4264  0.4805
   82MOL    C6231004   6.281   4.437   4.226 -0.3033  0.3443 -0.8805
   82MOL    C6331005   6.382   4.482   4.126 -0.5116  0.3902  0.5640
   82MOL    C6431006   6.468   4.606   4.169 -0.1991  0.5614 -0.0145
   82MOL    C6531007   6.414   4.748   4.144  0.2228  0.2980 -0.9557
   82MOL    H6631008   6.463   4.397   4.566 -0.2732  0.2623 -0.6391
   82MOL    H6731009   6.321   4.380   4.670 -0.6647 -0.7931 -0.5975
   82MOL    H6831010   6.181   4.417   4.455  0.0420  0.4734  0.5602
   82MOL    H6931011   6.208   4.516   4.244 -1.0544 -0.6419  0.4750
   82MOL    H7031012   6.228   4.347   4.193 -0.1753  0.6572 -1.9630
   82MOL    H7131013   6.468   4.416   4.123 -0.2585  0.6685  1.7543
   82MOL    H7231014   6.347   4.503   4.025  0.3773  2.7827  0.7308
   82MOL    H7331015   6.474   4.599   4.278 -1.5186 -0.8422 -0.0078
   82MOL    H7431016   6.567   4.607   4.123  0.8116 -0.8249  2.0475
   82MOL    H7531017   6.315   4.752   4.187  0.8169  0.6850  0.3940
   82MOL    H7631018   6.479   4.818   4.196 -0.4704  0.3609 -0.1711
   82MOL    H7731019   6.411   4.785   4.041 -0.8422  1.0083 -0.6643
   82MOL    C7831020   6.253   4.225   4.465 -0.2336 -0.1097 -0.6253
   82MOL    C7931021   6.378   4.128   4.464 -0.1285 -0.3137 -0.3107
   82MOL    O8031022   6.359   4.031   4.361  0.0671  0.0865 -0.5493
   82MOL    C8131023   6.470   3.997   4.277  0.1413  0.4659  0.7591
   82MOL    C8231024   6.408   3.941   4.149 -0.3435 -0.0473  0.0004
   82MOL    C8331025   6.334   4.045   4.062  0.4509 -0.4799 -0.1940
   82MOL    C8431026   6.429   4.136   3.976  0.0333  0.2225 -0.2279
   82MOL    H8531027   6.200   4.195   4.374 -0.6435  0.8341 -0.7015
   82MOL    H8631028   6.183   4.211   4.547 -1.5899  2.3803 -1.2987
   82MOL    H8731029   6.472   4.181   4.453  0.5330 -0.2446  4.3687
   82MOL    H8831030   6.541   3.924   4.317 -0.2072 -1.2050 -1.5830
   82MOL    H8931031   6.529   4.087   4.263 -0.7394  1.0171  0.5490
   82MOL    H9031032   6.498   3.919   4.092 -0.6516  1.5287 -1.1173
   82MOL    H9131033   6.357   3.852   4.186 -0.0332  0.1903  1.0098
   82MOL    H9231034   6.284   4.121   4.123  0.2675 -0.8438  0.1095
   82MOL    H9331035   6.268   3.999   3.988  0.4828 -3.4863  1.5665
   82MOL    H9431036   6.495   4.081   3.908 -0.2831  0.1582 -0.4847
   82MOL    H9531037   6.362   4.198   3.917 -2.1438  0.3081  2.2212
   82MOL    H9631038   6.479   4.210   4.038 -0.7924  0.3460  0.3066
   82MOL    C9731039   6.383   4.048   4.593 -0.4561 -0.3705  0.2388
   82MOL    C9831040   6.523   4.007   4.629 -0.5864  0.2122  0.4602
   82MOL    O9931041   6.607   4.118   4.647  0.6319  0.0322 -0.6496
   82MOL   C10031042   6.729   4.104   4.580 -0.5032 -0.2771 -0.4092
   82MOL   C10131043   6.816   4.215   4.617 -0.0273 -0.2221  0.2022
   82MOL   C10231044   6.953   4.223   4.550  0.4463 -0.0785 -0.3371
   82MOL   C10331045   7.045   4.324   4.621 -0.3475 -0.4151 -0.5262
   82MOL   H10431046   6.311   3.967   4.579  1.7843 -2.3371 -0.0737
   82MOL   H10531047   6.348   4.107   4.678 -1.5652 -0.5307 -0.1036
   82MOL   H10631048   6.566   3.936   4.559  2.0569  0.9856  1.2411
   82MOL   H10731049   6.707   4.103   4.474  0.5883  2.2176 -0.6839
   82MOL   H10831050   6.774   4.006   4.599  1.7667  0.4002 -2.1187
   82MOL   H10931051   6.831   4.212   4.725  0.4489  0.0403  0.1446
   82MOL   H11031052   6.765   4.309   4.595 -0.4068 -0.3822  0.4001
   82MOL   H11131053   6.944   4.255   4.446  0.1463  0.1694 -0.2318
   82MOL   H11231054   6.999   4.124   4.543  0.8242  0.1689 -1.5262
   82MOL   H11331055   7.139   4.345   4.571  0.4291 -3.3401 -0.4167
   82MOL   H11431056   7.001   4.415   4.662 -0.4582 -1.1461  1.0278
   82MOL   H11531057   7.081   4.290   4.719  2.0384  1.1751 -0.8141
   82MOL   C11631058   6.512   3.935   4.768  0.0457 -0.0048  0.5485
   82MOL   C11731059   6.630   3.848   4.814 -0.6843  0.1768  0.0639
   82MOL   O11831060   6.667   3.760   4.704 -0.1087  0.0090  0.0200
   82MOL   C11931061   6.582   3.646   4.708  0.0624 -0.3029 -0.6753
   82MOL   C12031062   6.598   3.565   4.571  0.7521  0.3045  0.1623
   82MOL   C12131063   6.566   3.656   4.450  0.1933 -0.1352  0.9033
   82MOL   C12231064   6.581   3.593   4.305  0.7723  0.3697  0.3375
   82MOL   H12331065   6.504   4.019   4.837 -0.3131  2.8641 -2.8090
   82MOL   H12431066   6.416   3.885   4.779  1.2162 -2.5646 -0.4351
   82MOL   H12531067   6.583   3.795   4.897 -1.8199 -0.3482 -0.9009
   82MOL   H12631068   6.477   3.673   4.720  0.7054  1.5546  0.9658
   82MOL   H12731069   6.608   3.580   4.791  1.9217 -0.7769 -1.5988
   82MOL   H12831070   6.540   3.473   4.571  0.9382  0.1666 -1.5163
   82MOL   H12931071   6.705   3.543   4.563  0.7044 -0.3645  1.2165
   82MOL   H13031072   6.471   3.707   4.470 -0.2866 -0.6140 -0.0986
   82MOL   H13131073   6.635   3.740   4.451 -1.5195  1.3009  1.7263
   82MOL   H13231074   6.526   3.502   4.281 -0.0316  1.0212 -0.3167
   82MOL   H13331075   6.686   3.569   4.292  0.2641 -2.4996  1.1187
   82MOL   H13431076   6.537   3.659   4.230  1.4474  2.7112  1.9529
   82MOL   C13531077   6.743   3.934   4.879 -0.0848  0.0491 -0.4055
   82MOL   C13631078   6.798   3.853   5.002  0.2703 -0.3832  0.4943
   82MOL   O13731079   6.944   3.877   5.009  0.7036 -0.0646 -0.3067
   82MOL   C13831080   6.990   4.011   5.024 -0.0876 -0.3038  0.0844
   82MOL   C13931081   7.143   3.994   5.023 -0.0566 -0.1162 -0.4612
   82MOL   C14031082   7.208   3.979   4.878 -0.4457  0.0247 -0.3340
   82MOL   C14131083   7.351   3.935   4.890  0.5044 -0.3589  0.4392
   82MOL   H14231084   6.716   4.037   4.902  2.4471  0.5724  0.3696
   82MOL   H14331085   6.817   3.942   4.799  0.8162  0.5643  0.4600
   82MOL   H14431086   6.799   3.751   4.962  1.8910  0.6063 -2.1005
   82MOL   H14531087   6.944   4.064   5.108  2.7744  0.2369  1.3809
   82MOL   H14631088   6.956   4.076   4.943 -1.2454 -1.6724 -0.5415
   82MOL   H14731089   7.163   3.901   5.076  0.3611 -0.0884 -0.5684
   82MOL   H14831090   7.188   4.072   5.084  0.3300  0.9985 -2.1600
   82MOL   H14931091   7.153   3.912   4.812  0.3466 -1.2131  0.2397
   82MOL   H15031092   7.203   4.078   4.831 -0.6481 -0.5822 -1.6031
   82MOL   H15131093   7.360   3.838   4.938  1.5429 -0.5060 -0.0414
   82MOL   H15231094   7.408   3.926   4.798 -0.9902 -0.0135 -0.5443
   82MOL   H15331095   7.415   4.003   4.946  0.5274  0.5245 -0.6396
   82MOL   C15431096   6.721   3.874   5.131  0.1245 -0.6433 -0.2545
   82MOL   C15531097   6.712   3.750   5.227 -1.2465  0.3474  0.4707
   82MOL   O15631098   6.639   3.654   5.150  0.5083  0.2649  0.7269
   82MOL   C15731099   6.699   3.532   5.109  0.3877  0.1145  0.3159
   82MOL   C15831100   6.594   3.425   5.092  0.0776 -0.2024  0.4903
   82MOL   C15931101   6.643   3.305   5.011  0.6657 -0.2713 -0.0880
   82MOL   C16031102   6.537   3.198   4.978 -0.0410  1.1197 -0.1289
   82MOL   H16131103   6.618   3.906   5.116  0.4927 -0.0995 -1.7595
   82MOL   H16231104   6.753   3.965   5.181 -0.3328 -2.5156  3.6587
   82MOL   H16331105   6.813   3.716   5.248 -1.0989 -0.0104 -0.7722
   82MOL   H16431106   6.755   3.546   5.016 -0.4353 -1.8347 -0.4889
   82MOL   H16531107   6.765   3.499   5.189  0.5634  2.0627  1.0093
   82MOL   H16631108   6.515   3.473   5.034  0.8415 -0.6414 -0.9502
   82MOL   H16731109   6.558   3.385   5.186  3.2279 -0.5138  1.6049
   82MOL   H16831110   6.678   3.350   4.918 -0.4804  0.6412 -0.1003
   82MOL   H16931111   6.729   3.263   5.062  0.7293 -0.8757 -0.6856
   82MOL   H17031112   6.573   3.113   4.920  0.5174  2.1060 -1.2461
   82MOL   H17131113   6.483   3.169   5.068 -0.4688 -2.7452 -1.5130
   82MOL   H17231114   6.463   3.242   4.910  1.0399  1.2616 -1.2286
   82MOL   C17331115   6.637   3.789   5.357  0.0134  0.8620  0.5542
   82MOL   C17431116   6.617   3.666   5.463 -0.0793  0.2847 -0.1951
   82MOL   O17531117   6.715   3.664   5.566  0.6410 -0.1216 -0.0843
   82MOL   C17631118   6.843   3.621   5.525 -0.2099 -0.0512  0.3734
   82MOL   C17731119   6.915   3.562   5.645 -0.0247 -0.1007 -0.1149
   82MOL   C17831120   6.821   3.455   5.713  0.3139 -0.4501 -0.0294
   82MOL   C17931121   6.899   3.361   5.805  0.0563 -0.3372  0.0780
   82MOL   H18031122   6.541   3.826   5.320  0.1001  0.3165 -0.2222
   82MOL   H18131123   6.685   3.868   5.414  1.5790 -0.9758  1.8257
   82MOL   H18231124   6.614   3.572   5.408 -0.6644  0.3709 -0.3204
   82MOL   H18331125   6.910   3.695   5.482  0.9039 -1.9020 -1.1618
   82MOL   H18431126   6.829   3.553   5.441 -1.3252 -1.0905  1.3833
   82MOL   H18531127   6.953   3.637   5.714 -0.7286 -0.3529  0.5569
   82MOL   H18631128   7.010   3.521   5.612  0.9471  0.9359  1.3438
   82MOL   H18731129   6.747   3.503   5.777 -0.8851 -3.2582  0.7504
   82MOL   H18831130   6.761   3.401   5.640 -1.0321  1.5525 -0.4608
   82MOL   H18931131   6.924   3.398   5.904  1.1084 -3.7337  1.1615
   82MOL   H19031132   6.838   3.271   5.811 -0.7323  0.1515 -0.4688
   82MOL   H19131133   6.993   3.331   5.758  1.1231  0.3701  1.7004
   82MOL   C19231134   6.486   3.685   5.537  0.8374 -0.3876  1.0213
   82MOL   C19331135   6.356   3.626   5.472 -0.0133 -0.3703 -0.8227
   82MOL   O19431136   6.365   3.480   5.470 -0.2594 -0.5821 -0.0922
   82MOL   C19531137   6.300   3.418   5.354  0.7124  0.9069  0.1166
   82MOL   C19631138   6.308   3.259   5.380 -0.3853 -0.6658 -0.0526
   82MOL   C19731139   6.452   3.220   5.399  0.2591  0.4039  0.5579
   82MOL   C19831140   6.446   3.069   5.443 -0.4677  0.0121  0.0779
   82MOL   H19931141   6.463   3.789   5.562  0.1492 -0.7354  1.8632
   82MOL   H20031142   6.503   3.637   5.633 -0.6502 -2.1671  0.4352
   82MOL   H20131143   6.356   3.666   5.371 -1.0415  0.2320 -0.5888
   82MOL   H20231144   6.354   3.440   5.262  1.6194 -0.9912  0.1563
   82MOL   H20331145   6.200   3.457   5.340  0.7749  1.2709  0.6385
   82MOL   H20431146   6.252   3.233   5.470 -0.2937  0.8405  0.4495
   82MOL   H20531147   6.262   3.211   5.294  1.0984  2.2803 -2.5832
   82MOL   H20631148   6.491   3.272   5.487 -1.1164 -0.3831  1.6712
   82MOL   H20731149   6.521   3.239   5.317 -3.0571  3.1925 -1.7319
   82MOL   H20831150   6.394   3.007   5.369 -0.5768  2.1919 -1.7212
   82MOL   H20931151   6.549   3.034   5.443 -0.3008  0.3165 -4.0556
   82MOL   H21031152   6.396   3.045   5.537 -1.6050 -2.8994 -1.1975
   82MOL   C21131153   6.225   3.661   5.545  0.2879 -0.0794  0.2696
   82MOL   C21231154   6.187   3.807   5.537 -0.3886 -0.4217  0.6967
   82MOL   O21331155   6.154   3.828   5.397  0.8381 -0.1970 -0.6700
   82MOL   C21431156   6.228   3.933   5.330  0.2540  0.0963  0.3740
   82MOL   C21531157   6.198   3.918   5.180 -0.9919 -0.0286 -0.0489
   82MOL   C21631158   6.218   3.770   5.133  0.0096 -0.4750 -0.8619
   82MOL   C21731159   6.207   3.758   4.979  0.4747  0.4149  0.0296
   82MOL   H21831160   6.246   3.625   5.646 -1.1059 -0.8789  0.2921
   82MOL   H21931161   6.145   3.595   5.510 -0.1253  0.2874  0.5228
   82MOL   H22031162   6.256   3.879   5.580  1.7608 -1.7484 -0.4747
   82MOL   H22131163   6.197   4.025   5.380 -1.3087 -0.9307  1.3333
   82MOL   H22231164   6.335   3.921   5.346 -0.1210  0.4012  3.5340
   82MOL   H22331165   6.094   3.938   5.156 -1.5495 -1.5142  1.0768
   82MOL   H22431166   6.260   3.978   5.112 -3.4368  0.8432 -1.5661
   82MOL   H22531167   6.139   3.706   5.172  0.2840  0.1578  0.7499
   82MOL   H22631168   6.312   3.723   5.161  1.5610  2.7550 -0.4547
   82MOL   H22731169   6.255   3.828   4.911 -0.3082  1.8946  0.9826
   82MOL   H22831170   6.100   3.768   4.958  0.6412 -0.0918 -1.1329
   82MOL   H22931171   6.239   3.659   4.944  0.7883  0.0561  1.3316
   82MOL   C23031172   6.063   3.824   5.628  0.6475 -0.2151  0.0566
   82MOL   C23131173   5.970   3.947   5.602  0.1133  0.6020  0.0384
   82MOL   O23231174   5.839   3.924   5.653 -0.1301  0.1539  0.2225
   82MOL   C23331175   5.758   3.829   5.595  0.3925 -0.2841  0.3872
   82MOL   C23431176   5.623   3.843   5.671  0.0108  0.4970 -0.2015
   82MOL   C23531177   5.531   3.965   5.621  0.2260  0.3236 -0.1978
   82MOL   C23631178   5.393   3.944   5.689 -0.0684 -0.4005  0.3164
   82MOL   H23731179   6.091   3.812   5.733 -1.5726 -1.6470  0.5245
   82MOL   H23831180   6.002   3.734   5.620  0.2504 -0.0479  1.1212
   82MOL   H23931181   5.972   3.966   5.495  0.1434  0.9822  0.1063
   82MOL   H24031182   5.734   3.861   5.493  1.8054  1.6251  0.6164
   82MOL   H24131183   5.792   3.726   5.594  2.2739  0.3112 -1.7673
   82MOL   H24231184   5.581   3.742   5.668 -1.3639  1.0847 -1.1844
   82MOL   H24331185   5.643   3.852   5.778  0.3749 -5.4795  0.4186
   82MOL   H24431186   5.526   3.957   5.513  2.1565  0.3337 -0.3075
   82MOL   H24531187   5.589   4.052   5.650  0.3027 -0.1760  1.2116
   82MOL   H24631188   5.350   3.853   5.647 -0.1594 -0.0910 -0.2630
   82MOL   H24731189   5.333   4.027   5.653 -0.2114  1.3475  4.3019
   82MOL   H24831190   5.401   3.940   5.798 -1.9533  0.4254  0.5041
   82MOL   C24931191   6.023   4.068   5.678  0.6950  0.1427 -0.8240
   82MOL   C25031192   5.952   4.198   5.641 -0.2068 -0.8041  0.5280
   82MOL   O25131193   5.964   4.223   5.505  0.1746  0.0448 -0.4205
   82MOL   C25231194   5.846   4.207   5.431  0.7099  0.8017  0.4607
   82MOL   C25331195   5.898   4.192   5.286  0.4528 -0.9960 -0.8976
   82MOL   C25431196   5.776   4.203   5.195 -0.3327  0.9377  0.5420
   82MOL   C25531197   5.803   4.208   5.043 -0.7136  0.8614 -0.3711
   82MOL   H25631198   6.130   4.079   5.662  0.5961  2.7632  0.0306
   82MOL   H25731199   6.003   4.040   5.782 -0.2232 -1.2566 -1.3617
   82MOL   H25831200   5.845   4.192   5.663 -0.2993 -0.1535  0.2823
   82MOL   H25931201   5.776   4.290   5.440  1.2845  1.3521 -0.0976
   82MOL   H26031202   5.785   4.120   5.455 -0.8777  2.0931  1.1916
   82MOL   H26131203   5.978   4.263   5.266 -0.2788  1.2431  3.6127
   82MOL   H26231204   5.948   4.095   5.276  1.2295 -0.9036  1.7276
   82MOL   H26331205   5.704   4.124   5.215 -0.1460  0.3723 -0.9940
   82MOL   H26431206   5.724   4.295   5.220 -1.6050  0.0055  1.3627
   82MOL   H26531207   5.850   4.302   5.014  0.5351  0.7954  1.3705
   82MOL   H26631208   5.708   4.196   4.991  0.1405  1.3043 -2.0846
   82MOL   H26731209   5.874   4.127   5.026  0.1085  1.1582  1.5276
   82MOL   C26831210   6.007   4.322   5.721  0.2784  0.1802  0.3533
   82MOL   C26931211   5.917   4.448   5.716  0.0326 -0.0963  0.5401
   82MOL   O27031212   5.804   4.430   5.800 -0.3025  0.0544 -0.3105
   82MOL   C27131213   5.677   4.437   5.740 -0.0880  0.2774  0.1131
   82MOL   C27231214   5.590   4.358   5.838 -0.6908 -0.0978  0.3316
   82MOL   C27331215   5.445   4.360   5.801  0.1224  0.3005 -0.1358
   82MOL   C27431216   5.348   4.273   5.894 -0.2196  0.3884  0.0664
   82MOL   H27531217   6.018   4.286   5.824 -2.2917  0.8760  0.9203
   82MOL   H27631218   6.106   4.348   5.685  1.3698  0.1853  3.2000
   82MOL   H27731219   5.899   4.473   5.611 -1.5711  2.2184  1.3263
   82MOL   H27831220   5.648   4.541   5.727  0.8775  0.4767 -0.4923
   82MOL   H27931221   5.681   4.395   5.640 -1.4289  2.3058 -0.8340
   82MOL   H28031222   5.625   4.256   5.854 -1.4558 -0.4019  0.0621
   82MOL   H28131223   5.591   4.390   5.942  0.2942 -1.3703  0.7273
   82MOL   H28231224   5.438   4.319   5.700 -1.8082 -0.0585  0.1333
   82MOL   H28331225   5.403   4.459   5.813 -0.0546  0.1532  0.4718
   82MOL   H28431226   5.371   4.291   5.999  0.1544 -0.0922  0.0714
   82MOL   H28531227   5.358   4.166   5.874  1.1842  0.4343  0.4598
   82MOL   H28631228   5.242   4.294   5.882 -0.4024 -0.9130 -0.6951
   82MOL   C28731229   5.984   4.576   5.774 -0.9138 -0.7054 -0.3404
   82MOL   C28831230   5.899   4.705   5.757 -0.0778  0.7423 -0.6609
   82MOL   O28931231   5.880   4.708   5.616 -0.1200  0.0712  0.3213
   82MOL   C29031232   5.797   4.807   5.571  0.0216  0.6100  0.2287
   82MOL   C29131233   5.770   4.801   5.418 -0.0265  0.2200  0.7891
   82MOL   C29231234   5.713   4.664   5.373  0.5122 -0.0577  0.1798
   82MOL   C29331235   5.638   4.642   5.234 -0.8103 -0.0962  1.0533
   82MOL   H29431236   6.085   4.577   5.732 -1.5190 -2.4358 -1.8584
   82MOL   H29531237   5.998   4.541   5.877 -0.2371 -1.4669 -0.6865
   82MOL   H29631238   5.808   4.679   5.811  0.2195  2.4968  0.7198
   82MOL   H29731239   5.704   4.797   5.627  0.3504  0.4722  0.7582
   82MOL   H29831240   5.836   4.906   5.593 -1.5198  0.7618  2.4070
   82MOL   H29931241   5.862   4.825   5.365 -0.2215 -0.3463  0.1888
   82MOL   H30031242   5.702   4.878   5.379  0.9247  0.8474  0.3357
   82MOL   H30131243   5.647   4.622   5.449  0.5275  0.2962  0.3881
   82MOL   H30231244   5.788   4.585   5.365  0.1681 -0.6517  2.2920
   82MOL   H30331245   5.559   4.572   5.259  0.0473 -1.1699  0.7933
   82MOL   H30431246   5.608   4.734   5.185  0.4201 -0.3594 -0.2392
   82MOL   H30531247   5.699   4.582   5.167 -0.2610  0.4609  1.0505
   82MOL   C30631248   5.967   4.828   5.821 -0.4009  0.3175  0.4423
   82MOL   C30731249   6.003   4.810   5.974  0.5815 -0.0442  0.8764
   82MOL   O30831250   5.880   4.760   6.045 -0.1759  0.1466  0.7135
   82MOL   C30931251   5.906   4.660   6.143 -0.3212  0.3585 -0.1325
   82MOL   C31031252   5.778   4.595   6.191  0.3691  0.2586 -0.7325
   82MOL   C31131253   5.782   4.492   6.312 -0.6738  0.2647 -0.3547
   82MOL   C31231254   5.852   4.541   6.441 -0.3698 -0.2008  0.1196
   82MOL   H31331255   6.060   4.850   5.769 -1.0900  0.4686 -0.7558
   82MOL   H31431256   5.897   4.910   5.808 -0.6388  0.1449  0.6244
   82MOL   H31531257   6.084   4.739   5.990  0.0807 -0.7123  0.4396
   82MOL   H31631258   5.962   4.697   6.228 -0.1685 -1.5415  0.6368
   82MOL   H31731259   5.977   4.594   6.092 -0.0005  0.3633  0.3077
   82MOL   H31831260   5.718   4.545   6.115 -2.9845  1.6280  0.8775
   82MOL   H31931261   5.721   4.684   6.218 -1.5866 -1.1516 -0.1292
   82MOL   H32031262   5.678   4.472   6.338 -0.9405 -0.7865 -2.1963
   82MOL   H32131263   5.830   4.403   6.272 -0.2395 -0.5247  1.8373
   82MOL   H32231264   5.824   4.635   6.488  0.5113  0.9560 -1.6012
   82MOL   H32331265   5.960   4.537   6.427 -0.1571  1.1271  1.2480
   82MOL   H32431266   5.846   4.465   6.519  4.4368  0.4066  1.2617
   82MOL   C32531267   6.044   4.947   6.033 -0.0634  0.4360 -0.3615
   82MOL   C32631268   6.095   4.953   6.174  0.0993  0.0070  0.2150
   82MOL   O32731269   6.215   4.878   6.173 -0.2804 -0.2806 -0.4518
   82MOL   C32831270   6.236   4.804   6.286  0.3115 -0.4559  0.4787
   82MOL   C32931271   6.370   4.731   6.261  0.1077  0.6379  0.4633
   82MOL   C33031272   6.376   4.636   6.140 -0.0090 -0.0042 -0.2547
   82MOL   C33131273   6.512   4.579   6.125  0.7470 -0.6670  0.2162
   82MOL   H33231274   5.952   5.006   6.037  1.0384  2.1514 -0.1295
   82MOL   H33331275   6.114   5.006   5.974  0.2402 -1.9322 -2.4895
   82MOL   H33431276   6.018   4.900   6.231 -0.8191 -0.2877 -1.2693
   82MOL   H33531277   6.158   4.731   6.305  0.7238 -1.1300 -0.3957
   82MOL   H33631278   6.250   4.870   6.372 -0.2075  2.5477 -1.6403
   82MOL   H33731279   6.453   4.802   6.262  0.9155 -0.3027  0.7837
   82MOL   H33831280   6.395   4.672   6.348  3.2495  0.6732 -0.3411
   82MOL   H33931281   6.350   4.692   6.050 -0.2811  0.3026  0.0133
   82MOL   H34031282   6.311   4.549   6.153  0.3317 -0.1930  0.2050
   82MOL   H34131283   6.557   4.580   6.224  1.2403  0.9963 -0.0163
   82MOL   H34231284   6.582   4.647   6.075 -1.5674  0.7468 -1.1950
   82MOL   H34331285   6.520   4.478   6.085  2.1214  0.2178 -1.8196
   82MOL   C34431286   6.123   5.099   6.233  0.0610  1.3199 -0.7698
   82MOL   C34531287   6.085   5.113   6.388 -0.1180 -0.1176  0.0684
   82MOL   O34631288   5.940   5.089   6.383  0.7014 -0.3552 -0.2007
   82MOL   C34731289   5.895   5.039   6.512  0.1004 -0.0202  0.0111
   82MOL   C34831290   5.750   4.993   6.489 -0.2376  0.1786  0.0000
   82MOL   C34931291   5.697   4.906   6.603 -0.2976 -0.5416  0.5748
   82MOL   C35031292   5.549   4.905   6.604 -0.0366  0.1778  0.2826
   82MOL   H35131293   6.230   5.109   6.218  0.1755  1.0274 -0.1680
   82MOL   H35231294   6.077   5.175   6.170 -0.5782  2.8322  1.4591
   82MOL   H35331295   6.130   5.029   6.441 -0.8751  0.5502  1.7990
   82MOL   H35431296   5.889   5.121   6.584  2.8389  0.4094 -0.2098
   82MOL   H35531297   5.963   4.966   6.556 -0.5510 -0.3480  0.4770
   82MOL   H35631298   5.739   4.928   6.401  1.9027 -1.6309  1.0171
   82MOL   H35731299   5.684   5.079   6.478  0.0807  0.3610 -0.5469
   82MOL   H35831300   5.721   4.801   6.588  1.1876  0.0991 -1.7448
   82MOL   H35931301   5.736   4.939   6.700 -0.3073  0.4281  0.2551
   82MOL   H36031302   5.503   5.002   6.588  0.3100  0.2916 -0.0266
   82MOL   H36131303   5.504   4.869   6.697 -1.6376  0.0368 -0.5377
   82MOL   H36231304   5.502   4.842   6.529  0.5473 -1.9837  1.6913
   82MOL   C36331305   6.113   5.254   6.452 -0.2790  0.0939 -0.1630
   82MOL   C36431306   6.255   5.277   6.500  0.2786  0.7067  0.0649
   82MOL   O36531307   6.326   5.285   6.382 -0.3841  0.3446  0.0866
   82MOL   C36631308   6.434   5.196   6.386 -0.1825  1.2194 -0.3745
   82MOL   C36731309   6.505   5.191   6.247  0.4108 -0.2705 -0.7363
   82MOL   C36831310   6.573   5.323   6.204  0.5139  0.3277 -0.2394
   82MOL   C36931311   6.647   5.316   6.073  0.1757 -0.8538 -0.5980
   82MOL   H37031312   6.047   5.279   6.535  3.4563  0.8372  2.6828
   82MOL   H37131313   6.082   5.334   6.384 -1.7261  1.1787  1.7023
   82MOL   H37231314   6.281   5.193   6.564 -3.0432  0.8388  1.7329
   82MOL   H37331315   6.401   5.094   6.402  3.3233  0.0327 -0.3159
   82MOL   H37431316   6.512   5.197   6.462 -0.4163  3.1738 -0.1380
   82MOL   H37531317   6.438   5.153   6.170  1.8498 -0.4697 -1.9055
   82MOL   H37631318   6.576   5.112   6.271  0.0130  0.3678  2.8816
   82MOL   H37731319   6.638   5.362   6.282  1.6945  0.2895 -1.2023
   82MOL   H37831320   6.488   5.389   6.185  0.3753  0.5433  1.0863
   82MOL   H37931321   6.594   5.265   5.993  0.2513 -0.1919 -1.0785
   82MOL   H38031322   6.680   5.414   6.038  0.9412 -0.5103  1.0225
   82MOL   H38131323   6.741   5.261   6.083 -1.0421 -2.6320  1.1906
   82MOL   H38231324   6.268   5.371   6.553  0.5801 -0.2292  1.6649
   83MOL     C131325   0.376   5.229   2.366  0.8237  0.4673  0.0394
   83MOL     C231326   0.443   5.265   2.501  0.1582  0.9284  0.5940
   83MOL     O331327   0.486   5.147   2.563 -0.1942  0.2364  0.4189
   83MOL     C431328   0.517   5.165   2.698 -0.6151 -0.3108  0.1395
   83MOL     C531329   0.445   5.054   2.775  0.2090  0.1406 -0.0348
   83MOL     C631330   0.293   5.064   2.768  0.0614 -0.9469  0.8523
   83MOL     C731331   0.219   4.937   2.807 -0.0002  0.2917  0.3891
   83MOL     H831332   0.451   5.177   2.307 -0.2342 -0.8561 -0.1737
   83MOL     H931333   0.295   5.157   2.380  2.3599 -1.1654  0.7947
   83MOL    H1031334   0.368   5.308   2.567  0.3852  0.9128  0.8649
   83MOL    H1131335   0.621   5.142   2.721 -0.5960 -1.5549 -1.0683
   83MOL    H1231336   0.493   5.254   2.756 -0.2615 -1.6762  2.4539
   83MOL    H1331337   0.471   5.045   2.881  1.5168  0.3250 -0.3334
   83MOL    H1431338   0.466   4.960   2.725  3.3031  1.3045 -0.9998
   83MOL    H1531339   0.262   5.092   2.668 -0.4431  0.8826  1.4881
   83MOL    H1631340   0.267   5.146   2.836  0.0441 -1.2136  1.1650
   83MOL    H1731341   0.112   4.945   2.824  0.1464 -0.7353  1.8345
   83MOL    H1831342   0.241   4.913   2.910  0.6633 -0.7191  0.0159
   83MOL    H1931343   0.248   4.863   2.733 -0.7258  0.0154  0.3804
   83MOL    H2031344   0.343   5.315   2.308  0.4583  0.2841 -0.0235
   83MOL    C2131345   0.562   5.367   2.479  0.2124  0.0086  0.0245
   83MOL    C2231346   0.545   5.489   2.383  0.7176 -0.3319  0.1695
   83MOL    O2331347   0.425   5.553   2.432 -0.3908 -0.1314  0.0851
   83MOL    C2431348   0.345   5.620   2.335 -0.1887 -0.1974  0.2228
   83MOL    C2531349   0.215   5.677   2.397  0.4651 -0.4171  0.0514
   83MOL    C2631350   0.128   5.570   2.461  0.8223 -0.1024  0.1191
   83MOL    C2731351   7.785   5.620   2.494 -0.3265  0.1121 -0.1526
   83MOL    H2831352   0.653   5.316   2.448  1.4499  1.7567  0.7118
   83MOL    H2931353   0.591   5.409   2.575 -0.5593  0.7100 -0.0413
   83MOL    H3031354   0.520   5.457   2.282  0.4949  1.4462 -0.3645
   83MOL    H3131355   0.307   5.549   2.262 -0.5746 -0.1196  0.3489
   83MOL    H3231356   0.401   5.701   2.288 -0.5986  0.1726  0.3652
   83MOL    H3331357   0.233   5.760   2.466 -0.8265 -0.0422 -0.0409
   83MOL    H3431358   0.163   5.738   2.324  2.6182  3.3533  1.5247
   83MOL    H3531359   0.120   5.475   2.408 -4.4205  0.2132  0.1049
   83MOL    H3631360   0.176   5.551   2.557  1.0755  0.6786  0.1532
   83MOL    H3731361   7.725   5.533   2.523  0.5234 -0.7608 -0.9572
   83MOL    H3831362   7.779   5.702   2.566  1.0266 -1.0175  1.2646
   83MOL    H3931363   7.752   5.658   2.397  1.7034  1.6557 -0.2611
   83MOL    C4031364   0.651   5.602   2.375 -0.0549 -0.3142  0.2362
   83MOL    C4131365   0.799   5.559   2.366  0.3422 -0.7725 -0.0182
   83MOL    O4231366   0.886   5.673   2.346  0.4605 -0.2786 -0.2228
   83MOL    C4331367   0.884   5.764   2.458 -0.3842 -0.0922 -0.0637
   83MOL    C4431368   0.807   5.893   2.428  0.3786  0.4213 -0.0885
   83MOL    C4531369   0.823   5.953   2.289 -0.1719  0.3268 -0.0404
   83MOL    C4631370   0.747   6.078   2.264  0.0262  0.6325 -0.5002
   83MOL    H4731371   0.641   5.659   2.467  0.5973  0.3558 -0.0931
   83MOL    H4831372   0.637   5.669   2.290 -2.2758  1.7188  2.1556
   83MOL    H4931373   0.825   5.509   2.459  0.6948 -0.7773 -0.1203
   83MOL    H5031374   0.991   5.778   2.471  0.0446 -2.2782 -0.9683
   83MOL    H5131375   0.857   5.722   2.555  1.2153 -0.5298  0.1969
   83MOL    H5231376   0.821   5.974   2.499  3.0366 -1.1774  1.3138
   83MOL    H5331377   0.707   5.860   2.457  0.4053 -1.0914 -1.5837
   83MOL    H5431378   0.806   5.872   2.219 -2.2658 -1.6840  2.6554
   83MOL    H5531379   0.927   5.977   2.265  0.4565  0.1904  2.4008
   83MOL    H5631380   0.642   6.058   2.242  0.3993 -0.5989 -1.2213
   83MOL    H5731381   0.763   6.144   2.349  0.1380  0.3301 -0.2860
   83MOL    H5831382   0.779   6.129   2.174 -0.3504  3.1149  0.7400
   83MOL    C5931383   0.816   5.473   2.245  0.4707  1.0647  0.1736
   83MOL    C6031384   0.948   5.408   2.252 -0.3273  0.5757  0.4736
   83MOL    O6131385   0.941   5.300   2.342  0.0640 -0.5026  0.5934
   83MOL    C6231386   1.047   5.288   2.431 -0.0366  0.1121 -0.3982
   83MOL    C6331387   1.034   5.152   2.501 -0.4049 -1.0595  0.2362
   83MOL    C6431388   0.913   5.153   2.599  1.2189  0.0412  0.2402
   83MOL    C6531389   0.941   5.081   2.733 -0.0118  0.8461  0.4076
   83MOL    H6631390   0.740   5.395   2.246  1.1083  0.4190 -0.3395
   83MOL    H6731391   0.794   5.538   2.161  1.2261 -1.3067 -1.9339
   83MOL    H6831392   1.026   5.473   2.293  0.7339  0.7028 -1.6906
   83MOL    H6931393   1.037   5.367   2.506 -1.3856 -2.4826  2.3146
   83MOL    H7031394   1.143   5.292   2.380  0.3770 -1.4954  0.2106
   83MOL    H7131395   1.033   5.074   2.426  0.0545 -0.4843 -0.3755
   83MOL    H7231396   1.123   5.139   2.562  0.2821 -3.3634 -1.2266
   83MOL    H7331397   0.883   5.254   2.627  1.3674  0.5258 -1.2971
   83MOL    H7431398   0.836   5.112   2.534  1.7562  0.7641 -0.8639
   83MOL    H7531399   1.023   5.144   2.768  0.2194  1.6165 -1.4586
   83MOL    H7631400   0.856   5.081   2.802  0.3502  1.2630  0.8582
   83MOL    H7731401   0.973   4.978   2.715 -0.7295  0.0092  3.5821
   83MOL    C7831402   0.986   5.362   2.107 -0.1950 -0.3411  0.2310
   83MOL    C7931403   1.136   5.317   2.086  0.7438  0.6806 -1.2663
   83MOL    O8031404   1.161   5.346   1.945 -0.2343  0.4683  0.1089
   83MOL    C8131405   1.281   5.424   1.938 -0.3268  0.1469  0.0019
   83MOL    C8231406   1.276   5.499   1.799 -0.4408  0.6547  0.9951
   83MOL    C8331407   1.391   5.592   1.767 -0.2187 -0.0965 -0.4314
   83MOL    C8431408   1.367   5.727   1.836 -0.2314 -0.3689 -0.6580
   83MOL    H8531409   0.971   5.447   2.041 -2.8755 -1.4058 -0.6090
   83MOL    H8631410   0.921   5.280   2.076  0.0989 -0.6549  0.4384
   83MOL    H8731411   1.195   5.383   2.149 -0.7830  0.5314  0.3615
   83MOL    H8831412   1.375   5.370   1.936 -0.1930  0.3854 -0.1342
   83MOL    H8931413   1.281   5.506   2.010  0.7993  0.4563 -0.3411
   83MOL    H9031414   1.259   5.434   1.713 -0.7796  0.5967  1.1016
   83MOL    H9131415   1.179   5.546   1.781 -0.2466  0.4659 -0.6653
   83MOL    H9231416   1.401   5.604   1.660 -0.1186  1.7316 -0.2304
   83MOL    H9331417   1.488   5.559   1.805 -0.7185  0.6545  1.5829
   83MOL    H9431418   1.267   5.756   1.804  0.1115 -0.3930 -1.7602
   83MOL    H9531419   1.379   5.719   1.944 -0.9836  2.3640 -0.3242
   83MOL    H9631420   1.437   5.803   1.803 -0.7520  1.5939  2.5131
   83MOL    C9731421   1.164   5.167   2.111 -0.1745  0.3423  0.1037
   83MOL    C9831422   1.317   5.135   2.107 -0.5593 -0.4384 -0.9745
   83MOL    O9931423   1.384   5.190   2.222  0.1957 -0.6352 -0.2845
   83MOL   C10031424   1.516   5.226   2.191 -0.1754 -0.0460 -0.4430
   83MOL   C10131425   1.604   5.226   2.313  0.1985 -0.3984 -0.2192
   83MOL   C10231426   1.752   5.252   2.277  0.6212  0.5012 -0.0921
   83MOL   C10331427   1.850   5.279   2.391 -0.3619  1.2296  0.0193
   83MOL   H10431428   1.121   5.106   2.032 -1.2993  0.8124  0.3447
   83MOL   H10531429   1.114   5.133   2.202 -0.8032  0.7046 -0.1052
   83MOL   H10631430   1.357   5.179   2.016 -1.0228 -1.1496 -1.5343
   83MOL   H10731431   1.524   5.332   2.168 -0.4062  0.3477  1.2191
   83MOL   H10831432   1.554   5.160   2.112 -0.5402  1.7809 -2.1796
   83MOL   H10931433   1.598   5.126   2.356  0.2330 -1.0541 -1.6998
   83MOL   H11031434   1.579   5.302   2.387 -0.2393 -0.4429 -0.3229
   83MOL   H11131435   1.767   5.328   2.200  3.0503 -0.0881 -0.2436
   83MOL   H11231436   1.782   5.157   2.232  1.8554  1.5477 -1.5447
   83MOL   H11331437   1.848   5.371   2.450  2.1682  0.3218  1.5775
   83MOL   H11431438   1.826   5.212   2.473 -2.5398 -1.4353 -2.6854
   83MOL   H11531439   1.949   5.254   2.352 -0.2301 -1.4115  1.9435
   83MOL   C11631440   1.355   4.978   2.101  0.4608 -0.7068  0.4890
   83MOL   C11731441   1.321   4.910   1.965  0.3204  0.2776 -0.1782
   83MOL   O11831442   1.415   4.946   1.868 -0.3386 -0.3617  0.4563
   83MOL   C11931443   1.380   4.919   1.735  0.0726 -0.1204  0.1451
   83MOL   C12031444   1.470   5.000   1.642 -0.0210  0.9396 -1.1918
   83MOL   C12131445   1.465   5.142   1.688  0.3154 -0.0049 -0.1732
   83MOL   C12231446   1.544   5.240   1.601  0.1989  0.4105 -0.1801
   83MOL   H12331447   1.462   4.963   2.111  0.9532  1.1895 -1.5756
   83MOL   H12431448   1.315   4.926   2.189 -2.8155  1.2345  0.2328
   83MOL   H12531449   1.217   4.933   1.939  0.0961 -1.0526 -0.5399
   83MOL   H12631450   1.280   4.956   1.715 -1.4759 -3.2203  1.8953
   83MOL   H12731451   1.403   4.816   1.708  1.5396  0.8361 -2.5399
   83MOL   H12831452   1.438   4.978   1.540  2.1358 -1.8560 -1.3296
   83MOL   H12931453   1.573   4.963   1.641 -0.9511 -1.7558 -2.3214
   83MOL   H13031454   1.359   5.168   1.686  0.7070  1.4832 -3.1517
   83MOL   H13131455   1.502   5.159   1.790  2.5479  1.6669 -1.2266
   83MOL   H13231456   1.568   5.336   1.648  1.8364  0.7092 -1.5735
   83MOL   H13331457   1.489   5.243   1.507  0.1971  0.5792 -0.1737
   83MOL   H13431458   1.643   5.199   1.578 -0.8643 -2.1809 -0.3279
   83MOL   C13531459   1.306   4.753   1.983  0.5314  0.5906  0.1614
   83MOL   C13631460   1.173   4.702   2.032  0.1684  0.1405 -0.6659
   83MOL   O13731461   1.071   4.704   1.933  0.4770  0.4621  0.2845
   83MOL   C13831462   0.935   4.700   1.980  0.1149 -0.4501 -0.0580
   83MOL   C13931463   0.847   4.686   1.854 -0.3616  0.0833 -0.3979
   83MOL   C14031464   0.885   4.788   1.742 -0.1942  0.7573 -0.8601
   83MOL   C14131465   0.802   4.769   1.613 -0.4426 -0.5598  0.1483
   83MOL   H14231466   1.376   4.744   2.066  0.1535 -0.0520  0.4182
   83MOL   H14331467   1.348   4.701   1.897  2.3398  0.5310  1.0586
   83MOL   H14431468   1.149   4.763   2.118  1.6944 -0.2779  0.0750
   83MOL   H14531469   0.915   4.795   2.031 -0.7737 -0.4244 -0.4372
   83MOL   H14631470   0.915   4.622   2.053 -0.6960  0.5981  0.8641
   83MOL   H14731471   0.743   4.700   1.883 -0.4654  0.8647 -1.1439
   83MOL   H14831472   0.862   4.586   1.812  1.4791  1.0551 -2.1105
   83MOL   H14931473   0.864   4.886   1.785  2.7590  0.6430  1.0279
   83MOL   H15031474   0.992   4.785   1.720 -0.1133  0.1860 -0.4308
   83MOL   H15131475   0.701   4.740   1.645 -0.4649  0.4383  0.9995
   83MOL   H15231476   0.793   4.871   1.577 -2.2086  0.4802  3.3570
   83MOL   H15331477   0.850   4.712   1.533 -1.4387 -2.9559  1.2009
   83MOL   C15431478   1.184   4.550   2.081  0.6451  0.1550  0.6488
   83MOL   C15531479   1.219   4.533   2.230 -0.2091  0.0945  0.0413
   83MOL   O15631480   1.356   4.571   2.255 -0.1272  0.6985 -0.0676
   83MOL   C15731481   1.360   4.670   2.360  0.2222  0.0659 -0.3759
   83MOL   C15831482   1.502   4.680   2.419  0.9374  0.0335 -0.1502
   83MOL   C15931483   1.538   4.563   2.509 -0.3675  0.6470 -0.8173
   83MOL   C16031484   1.667   4.550   2.585 -0.3027 -0.0996  0.7558
   83MOL   H16131485   1.261   4.497   2.026 -2.3182 -2.2978 -1.2339
   83MOL   H16231486   1.089   4.503   2.060  0.3336  0.9443  0.2576
   83MOL   H16331487   1.153   4.597   2.287  1.7588  0.9723  1.3897
   83MOL   H16431488   1.323   4.767   2.326  1.0455  0.7278  0.6096
   83MOL   H16531489   1.294   4.646   2.443  0.8770 -2.7772 -0.6045
   83MOL   H16631490   1.506   4.765   2.487  1.9857 -0.5417  0.5189
   83MOL   H16731491   1.569   4.693   2.335  0.0104 -0.8987 -1.0588
   83MOL   H16831492   1.458   4.564   2.583  0.9311 -0.2452  0.6289
   83MOL   H16931493   1.522   4.469   2.456 -0.5559  0.7874 -1.0092
   83MOL   H17031494   1.658   4.468   2.657  0.6409  1.5641  2.8274
   83MOL   H17131495   1.749   4.542   2.514  0.0566 -0.8952  1.2567
   83MOL   H17231496   1.682   4.631   2.656  0.0965  1.2848 -0.8729
   83MOL   C17331497   1.205   4.386   2.290  0.1717  0.6203  0.9020
   83MOL   C17431498   1.066   4.318   2.297 -0.4339 -1.0306 -0.2186
   83MOL   O17531499   1.087   4.217   2.390  0.0429 -0.0485  0.3577
   83MOL   C17631500   1.131   4.090   2.338 -0.1695 -0.3309 -0.1141
   83MOL   C17731501   1.130   3.989   2.453 -0.1568 -0.9304  0.0136
   83MOL   C17831502   1.152   3.848   2.396  0.8394 -0.3529  0.0103
   83MOL   C17931503   1.297   3.826   2.360  0.6585  0.6366  0.4764
   83MOL   H18031504   1.250   4.404   2.388  1.4156  3.3479 -0.1184
   83MOL   H18131505   1.283   4.324   2.246 -0.3130  0.4817  0.2312
   83MOL   H18231506   1.035   4.282   2.199 -1.0709 -2.5360  0.5202
   83MOL   H18331507   1.234   4.103   2.306 -0.0048 -1.0059  0.1532
   83MOL   H18431508   1.070   4.060   2.252 -1.6535 -2.0372  1.4790
   83MOL   H18531509   1.035   3.999   2.505 -1.6383 -2.1509 -2.3810
   83MOL   H18631510   1.209   4.004   2.526  0.2212  1.2486 -0.7773
   83MOL   H18731511   1.126   3.770   2.468  2.2325  0.2936  1.2331
   83MOL   H18831512   1.101   3.845   2.300  0.6865  2.5458 -0.0568
   83MOL   H18931513   1.330   3.883   2.273  0.3846  0.9018  0.5457
   83MOL   H19031514   1.370   3.850   2.436  1.3711 -2.3281  0.8163
   83MOL   H19131515   1.311   3.720   2.335  0.2859  0.5252  0.7297
   83MOL   C19231516   0.955   4.414   2.352  0.5049 -0.2376  0.0449
   83MOL   C19331517   0.816   4.355   2.355 -0.0474 -0.5828  0.5935
   83MOL   O19431518   0.786   4.299   2.229 -0.1275 -0.1281  0.2592
   83MOL   C19531519   0.689   4.366   2.157  0.9267 -0.3989  1.1860
   83MOL   C19631520   0.638   4.277   2.041 -0.3769  1.2843  0.1835
   83MOL   C19731521   0.548   4.159   2.092 -0.7056 -0.7913  0.1896
   83MOL   C19831522   0.476   4.104   1.971 -0.3484  0.0118 -0.0189
   83MOL   H19931523   0.951   4.492   2.276 -1.3234  0.1450  0.5136
   83MOL   H20031524   0.981   4.458   2.448 -1.6327  2.0491 -0.3640
   83MOL   H20131525   0.751   4.439   2.378  1.4617  1.6188 -2.6206
   83MOL   H20231526   0.734   4.457   2.119 -0.8396  0.4499  1.0943
   83MOL   H20331527   0.612   4.388   2.231  0.8918 -3.2382  2.0722
   83MOL   H20431528   0.577   4.327   1.966 -0.2832 -0.5035 -1.1142
   83MOL   H20531529   0.725   4.237   1.990 -3.3151 -3.3596 -1.4117
   83MOL   H20631530   0.468   4.193   2.156  0.3587  0.9444  0.6256
   83MOL   H20731531   0.603   4.077   2.138 -0.0163 -0.9793 -0.9438
   83MOL   H20831532   0.440   4.005   1.999  0.4218  0.0869  1.2708
   83MOL   H20931533   0.396   4.169   1.936  0.0189 -0.5296 -1.9559
   83MOL   H21031534   0.542   4.099   1.884 -0.1876 -0.8297  0.1467
   83MOL   C21131535   0.792   4.237   2.461  0.9413 -0.4621  0.0784
   83MOL   C21231536   0.648   4.187   2.471 -0.2020 -0.3877  0.1487
   83MOL   O21331537   0.646   4.061   2.525 -0.3750 -0.1842  0.2119
   83MOL   C21431538   0.692   3.950   2.442 -0.0105 -0.9050  0.6674
   83MOL   C21531539   0.718   3.835   2.536 -0.6416 -0.1323 -0.0448
   83MOL   C21631540   0.592   3.769   2.599  0.2220 -0.2322  0.6372
   83MOL   C21731541   0.543   3.656   2.508 -0.2915 -0.4123  0.6114
   83MOL   H21831542   0.810   4.273   2.562  0.0948 -2.5273  1.0018
   83MOL   H21931543   0.861   4.158   2.430 -0.1646 -0.8970 -1.3303
   83MOL   H22031544   0.613   4.180   2.368  0.3918  1.8876 -0.2413
   83MOL   H22131545   0.619   3.921   2.367  0.8662 -0.3629 -0.3936
   83MOL   H22231546   0.790   3.975   2.402 -0.0122  0.1624  1.3147
   83MOL   H22331547   0.781   3.761   2.487  3.5932  2.1504  1.7009
   83MOL   H22431548   0.791   3.873   2.607  1.1441  1.2145 -2.5364
   83MOL   H22531549   0.519   3.840   2.635 -2.2200 -1.0272 -2.5371
   83MOL   H22631550   0.618   3.722   2.694 -1.9659 -2.6019  0.1188
   83MOL   H22731551   0.435   3.649   2.524 -0.4264  1.1854  0.4603
   83MOL   H22831552   0.599   3.567   2.536  1.0088  0.4945  0.9257
   83MOL   H22931553   0.551   3.680   2.402 -1.7028 -0.5326  0.4677
   83MOL   C23031554   0.548   4.286   2.542 -0.4801  0.2373 -0.0732
   83MOL   C23131555   0.391   4.254   2.536  0.1745  0.7745 -0.0876
   83MOL   O23231556   0.354   4.117   2.574  0.4949  0.3347  0.0434
   83MOL   C23331557   0.318   4.025   2.472 -0.4192 -0.1831 -0.4617
   83MOL   C23431558   0.220   3.918   2.523 -0.5883 -0.5533  0.6989
   83MOL   C23531559   0.093   3.982   2.566 -0.0593  0.1654 -0.8045
   83MOL   C23631560   0.007   3.868   2.614 -0.1274  0.8453  0.1469
   83MOL   H23731561   0.557   4.388   2.504 -2.0012  1.0224  1.6398
   83MOL   H23831562   0.577   4.296   2.646 -1.3176 -1.4945  0.3437
   83MOL   H23931563   0.362   4.274   2.433 -0.5009  0.6391  0.0766
   83MOL   H24031564   0.269   4.076   2.389  0.0336  0.6976 -0.1926
   83MOL   H24131565   0.410   3.977   2.440  0.7888 -1.1062  3.9750
   83MOL   H24231566   0.196   3.846   2.445  2.1687  0.1847 -0.8723
   83MOL   H24331567   0.270   3.860   2.600 -0.8742  0.9711  2.0760
   83MOL   H24431568   0.052   4.041   2.485  0.6068  0.5336 -0.8810
   83MOL   H24531569   0.110   4.044   2.653 -2.6317  0.6721 -0.6445
   83MOL   H24631570   7.797   3.792   2.536 -2.1153 -0.3021  1.5268
   83MOL   H24731571   7.708   3.905   2.633 -0.2769  1.3378 -1.4853
   83MOL   H24831572   0.045   3.814   2.700  0.8485  1.3393  0.0414
   83MOL   C24931573   0.316   4.359   2.623 -0.2870 -0.0363 -0.2662
   83MOL   C25031574   0.161   4.369   2.599  0.2012  0.0270  0.2873
   83MOL   O25131575   0.141   4.435   2.471 -0.4008  0.0502  0.5577
   83MOL   C25231576   0.033   4.381   2.387 -1.0490  0.3197 -0.5807
   83MOL   C25331577   0.054   4.435   2.244  0.8635  0.5676 -1.0287
   83MOL   C25431578   0.196   4.414   2.186 -0.2096 -0.0080 -0.4603
   83MOL   C25531579   0.191   4.468   2.038  0.2435 -0.4629  0.5092
   83MOL   H25631580   0.361   4.458   2.615 -2.0327  0.9501  1.3797
   83MOL   H25731581   0.339   4.316   2.721  1.7123 -0.7472 -1.0474
   83MOL   H25831582   0.107   4.275   2.588 -2.7028  1.8824 -1.8201
   83MOL   H25931583   7.736   4.396   2.430 -0.3336 -0.4570  1.3947
   83MOL   H26031584   0.044   4.272   2.381  1.2687  0.4970  0.0300
   83MOL   H26131585   7.781   4.396   2.175  0.5418  0.8934 -0.8626
   83MOL   H26231586   0.028   4.540   2.245  2.2947  0.9313 -0.0968
   83MOL   H26331587   0.270   4.467   2.246  0.8295 -1.0835 -0.7686
   83MOL   H26431588   0.220   4.308   2.190  3.5745  0.7984  1.7216
   83MOL   H26531589   0.291   4.465   1.997  0.0468 -0.2460  0.0059
   83MOL   H26631590   0.140   4.564   2.032  1.6263  0.2032 -0.8765
   83MOL   H26731591   0.134   4.410   1.965 -1.6327  0.4977  1.1539
   83MOL   C26831592   0.094   4.455   2.711  0.0535  0.7524  0.6161
   83MOL   C26931593   0.079   4.395   2.854 -0.1003 -0.1480 -0.0041
   83MOL   O27031594   0.025   4.490   2.947  0.3015 -0.7483  0.6169
   83MOL   C27131595   0.120   4.594   2.992  0.0637  1.3496 -0.1790
   83MOL   C27231596   0.051   4.711   3.050  0.2739 -0.0835 -0.3942
   83MOL   C27331597   0.137   4.785   3.157  0.1927  0.8381  0.0981
   83MOL   C27431598   0.068   4.915   3.198 -0.3052 -0.5717 -0.0558
   83MOL   H27531599   0.142   4.553   2.710  0.9741  0.3157  1.1459
   83MOL   H27631600   7.798   4.489   2.678 -0.7458  0.6239  2.7743
   83MOL   H27731601   0.175   4.361   2.892  0.8327  1.9474 -0.3924
   83MOL   H27831602   0.198   4.547   3.052  0.7263  0.8457 -1.4188
   83MOL   H27931603   0.176   4.625   2.904  0.3737  2.2575  0.3352
   83MOL   H28031604   0.008   4.775   2.972  2.2720  2.4047  0.4779
   83MOL   H28131605   7.763   4.672   3.098 -0.3634  1.4283 -0.3305
   83MOL   H28231606   0.237   4.820   3.132 -0.0178  1.2639 -0.1486
   83MOL   H28331607   0.147   4.727   3.248 -0.2937 -0.2682 -0.5431
   83MOL   H28431608   7.782   4.895   3.259  0.3843 -1.4928  0.6317
   83MOL   H28531609   0.053   4.988   3.117  0.0262 -1.1317 -0.6238
   83MOL   H28631610   0.138   4.961   3.268 -0.4335  0.4287 -0.5642
   83MOL   C28731611   7.779   4.277   2.848  0.2051  0.0368 -0.1377
   83MOL   C28831612   7.722   4.218   2.981 -0.4113 -0.9540  0.2795
   83MOL   O28931613   0.027   4.189   3.065 -0.0424  0.3603  0.3354
   83MOL   C29031614   0.026   4.267   3.189 -0.3085 -0.0568 -0.8482
   83MOL   C29131615   0.167   4.256   3.263 -0.2206  0.0651 -0.4064
   83MOL   C29231616   0.184   4.112   3.316 -0.9696 -0.0369 -0.2899
   83MOL   C29331617   0.270   4.084   3.444  0.1829 -0.2285  0.7423
   83MOL   H29431618   0.024   4.194   2.796  0.4130  0.5777 -0.8134
   83MOL   H29531619   7.693   4.310   2.791 -0.8435 -0.4340  1.1370
   83MOL   H29631620   7.651   4.292   3.018  0.3534 -0.6473  1.1623
   83MOL   H29731621   7.791   4.366   3.167  0.0774  0.5269  1.0294
   83MOL   H29831622   7.751   4.228   3.256 -1.1217  1.1929 -1.0520
   83MOL   H29931623   0.144   4.319   3.350 -0.6622 -1.6128  0.7210
   83MOL   H30031624   0.257   4.283   3.208 -0.4374  1.7973  0.0508
   83MOL   H30131625   0.225   4.050   3.236  1.5858 -0.2303  1.1113
   83MOL   H30231626   0.084   4.069   3.318 -1.3463  0.8899  1.8167
   83MOL   H30331627   0.298   3.979   3.449 -0.4750 -0.3931  0.9897
   83MOL   H30431628   0.363   4.141   3.446  1.0295 -1.6092  0.5997
   83MOL   H30531629   0.224   4.113   3.538 -2.6130  0.7734 -0.8609
   83MOL   C30631630   7.637   4.089   2.965 -0.6250 -0.1460  0.3656
   83MOL   C30731631   7.569   4.031   3.096  0.4854 -0.1526 -0.1362
   83MOL   O30831632   7.499   3.911   3.043  0.4387  0.0289  0.1375
   83MOL   C30931633   7.527   3.795   3.104  0.3594  0.4991  0.5951
   83MOL   C31031634   7.654   3.733   3.061 -0.0722 -0.3290  0.1367
   83MOL   C31131635   7.684   3.584   3.083  0.5197  0.1123 -0.5095
   83MOL   C31231636   7.649   3.533   3.224  0.8951 -0.4315 -0.7013
   83MOL   H31331637   7.556   4.102   2.893 -2.0799  2.0392  2.2942
   83MOL   H31431638   7.695   4.003   2.933  0.3379  0.5233  0.3004
   83MOL   H31531639   7.654   4.003   3.157 -0.5482 -2.6632  0.2427
   83MOL   H31631640   7.459   3.712   3.084  1.8392 -0.8909  1.3050
   83MOL   H31731641   7.516   3.808   3.212  0.6075 -0.1348  0.6956
   83MOL   H31831642   7.739   3.779   3.112  0.1714 -1.1457  0.4687
   83MOL   H31931643   7.682   3.773   2.963  1.0207  0.3972  0.7293
   83MOL   H32031644   7.621   3.522   3.020  0.6127  0.0752 -0.5660
   83MOL   H32131645   7.789   3.564   3.062  0.3658 -0.5576 -0.6476
   83MOL   H32231646   7.541   3.544   3.238  0.7206 -1.7321 -0.9999
   83MOL   H32331647   7.708   3.586   3.299  1.3239 -1.3295 -0.4047
   83MOL   H32431648   7.683   3.431   3.236  0.6394 -0.4031  0.3391
   83MOL   C32531649   7.473   4.123   3.172  0.6534 -0.3355  0.4333
   83MOL   C32631650   7.393   4.054   3.284  0.3666 -0.7244  0.0606
   83MOL   O32731651   7.476   4.019   3.393 -0.0554  0.8678  0.3499
   83MOL   C32831652   7.440   3.913   3.478  0.5049 -0.5181  0.2495
   83MOL   C32931653   7.560   3.900   3.575 -0.0004 -0.1904  0.2040
   83MOL   C33031654   7.685   3.854   3.508 -0.0261 -0.0404 -0.3375
   83MOL   C33131655   0.002   3.889   3.595 -0.2453  0.3185 -0.5333
   83MOL   H33231656   7.391   4.155   3.107  0.3807  1.0161  1.4182
   83MOL   H33331657   7.525   4.216   3.196  1.7196 -0.4632 -1.2740
   83MOL   H33431658   7.346   3.968   3.235 -1.2278 -1.2595  2.4498
   83MOL   H33531659   7.423   3.818   3.427  2.1865  0.3455 -1.9995
   83MOL   H33631660   7.351   3.944   3.533  1.4595  1.2986  0.8194
   83MOL   H33731661   7.580   3.994   3.625  3.7836 -1.1121  0.5340
   83MOL   H33831662   7.527   3.834   3.655 -2.0576  0.2843 -0.2174
   83MOL   H33931663   7.682   3.910   3.415 -0.4985  0.8026  0.1760
   83MOL   H34031664   7.672   3.748   3.488 -1.6503 -0.9776  4.8704
   83MOL   H34131665   7.799   3.985   3.647  0.2144 -0.0296  0.1542
   83MOL   H34231666   0.099   3.873   3.548  0.0212  2.2867 -0.6965
   83MOL   H34331667   7.797   3.818   3.677 -2.4503 -0.7381 -1.5829
   83MOL   C34431668   7.277   4.139   3.343  0.2806 -0.8546  1.2584
   83MOL   C34531669   7.136   4.116   3.279 -0.0574  0.0015  0.1695
   83MOL   O34631670   7.125   4.185   3.149 -0.3563  0.3162  0.0229
   83MOL   C34731671   7.042   4.125   3.051 -0.9902 -0.3678  0.5132
   83MOL   C34831672   7.123   4.018   2.974  0.4577 -0.2459 -0.0549
   83MOL   C34931673   7.050   3.954   2.849 -0.1954 -0.5131  0.2388
   83MOL   C35031674   7.060   4.036   2.724 -0.0006 -0.2061  0.0821
   83MOL   H35131675   7.268   4.130   3.451  1.4269  1.6571  1.6070
   83MOL   H35231676   7.296   4.246   3.333 -1.4407 -0.7374 -1.0200
   83MOL   H35331677   7.134   4.007   3.273 -0.3698 -0.0765  1.4421
   83MOL   H35431678   7.028   4.204   2.977 -0.5169  1.6925  2.5771
   83MOL   H35531679   6.939   4.105   3.081 -1.0705 -1.5996 -0.5323
   83MOL   H35631680   7.141   3.934   3.041 -0.7162  1.3420  2.2882
   83MOL   H35731681   7.222   4.060   2.962  0.7500 -0.5110  1.3567
   83MOL   H35831682   7.098   3.857   2.834  2.2484  0.8381 -1.1034
   83MOL   H35931683   6.945   3.936   2.873 -0.2893 -1.5223 -0.8849
   83MOL   H36031684   7.029   4.138   2.749 -0.3986 -0.2016 -0.4245
   83MOL   H36131685   7.005   3.993   2.640  1.3669 -0.1443 -0.8605
   83MOL   H36231686   7.165   4.053   2.703  0.6068 -2.1581  1.3789
   83MOL   C36331687   7.029   4.179   3.380  0.8387  0.6424  0.1506
   83MOL   C36431688   6.879   4.141   3.345 -0.2731  0.5045  0.0588
   83MOL   O36531689   6.795   4.165   3.462 -0.2277 -0.1251  0.3291
   83MOL   C36631690   6.660   4.110   3.451  0.0147  0.0823  0.2328
   83MOL   C36731691   6.571   4.135   3.579  0.2016  0.1004 -0.6520
   83MOL   C36831692   6.479   4.019   3.613  0.6235 -0.3400 -0.5955
   83MOL   C36931693   6.543   3.885   3.654 -0.3815  0.4887  0.2184
   83MOL   H37031694   7.033   4.288   3.376  0.3955  0.6559  0.0167
   83MOL   H37131695   7.047   4.170   3.487 -1.8901  0.6903  0.6453
   83MOL   H37231696   6.880   4.041   3.302 -1.1551 -1.3592  4.0807
   83MOL   H37331697   6.670   4.009   3.412  0.8801  0.0282  0.6030
   83MOL   H37431698   6.618   4.168   3.368  0.1522  1.3606  1.0573
   83MOL   H37531699   6.513   4.223   3.551 -0.9994 -0.8096 -1.0807
   83MOL   H37631700   6.628   4.175   3.663  0.3205 -1.9619  0.2926
   83MOL   H37731701   6.407   3.999   3.534  0.4864 -0.1604 -0.5155
   83MOL   H37831702   6.416   4.056   3.693 -0.0986 -2.6332 -0.0671
   83MOL   H37931703   6.651   3.885   3.668 -0.1919  2.1618 -1.1002
   83MOL   H38031704   6.499   3.855   3.749 -1.2733 -2.2884 -1.0203
   83MOL   H38131705   6.537   3.804   3.581 -1.2726 -1.8324  2.8056
   83MOL   H38231706   6.839   4.207   3.268  2.6496  0.5242 -1.5060
   84MOL     C131707   4.925   7.240   2.765  0.4296 -0.1682  0.5731
   84MOL     C231708   5.017   7.343   2.704 -0.0957  1.0771 -0.4608
   84MOL     O331709   4.972   7.352   2.572 -0.2719 -0.3937 -0.3310
   84MOL     C431710   5.036   7.265   2.484  0.0047  0.6108 -0.3601
   84MOL     C531711   4.992   7.296   2.347 -0.1742 -0.4270  0.1670
   84MOL     C631712   5.095   7.266   2.234  0.2005  0.5317  0.5852
   84MOL     C731713   5.033   7.323   2.103  0.0218 -0.3196  0.1397
   84MOL     H831714   4.935   7.240   2.874 -0.0200 -0.4250  0.6131
   84MOL     H931715   4.821   7.263   2.741  0.9997 -0.6183 -2.5900
   84MOL    H1031716   5.119   7.309   2.717 -0.1404  1.6317  1.5236
   84MOL    H1131717   5.145   7.278   2.487  0.1065 -0.4858  1.4358
   84MOL    H1231718   5.017   7.159   2.501  2.8883  0.1058  0.0125
   84MOL    H1331719   4.966   7.402   2.352  2.8289  0.3157  0.8997
   84MOL    H1431720   4.901   7.239   2.328 -0.6733  0.1504  0.7837
   84MOL    H1531721   5.096   7.158   2.226  2.0560  0.5456  0.4286
   84MOL    H1631722   5.195   7.303   2.255 -0.2475  1.6767  0.7343
   84MOL    H1731723   5.100   7.299   2.020 -0.5511 -0.8834 -0.1558
   84MOL    H1831724   5.033   7.432   2.102  2.4536 -0.2687  1.8802
   84MOL    H1931725   4.932   7.292   2.078  0.0071  0.9164 -1.4247
   84MOL    H2031726   4.944   7.145   2.717  1.9210  2.1363 -3.6763
   84MOL    C2131727   5.000   7.481   2.768 -0.6999  0.3148  0.6048
   84MOL    C2231728   5.104   7.584   2.734  0.6057  0.5714 -0.0140
   84MOL    O2331729   5.231   7.532   2.778  0.2496 -0.4767 -0.0901
   84MOL    C2431730   5.284   7.572   2.906  0.2138  0.5094 -0.3041
   84MOL    C2531731   5.355   7.451   2.951  0.2923  0.8321 -0.2854
   84MOL    C2631732   5.417   7.467   3.091 -0.1936 -0.0935 -0.1292
   84MOL    C2731733   5.492   7.337   3.143  1.1011  0.0834  0.0762
   84MOL    H2831734   5.024   7.461   2.872  3.2893  0.7530 -0.1674
   84MOL    H2931735   4.900   7.525   2.763  0.4459  2.8440 -1.1029
   84MOL    H3031736   5.082   7.670   2.797  2.6197  0.8634  0.3256
   84MOL    H3131737   5.209   7.601   2.978 -0.0740 -0.2136 -0.3043
   84MOL    H3231738   5.351   7.655   2.886  0.0849  0.7342  0.1964
   84MOL    H3331739   5.294   7.360   2.949  2.2680 -0.5160 -3.8092
   84MOL    H3431740   5.434   7.429   2.879  0.0848  4.2977 -1.6815
   84MOL    H3531741   5.491   7.547   3.093  1.2608 -1.4146 -0.5297
   84MOL    H3631742   5.347   7.507   3.165  0.2658 -0.7449  0.6669
   84MOL    H3731743   5.527   7.338   3.246  1.7028 -1.1812 -0.1210
   84MOL    H3831744   5.428   7.249   3.140 -0.6571  1.2358  2.1241
   84MOL    H3931745   5.583   7.326   3.085 -0.1723 -1.6223 -1.6688
   84MOL    C4031746   5.106   7.618   2.581 -0.2759  0.3278  0.4327
   84MOL    C4131747   5.189   7.736   2.532 -0.4475  0.1278 -0.2210
   84MOL    O4231748   5.156   0.049   2.616  0.1596 -0.1964 -0.2797
   84MOL    C4331749   5.243   0.158   2.604 -0.0277  0.0231 -0.7499
   84MOL    C4431750   5.230   0.229   2.738 -0.3360 -0.1701 -0.1235
   84MOL    C4531751   5.285   0.144   2.857 -0.0179 -0.1946 -0.2008
   84MOL    C4631752   5.306   0.234   2.981  0.7112  0.2347  0.0356
   84MOL    H4731753   5.001   7.635   2.559 -0.1899 -0.3478 -0.5477
   84MOL    H4831754   5.130   7.534   2.516  3.2462  1.7900 -0.2418
   84MOL    H4931755   5.294   7.709   2.542 -0.9090 -2.0267 -0.8511
   84MOL    H5031756   5.210   0.214   2.517 -0.3534  0.8834 -0.0783
   84MOL    H5131757   5.348   0.135   2.590  0.3407  0.1963  1.4602
   84MOL    H5231758   5.125   0.244   2.763  0.0495  0.3334  1.1819
   84MOL    H5331759   5.288   0.321   2.729 -1.6511  0.9535  2.5803
   84MOL    H5431760   5.375   0.089   2.829 -0.9113 -1.1208 -1.3115
   84MOL    H5531761   5.215   0.062   2.870  1.2482 -1.6177 -2.1481
   84MOL    H5631762   5.384   0.308   2.969 -1.4615  2.2290 -2.4781
   84MOL    H5731763   5.217   0.290   3.008  0.5753  0.1878 -0.3119
   84MOL    H5831764   5.315   0.175   3.073  0.3682 -0.9727 -0.6819
   84MOL    C5931765   5.169   7.767   2.380  0.2831  0.2952 -0.3862
   84MOL    C6031766   5.034   0.037   2.358  0.0000 -0.3206 -0.2259
   84MOL    O6131767   5.043   0.128   2.250  1.0476 -0.4427 -0.5548
   84MOL    C6231768   5.016   0.262   2.269 -0.1401  0.6368  0.9060
   84MOL    C6331769   5.092   0.338   2.160  0.3097 -0.8312 -0.1129
   84MOL    C6431770   5.250   0.328   2.157 -0.4214 -0.0427  0.3026
   84MOL    C6531771   5.302   0.393   2.032  0.4489  0.3291  0.0564
   84MOL    H6631772   5.254   0.025   2.348 -1.2447  2.1483 -1.0887
   84MOL    H6731773   5.175   7.673   2.325  1.4716 -0.0002  0.2451
   84MOL    H6831774   5.015   0.091   2.451  0.1929  1.7690 -1.3659
   84MOL    H6931775   5.042   0.308   2.364 -0.2434  2.6493 -0.0151
   84MOL    H7031776   4.909   0.271   2.253 -0.1703  1.8271  1.7496
   84MOL    H7131777   5.049   0.309   2.064  1.2258 -0.6399 -0.5879
   84MOL    H7231778   5.066   0.444   2.167 -3.7735 -1.4984 -3.2926
   84MOL    H7331779   5.305   0.383   2.233  0.0132  0.3983 -0.3232
   84MOL    H7431780   5.287   0.226   2.160  2.5535  1.0290  2.9799
   84MOL    H7531781   5.287   0.335   1.941  2.0320 -0.7752  0.4635
   84MOL    H7631782   5.248   0.486   2.018 -0.6534 -0.4468 -0.9694
   84MOL    H7731783   5.409   0.415   2.026  0.9473 -1.7302  0.6474
   84MOL    C7831784   4.907   7.762   2.327 -0.4181 -0.0048 -0.1057
   84MOL    C7931785   4.771   0.015   2.379 -0.8706 -0.1826 -0.2162
   84MOL    O8031786   4.775   7.775   2.514  0.7586 -0.1433 -0.0998
   84MOL    C8131787   4.723   0.073   2.605 -0.4398 -0.3595 -0.0851
   84MOL    C8231788   4.831   0.173   2.650  0.0841 -0.1279 -0.2593
   84MOL    C8331789   4.768   0.287   2.730 -0.1264  0.4567 -0.2965
   84MOL    C8431790   4.868   0.376   2.785  0.5341  0.3140  0.5339
   84MOL    H8531791   4.917   7.654   2.343  2.8755  0.0429 -1.3423
   84MOL    H8631792   4.896   7.751   2.219 -1.0597 -3.3820  0.2335
   84MOL    H8731793   4.780   0.123   2.381 -1.1637 -0.1631  2.4587
   84MOL    H8831794   4.695   0.011   2.690 -4.3996 -0.7160 -1.5598
   84MOL    H8931795   4.634   0.128   2.573  0.6526  1.7607  0.3757
   84MOL    H9031796   4.898   0.110   2.707  1.4687  0.6061 -1.0566
   84MOL    H9131797   4.877   0.211   2.558  0.8857 -1.4908 -0.4224
   84MOL    H9231798   4.708   0.239   2.807 -0.1372  0.2932 -0.4063
   84MOL    H9331799   4.690   0.334   2.669 -0.5730 -0.4782 -0.4556
   84MOL    H9431800   4.942   0.329   2.849 -0.9463 -3.7113 -0.5544
   84MOL    H9531801   4.921   0.427   2.705 -0.9914  0.4273 -0.4153
   84MOL    H9631802   4.823   0.455   2.846  1.9418  0.4606  1.3964
   84MOL    C9731803   4.645   7.789   2.298 -0.5133 -0.1152  0.1888
   84MOL    C9831804   4.601   7.648   2.286 -0.3185 -0.1313  0.6819
   84MOL    O9931805   4.515   7.616   2.394  0.4663  0.4670 -0.1033
   84MOL   C10031806   4.559   7.533   2.506  0.3462 -0.4426  0.2228
   84MOL   C10131807   4.442   7.450   2.559  0.4010 -0.3868  0.0562
   84MOL   C10231808   4.490   7.376   2.676  0.3696 -0.0382  0.3615
   84MOL   C10331809   4.395   7.272   2.740 -0.1086  0.5047  0.5305
   84MOL   H10431810   4.660   0.033   2.200 -1.8075 -0.0583  0.0108
   84MOL   H10531811   4.573   0.054   2.347 -0.0292  0.4889  0.0931
   84MOL   H10631812   4.690   7.585   2.280 -0.4853 -0.4031  0.9849
   84MOL   H10731813   4.603   7.594   2.586  1.2682  0.6730 -1.1171
   84MOL   H10831814   4.646   7.476   2.477  1.6600  1.9585 -0.6803
   84MOL   H10931815   4.416   7.375   2.484  1.4375 -0.3543 -0.3486
   84MOL   H11031816   4.363   7.518   2.591  0.7832  0.5643 -0.9848
   84MOL   H11131817   4.527   7.442   2.754 -0.1318 -0.0796  0.6346
   84MOL   H11231818   4.573   7.313   2.643 -0.3212  0.3224 -2.1992
   84MOL   H11331819   4.373   7.186   2.676  0.7165  0.3620  0.4295
   84MOL   H11431820   4.417   7.230   2.838 -0.0421  1.0553  0.7513
   84MOL   H11531821   4.300   7.318   2.764  0.1925  1.2379  0.3466
   84MOL   C11631822   4.509   7.609   2.164  0.0228  0.0596 -0.0779
   84MOL   C11731823   4.508   7.450   2.132  0.0093  0.2651  0.6132
   84MOL   O11831824   4.437   7.446   2.006  0.5901 -0.4582  0.8021
   84MOL   C11931825   4.294   7.409   2.013  0.0655  0.2185 -0.0214
   84MOL   C12031826   4.226   7.486   1.902 -0.7126 -0.0592 -0.1158
   84MOL   C12131827   4.076   7.494   1.917 -0.2994  0.0392  0.2884
   84MOL   C12231828   4.000   7.525   1.787  0.2275  0.1406 -1.1441
   84MOL   H12331829   4.410   7.649   2.183  1.0120  1.3515  2.6244
   84MOL   H12431830   4.540   7.661   2.074 -1.9314  1.3360 -0.0321
   84MOL   H12531831   4.442   7.392   2.196 -1.8680 -0.4752 -1.9152
   84MOL   H12631832   4.248   7.443   2.106  0.6497  0.4265  0.1921
   84MOL   H12731833   4.274   7.302   2.003 -0.3893  0.3272 -0.3158
   84MOL   H12831834   4.249   7.437   1.807 -1.5418  0.3732 -0.5490
   84MOL   H12931835   4.278   7.580   1.914 -0.7392 -0.2075  1.1969
   84MOL   H13031836   4.017   7.416   1.966 -0.0621 -0.2404  0.1282
   84MOL   H13131837   4.066   7.568   1.997 -0.9546  1.5805 -1.1932
   84MOL   H13231838   4.035   7.481   1.694  4.3787  0.8436 -0.0452
   84MOL   H13331839   4.004   7.634   1.785 -0.5238  0.2228  0.4730
   84MOL   H13431840   3.897   7.490   1.795  0.4524  0.0102  2.2185
   84MOL   C13531841   4.641   7.376   2.118 -0.0521  0.5498  0.9014
   84MOL   C13631842   4.637   7.224   2.103  0.1547 -0.9007  0.3756
   84MOL   O13731843   4.560   7.169   2.209 -0.8096  0.3553  0.6458
   84MOL   C13831844   4.633   7.144   2.329  0.3403 -0.1309  0.4919
   84MOL   C13931845   4.533   7.074   2.426  0.6910  0.6664 -0.2250
   84MOL   C14031846   4.500   6.929   2.375  0.1107  0.7357 -0.0792
   84MOL   C14131847   4.416   6.848   2.469  0.3222  0.0746 -0.2696
   84MOL   H14231848   4.689   7.391   2.214 -0.9090  0.3610  1.3682
   84MOL   H14331849   4.705   7.424   2.043 -1.0559  0.3095 -0.1367
   84MOL   H14431850   4.731   7.171   2.121  0.8001  0.4021  0.8763
   84MOL   H14531851   4.666   7.243   2.360  2.2031 -0.7982  0.6833
   84MOL   H14631852   4.727   7.092   2.315  0.6471  0.4202  0.4825
   84MOL   H14731853   4.440   7.130   2.429  0.0148 -0.4119 -1.0525
   84MOL   H14831854   4.581   7.066   2.524 -1.7880 -1.3276  0.8556
   84MOL   H14931855   4.444   6.934   2.282 -2.9885  3.9794  1.8365
   84MOL   H15031856   4.589   6.868   2.359 -2.2130 -2.3870 -1.8052
   84MOL   H15131857   4.460   6.834   2.568  1.2428  1.5126 -0.4559
   84MOL   H15231858   4.332   6.914   2.490 -0.5106 -0.4648 -1.8465
   84MOL   H15331859   4.387   6.757   2.417 -0.8332  0.5596 -0.5033
   84MOL   C15431860   4.592   7.176   1.963  0.1441 -0.0186 -0.1780
   84MOL   C15531861   4.605   7.021   1.950 -0.0196 -0.1438  0.0880
   84MOL   O15631862   4.744   6.998   1.963  1.1420 -0.0103 -0.1897
   84MOL   C15731863   4.777   6.890   2.046 -0.1926  0.2114 -0.1836
   84MOL   C15831864   4.926   6.916   2.086 -0.7310 -0.5405 -0.2625
   84MOL   C15931865   5.030   6.883   1.984  0.3083 -0.2083  0.4972
   84MOL   C16031866   5.168   6.934   2.018 -0.2745  0.1391  0.0459
   84MOL   H16131867   4.657   7.221   1.888  0.8984 -1.5682 -0.4739
   84MOL   H16231868   4.485   7.194   1.951 -0.1817 -0.7169  1.5911
   84MOL   H16331869   4.552   6.977   2.035  1.7636  0.4610  1.5457
   84MOL   H16431870   4.718   6.871   2.135  0.8060 -1.3645  0.1499
   84MOL   H16531871   4.782   6.799   1.986  1.3674 -1.0742  1.8347
   84MOL   H16631872   4.942   6.853   2.173 -0.0342 -1.3000 -0.9445
   84MOL   H16731873   4.945   7.013   2.133  3.4643 -0.6356 -1.6363
   84MOL   H16831874   5.032   6.775   1.973 -0.5335  0.2112 -5.6876
   84MOL   H16931875   4.999   6.930   1.890  2.6547 -1.1934 -0.8142
   84MOL   H17031876   5.167   7.038   2.052 -1.5352  0.7174 -1.7172
   84MOL   H17131877   5.197   6.880   2.108 -2.7996 -1.7078 -0.2209
   84MOL   H17231878   5.238   6.916   1.936  0.0931 -1.6945  0.7497
   84MOL   C17331879   4.565   6.960   1.813 -0.4743 -0.0505  0.0717
   84MOL   C17431880   4.411   6.923   1.798 -0.2124 -0.3930  0.0653
   84MOL   O17531881   4.329   7.044   1.774 -0.2826  0.1468 -0.6450
   84MOL   C17631882   4.200   7.036   1.832  0.2935  0.8730 -0.1711
   84MOL   C17731883   4.100   7.137   1.770 -0.8713 -0.0323 -0.0084
   84MOL   C17831884   4.063   7.110   1.629  0.4856 -0.8961  0.4064
   84MOL   C17931885   4.014   7.235   1.553  0.0928 -0.0519 -0.8840
   84MOL   H18031886   4.627   6.872   1.797  0.5036  0.6572 -0.0727
   84MOL   H18131887   4.581   7.019   1.723 -1.8189 -1.2822 -1.0030
   84MOL   H18231888   4.377   6.877   1.890  0.9714  0.4137  0.9231
   84MOL   H18331889   4.208   7.059   1.938  0.4850  1.0293 -0.2205
   84MOL   H18431890   4.148   6.940   1.826  0.5118  0.8034 -0.9246
   84MOL   H18531891   4.158   7.230   1.765  1.1148 -1.1766  1.0240
   84MOL   H18631892   4.007   7.148   1.824 -1.9524 -0.3576 -1.7638
   84MOL   H18731893   4.156   7.084   1.578  0.3164  0.1567 -0.4773
   84MOL   H18831894   4.001   7.021   1.620 -0.7515  0.1879 -2.7972
   84MOL   H18931895   4.106   7.289   1.532 -0.2419  0.6032 -0.6743
   84MOL   H19031896   3.950   7.217   1.467  0.5776 -1.8068 -0.8999
   84MOL   H19131897   3.939   7.298   1.600 -0.4486  0.3007 -2.2147
   84MOL   C19231898   4.384   6.828   1.685 -0.0204 -0.3056 -0.8590
   84MOL   C19331899   4.464   6.701   1.676 -0.3824 -0.1181  0.1901
   84MOL   O19431900   4.459   6.647   1.803 -0.3680 -0.1064 -0.4650
   84MOL   C19531901   4.580   6.573   1.835 -0.2015 -0.6158 -0.3286
   84MOL   C19631902   4.551   6.513   1.967 -0.0402  0.2156  0.1425
   84MOL   C19731903   4.672   6.433   2.007 -0.2958 -0.4441  0.3382
   84MOL   C19831904   4.654   6.389   2.155 -0.4835 -0.0418 -0.5296
   84MOL   H19931905   4.385   6.882   1.591 -1.7132  0.5324 -0.4300
   84MOL   H20031906   4.279   6.803   1.702  0.0339 -0.2685 -0.4498
   84MOL   H20131907   4.566   6.722   1.646 -0.1596  0.6035  1.4311
   84MOL   H20231908   4.672   6.632   1.834 -0.6145  0.0570  0.6413
   84MOL   H20331909   4.605   6.502   1.757  2.0805 -1.3020  0.9818
   84MOL   H20431910   4.538   6.592   2.041 -1.7303 -0.5898  0.7304
   84MOL   H20531911   4.452   6.467   1.960 -0.2906  0.9881 -1.6170
   84MOL   H20631912   4.769   6.482   1.996 -0.4956 -0.1868 -0.2989
   84MOL   H20731913   4.673   6.339   1.953 -0.6196 -1.1525  1.5332
   84MOL   H20831914   4.724   6.310   2.182  0.3039  0.4375 -1.1403
   84MOL   H20931915   4.664   6.475   2.221 -1.0953  1.0435 -1.8343
   84MOL   H21031916   4.556   6.353   2.185  0.2123  1.2262  3.5468
   84MOL   C21131917   4.406   6.594   1.571 -0.2978 -0.5151 -0.2495
   84MOL   C21231918   4.430   6.628   1.419 -0.2014 -0.8174  0.3857
   84MOL   O21331919   4.448   6.494   1.356  0.0173  0.7356 -0.5077
   84MOL   C21431920   4.539   6.499   1.246  0.7811 -0.2272  0.1539
   84MOL   C21531921   4.563   6.361   1.190  0.0527 -0.5240 -0.4964
   84MOL   C21631922   4.650   6.361   1.064 -0.4813 -0.5453  0.3277
   84MOL   C21731923   4.688   6.214   1.025 -0.5556  0.3616  0.6629
   84MOL   H21831924   4.302   6.570   1.592 -0.2400  0.8250  1.7369
   84MOL   H21931925   4.451   6.499   1.597 -0.6105 -0.1234  1.8006
   84MOL   H22031926   4.527   6.678   1.418 -2.0033  2.8657  2.6376
   84MOL   H22131927   4.503   6.561   1.164  0.8311 -2.1772 -1.3620
   84MOL   H22231928   4.635   6.548   1.265  0.0215  0.5611  2.0976
   84MOL   H22331929   4.610   6.297   1.265 -0.4149 -2.9285 -2.1828
   84MOL   H22431930   4.469   6.313   1.162  0.7728 -1.4227 -1.4208
   84MOL   H22531931   4.741   6.414   1.090  0.1777 -0.8324 -1.3268
   84MOL   H22631932   4.611   6.408   0.974  0.2002 -1.3490 -0.4022
   84MOL   H22731933   4.742   6.155   1.100  1.4230 -0.6536 -1.4650
   84MOL   H22831934   4.756   6.219   0.940 -1.5468  0.7506 -0.1098
   84MOL   H22931935   4.594   6.171   0.992 -0.0849 -0.4004  0.2866
   84MOL   C23031936   4.315   6.706   1.348  0.0622  0.0479  0.2450
   84MOL   C23131937   4.356   6.848   1.302  0.3466 -0.3238  0.2233
   84MOL   O23231938   4.435   6.842   1.184 -0.0303  0.3153 -0.0592
   84MOL   C23331939   4.561   6.897   1.208 -0.4444 -0.3284 -0.0211
   84MOL   C23431940   4.626   6.929   1.067 -0.0153  0.4654 -0.4955
   84MOL   C23531941   4.654   6.804   0.982  0.8091 -1.1967 -1.0369
   84MOL   C23631942   4.717   6.836   0.850  0.6420 -0.6517 -0.1541
   84MOL   H23731943   4.235   6.720   1.421  0.8333 -1.9562  1.5185
   84MOL   H23831944   4.283   6.654   1.257 -0.4440  1.0959 -0.1911
   84MOL   H23931945   4.410   6.895   1.385  1.2908 -1.4183  0.2536
   84MOL   H24031946   4.545   6.994   1.255  1.6386  1.3464 -2.5622
   84MOL   H24131947   4.609   6.819   1.267 -1.5698 -0.8330  0.2358
   84MOL   H24231948   4.572   7.005   1.010 -0.4548  1.5628  1.3444
   84MOL   H24331949   4.724   6.973   1.088  0.9626 -0.9192 -2.0205
   84MOL   H24431950   4.571   6.735   0.965 -2.1816  2.3329 -1.3135
   84MOL   H24531951   4.720   6.738   1.039  2.0403  0.8089 -0.0974
   84MOL   H24631952   4.644   6.851   0.770  1.2723 -3.7558 -1.4065
   84MOL   H24731953   4.770   6.746   0.819 -1.8794 -2.4483  0.6087
   84MOL   H24831954   4.797   6.910   0.849 -0.1684  0.2379 -0.3449
   84MOL   C24931955   4.231   6.932   1.274  0.0448 -0.2601  0.0023
   84MOL   C25031956   4.258   7.083   1.245 -0.8659 -0.0299  0.4913
   84MOL   O25131957   4.283   7.150   1.369 -0.2038 -0.3918 -0.3335
   84MOL   C25231958   4.400   7.229   1.375  0.0968 -0.2814 -0.3593
   84MOL   C25331959   4.420   7.300   1.502 -0.6102  0.0247 -0.0479
   84MOL   C25431960   4.558   7.369   1.520  0.0140 -0.1421  0.3772
   84MOL   C25531961   4.568   7.446   1.657 -0.0234 -0.9168 -0.2748
   84MOL   H25631962   4.163   6.930   1.360 -0.7348  0.4103 -0.5973
   84MOL   H25731963   4.178   6.878   1.196 -0.9777 -1.8206  1.7234
   84MOL   H25831964   4.349   7.088   1.185 -0.8436  2.5639  0.6901
   84MOL   H25931965   4.402   7.296   1.289  0.6359  0.9097  0.5641
   84MOL   H26031966   4.486   7.162   1.371  0.2210 -0.1908  0.8516
   84MOL   H26131967   4.342   7.376   1.514 -1.7516 -1.2228  0.5320
   84MOL   H26231968   4.414   7.237   1.591 -1.3717 -1.4196 -1.1170
   84MOL   H26331969   4.635   7.292   1.506 -1.0820 -1.0767 -0.6329
   84MOL   H26431970   4.565   7.442   1.439  0.5455  0.9171  1.3624
   84MOL   H26531971   4.556   7.388   1.748  0.2994  2.1318  1.7613
   84MOL   H26631972   4.495   7.527   1.661  0.5302 -0.3156 -1.8287
   84MOL   H26731973   4.663   7.496   1.673 -0.4053 -0.3279  0.1493
   84MOL   C26831974   4.142   7.152   1.165 -0.0680  0.2411  0.2590
   84MOL   C26931975   4.154   7.295   1.104 -0.1447  0.2410  0.1522
   84MOL   O27031976   4.045   7.311   1.016  0.0604 -0.5458  0.2160
   84MOL   C27131977   4.061   7.279   0.877  0.4065  0.2466  0.0664
   84MOL   C27231978   3.946   7.302   0.782 -0.4234 -0.0736  0.4568
   84MOL   C27331979   3.911   7.451   0.791  0.2624 -0.6727  0.8678
   84MOL   C27431980   3.819   7.486   0.668 -0.5139  0.5205  0.3976
   84MOL   H27531981   4.118   7.090   1.079  1.3621  0.5832 -0.4040
   84MOL   H27631982   4.054   7.145   1.229 -0.2653  1.6105  0.1571
   84MOL   H27731983   4.252   7.311   1.059 -1.2061 -2.1654 -3.2325
   84MOL   H27831984   4.151   7.331   0.843  0.6064 -0.4143 -0.4386
   84MOL   H27931985   4.098   7.176   0.875 -1.3470 -0.4222  1.3833
   84MOL   H28031986   3.980   7.272   0.683  1.6126 -0.2839  1.1942
   84MOL   H28131987   3.858   7.242   0.807 -0.6104 -0.3416 -0.8131
   84MOL   H28231988   4.010   7.497   0.779 -1.7641  3.4604 -1.1703
   84MOL   H28331989   3.856   7.489   0.876 -1.9076  1.7568 -1.5155
   84MOL   H28431990   3.873   7.451   0.580  0.7213 -2.3876  2.2377
   84MOL   H28531991   3.785   7.590   0.665  0.8693  0.9735  0.2092
   84MOL   H28631992   3.724   7.433   0.666 -0.0233 -0.3629  0.1178
   84MOL   C28731993   4.131   7.413   1.205 -0.4661 -0.3832 -0.2400
   84MOL   C28831994   4.198   7.548   1.181 -0.5880 -0.2373  0.3261
   84MOL   O28931995   4.150   7.627   1.282  0.2534  0.1248  0.3837
   84MOL   C29031996   4.227   7.654   1.385 -0.2150 -0.6659 -0.6898
   84MOL   C29131997   4.152   7.716   1.498  0.9260 -0.1121 -0.1804
   84MOL   C29231998   4.092   0.050   1.460 -0.9010  0.2249  0.6382
   84MOL   C29331999   4.018   0.119   1.581 -0.1425 -0.1785 -1.2077
   84MOL   H29432000   4.159   7.376   1.303 -0.7793 -0.4194 -0.1619
   84MOL   H29532001   4.025   7.437   1.214  0.5331  3.6671  1.8220
   84MOL   H29632002   4.306   7.537   1.185 -0.5954 -0.8692 -0.9904
   84MOL   H29732003   4.286   7.567   1.415 -2.0690 -1.1307  1.8045
   84MOL   H29832004   4.290   7.731   1.340 -1.2125  1.2632  1.1075
   84MOL   H29932005   4.210   7.720   1.590 -2.6683 -0.9481  2.2619
   84MOL   H30032006   4.073   7.645   1.526  0.9294  0.0812  0.3287
   84MOL   H30132007   4.011   0.033   1.389  0.6681 -1.9779 -0.6736
   84MOL   H30232008   4.168   0.115   1.416 -1.8754  0.6072 -0.5353
   84MOL   H30332009   3.957   0.205   1.552  0.7504  0.4463 -1.2518
   84MOL   H30432010   3.947   0.047   1.622  0.0116 -0.2629 -1.0924
   84MOL   H30532011   4.096   0.145   1.652 -1.3410  0.7953 -0.2133
   84MOL   C30632012   4.167   7.615   1.040  0.7208  0.0323  0.0842
   84MOL   C30732013   4.248   7.732   0.995 -0.3047  0.3479  0.4837
   84MOL   O30832014   4.170   7.787   0.884  0.7747 -0.3483 -0.0870
   84MOL   C30932015   4.113   0.117   0.899 -0.5797  0.0721  0.8433
   84MOL   C31032016   4.012   0.140   0.784  0.3522  0.2185  0.7515
   84MOL   C31132017   4.104   0.167   0.657 -0.3680 -0.4992 -0.7365
   84MOL   C31232018   4.014   0.200   0.532 -0.0747  0.2723 -0.0060
   84MOL   H31332019   4.179   7.543   0.959  2.5531  0.3080  0.0994
   84MOL   H31432020   4.062   7.639   1.054  0.6296  0.4277 -1.2207
   84MOL   H31532021   4.259   0.006   1.074  2.6688 -0.3195  0.7587
   84MOL   H31632022   4.200   0.181   0.906  0.6087 -1.3040 -0.7282
   84MOL   H31732023   4.069   0.115   0.998  0.2449 -1.9145  1.1905
   84MOL   H31832024   3.947   0.226   0.793  0.8125  0.4656  1.7309
   84MOL   H31932025   3.934   0.064   0.777  0.5872  0.0065  0.3406
   84MOL   H32032026   4.154   0.262   0.676  0.4021 -1.4060  2.0444
   84MOL   H32132027   4.183   0.095   0.633  0.9268  0.4629  0.5558
   84MOL   H32232028   3.984   0.099   0.505 -0.2216  0.3245 -0.0395
   84MOL   H32332029   4.064   0.249   0.449  1.7977 -2.3049 -0.4649
   84MOL   H32432030   3.924   0.257   0.553 -1.4681 -1.1651 -1.8672
   84MOL   C32532031   4.381   7.688   0.939  0.9644  0.1297  0.7979
   84MOL   C32632032   4.498   7.777   0.979 -1.1115  0.5120 -0.6150
   84MOL   O32732033   4.504   7.759   1.123  0.0724 -1.1455 -0.2740
   84MOL   C32832034   4.572   0.063   1.200  0.6005  0.5410  0.4111
   84MOL   C32932035   4.707   0.017   1.249  0.2767 -0.6192 -0.4246
   84MOL   C33032036   4.699   7.687   1.329  0.0075 -1.1512  0.6703
   84MOL   C33132037   4.824   7.656   1.405 -0.4914  0.8094 -0.0669
   84MOL   H33232038   4.379   7.676   0.830  2.4599  1.0709  0.6577
   84MOL   H33332039   4.412   7.589   0.969 -1.4994 -1.3630 -1.3520
   84MOL   H33432040   4.469   0.077   0.954 -1.5376  0.8839  1.2649
   84MOL   H33532041   4.508   0.079   1.287  0.5847 -3.2718  1.2021
   84MOL   H33632042   4.582   0.161   1.154 -3.1360  1.0283  0.4776
   84MOL   H33732043   4.768   0.004   1.160  0.9478  0.8540 -0.1754
   84MOL   H33832044   4.749   0.098   1.307  0.1599 -0.4713 -0.5473
   84MOL   H33932045   4.682   7.601   1.264  1.0402 -0.1274 -1.0027
   84MOL   H34032046   4.621   7.684   1.405  0.3298  0.9749  1.1293
   84MOL   H34132047   4.905   7.655   1.332  0.0918  2.3126  0.5453
   84MOL   H34232048   4.812   7.554   1.441 -0.5613  1.8292  2.9414
   84MOL   H34332049   4.839   7.715   1.495 -3.7983  0.1275  0.9799
   84MOL   C34432050   4.626   7.726   0.910 -0.1544  0.2575 -0.0681
   84MOL   C34532051   4.723   0.037   0.881  1.2036 -0.4476 -0.1601
   84MOL   O34632052   4.665   0.144   0.811 -0.1313  0.1121 -0.0537
   84MOL   C34732053   4.681   0.277   0.869  0.5667 -0.5145  0.1423
   84MOL   C34832054   4.614   0.385   0.796 -0.1981  0.6183  0.1320
   84MOL   C34932055   4.457   0.368   0.795  0.0823  0.3209 -0.1424
   84MOL   C35032056   4.366   0.493   0.778 -0.1176  0.0284 -0.0911
   84MOL   H35132057   4.672   7.645   0.966  0.9498  0.6366 -0.4054
   84MOL   H35232058   4.598   7.693   0.810 -1.1477  1.0797 -0.0808
   84MOL   H35332059   4.743   0.081   0.979  3.0228  0.3720 -0.8840
   84MOL   H35432060   4.788   0.299   0.874  0.3074  1.1390 -1.3998
   84MOL   H35532061   4.634   0.284   0.967 -1.4449  3.2051 -1.0161
   84MOL   H35632062   4.648   0.387   0.693 -2.4487 -2.7508 -0.7683
   84MOL   H35732063   4.640   0.485   0.833  1.7453  0.4583 -0.7553
   84MOL   H35832064   4.439   0.292   0.718 -0.0427 -0.7558  0.9460
   84MOL   H35932065   4.419   0.320   0.885 -0.9306  3.5735  1.2663
   84MOL   H36032066   4.401   0.542   0.688 -0.2031 -0.2254 -0.2620
   84MOL   H36132067   4.367   0.553   0.870  2.0430 -2.2850  1.4698
   84MOL   H36232068   4.265   0.457   0.757 -0.5742  0.6978  0.9039
   84MOL   C36332069   4.862   7.799   0.820 -0.5250  0.4543  0.0385
   84MOL   C36432070   4.937   7.706   0.911  0.1992  0.2372  0.0425
   84MOL   O36532071   5.060   7.687   0.845 -0.6801  0.5523 -0.2158
   84MOL   C36632072   5.155   7.619   0.932  0.2887 -0.0330  0.1889
   84MOL   C36732073   5.304   7.628   0.875 -0.2242 -0.0830  0.1565
   84MOL   C36832074   5.344   7.770   0.842  0.2404  0.0821 -0.4114
   84MOL   C36932075   5.478   7.773   0.776  0.1670 -0.3898  0.1904
   84MOL   H37032076   4.916   0.092   0.817 -1.2865  0.9211  0.8417
   84MOL   H37132077   4.859   7.766   0.716 -1.9825  2.2322 -0.4983
   84MOL   H37232078   4.886   7.610   0.907 -0.3361  0.4320  2.0062
   84MOL   H37332079   5.124   7.514   0.941 -0.4272  0.2183  0.6890
   84MOL   H37432080   5.152   7.658   1.033 -2.7586 -0.6236  0.3698
   84MOL   H37532081   5.316   7.577   0.780 -1.0420  2.1830 -1.2019
   84MOL   H37632082   5.369   7.584   0.951  0.4603  0.9715  0.2010
   84MOL   H37732083   5.340   0.023   0.937 -1.4157 -0.1208 -0.3492
   84MOL   H37832084   5.278   0.024   0.775 -1.2217 -0.6799  0.3723
   84MOL   H37932085   5.466   7.733   0.675 -0.2445  0.1337  0.0294
   84MOL   H38032086   5.526   0.069   0.780 -1.9123  0.7653 -1.6807
   84MOL   H38132087   5.547   7.707   0.828 -2.6387 -1.7582  2.3156
   84MOL   H38232088   4.947   7.750   1.010 -2.4794  0.1038  0.4018
   85MOL     C132089   3.611   1.537   4.799  0.4305  0.6190  1.0183
   85MOL     C232090   3.618   1.693   4.809 -0.1217 -0.9038  0.2616
   85MOL     O332091   3.559   1.731   4.685  0.2923  0.0353 -0.0816
   85MOL     C432092   3.654   1.756   4.587 -0.2089 -0.1804  0.5730
   85MOL     C532093   3.689   1.901   4.574 -0.5367  0.4836 -0.0169
   85MOL     C632094   3.760   1.942   4.443  0.2627 -0.3311 -0.2574
   85MOL     C732095   3.752   2.095   4.403 -1.0764  0.8533 -0.2348
   85MOL     H832096   3.633   1.501   4.900 -0.2806 -2.6749  0.0444
   85MOL     H932097   3.517   1.502   4.758  0.4949  2.2947 -0.6255
   85MOL    H1032098   3.721   1.725   4.825 -0.7240  0.5827  1.3365
   85MOL    H1132099   3.741   1.692   4.607  2.2981  3.6118  2.5220
   85MOL    H1232100   3.614   1.718   4.494  1.0148  2.3167 -1.0284
   85MOL    H1332101   3.741   1.925   4.667  0.7547  0.6626 -0.7673
   85MOL    H1432102   3.593   1.950   4.561 -0.1781  0.2727 -4.1097
   85MOL    H1532103   3.714   1.894   4.357 -3.1228 -1.6119  2.1684
   85MOL    H1632104   3.862   1.905   4.457  0.1962  0.1222  1.6094
   85MOL    H1732105   3.661   2.127   4.453  0.3086  1.1767  2.1361
   85MOL    H1832106   3.754   2.113   4.295  1.2553 -2.1243 -0.7600
   85MOL    H1932107   3.844   2.139   4.443  1.0325 -2.2879 -1.4046
   85MOL    H2032108   3.679   1.508   4.719 -2.8863  0.2485 -1.7617
   85MOL    C2132109   3.531   1.747   4.929 -0.1748 -0.4506 -0.1517
   85MOL    C2232110   3.535   1.898   4.948  0.7803  0.4585  0.7093
   85MOL    O2332111   3.436   1.924   5.049 -0.3611 -0.1162  0.5412
   85MOL    C2432112   3.310   1.970   4.994 -0.2116 -0.6096  0.6678
   85MOL    C2532113   3.201   2.013   5.096 -0.1516 -0.0375 -0.8464
   85MOL    C2632114   3.166   1.892   5.191  0.8401 -0.3541 -0.3737
   85MOL    C2732115   3.094   1.942   5.317 -0.4810 -0.5201  0.5086
   85MOL    H2832116   3.569   1.697   5.018  1.3555 -1.1271 -1.1454
   85MOL    H2932117   3.428   1.718   4.913 -0.2579  0.6773 -1.7852
   85MOL    H3032118   3.502   1.946   4.856  1.9800  0.8037  0.4434
   85MOL    H3132119   3.280   1.886   4.932  2.4097 -1.1529  0.0521
   85MOL    H3232120   3.330   2.056   4.930  0.8936 -0.7843  0.7625
   85MOL    H3332121   3.232   2.097   5.158  1.5402 -2.6609  1.9806
   85MOL    H3432122   3.116   2.051   5.040 -0.0492  1.9500  0.3181
   85MOL    H3532123   3.102   1.820   5.140 -0.3610 -0.2956  1.0400
   85MOL    H3632124   3.256   1.836   5.215  0.7045  0.2239  1.5229
   85MOL    H3732125   3.075   1.850   5.372  1.7487 -0.3423  1.6448
   85MOL    H3832126   3.161   2.002   5.379 -0.1437 -1.9169  1.5127
   85MOL    H3932127   3.012   2.009   5.293  0.7141  0.4382 -1.0067
   85MOL    C4032128   3.667   1.957   5.004  0.3776 -0.2118 -0.3623
   85MOL    C4132129   3.665   2.111   5.003  0.1535 -0.0296  0.2933
   85MOL    O4232130   3.679   2.163   4.874  0.1445 -0.0635 -0.3785
   85MOL    C4332131   3.593   2.274   4.834  0.4285  0.0878 -1.2558
   85MOL    C4432132   3.639   2.321   4.692  1.0786 -0.3669  0.1447
   85MOL    C4532133   3.516   2.379   4.619  0.0840 -0.4472 -0.7662
   85MOL    C4632134   3.528   2.409   4.471 -0.1434 -0.2920 -1.5764
   85MOL    H4732135   3.753   1.922   4.946  2.5562  2.0460  1.3949
   85MOL    H4832136   3.674   1.913   5.104 -2.0603 -0.4364 -0.2643
   85MOL    H4932137   3.564   2.125   5.043 -0.3719 -1.9495 -0.2848
   85MOL    H5032138   3.592   2.363   4.897 -3.1678 -0.5289 -0.3486
   85MOL    H5132139   3.498   2.224   4.850  1.5582 -1.7898 -0.1847
   85MOL    H5232140   3.679   2.236   4.636  0.7313 -1.1851  1.1298
   85MOL    H5332141   3.716   2.397   4.701  0.2843  0.7109 -1.6888
   85MOL    H5432142   3.486   2.470   4.673  1.5089 -1.3760  1.6914
   85MOL    H5532143   3.425   2.323   4.641  0.5534 -0.8564  0.1765
   85MOL    H5632144   3.441   2.464   4.436 -1.2269 -1.8014 -1.2941
   85MOL    H5732145   3.605   2.483   4.448 -0.8522  0.4575 -1.5571
   85MOL    H5832146   3.533   2.317   4.413  0.6995 -0.9450 -0.4770
   85MOL    C5932147   3.780   2.166   5.084 -0.5605  0.6722 -0.8149
   85MOL    C6032148   3.756   2.308   5.146  0.0851 -0.0150  0.5587
   85MOL    O6132149   3.655   2.297   5.239 -0.0123  0.8662  0.1264
   85MOL    C6232150   3.551   2.392   5.221 -0.3623  0.3705  0.0172
   85MOL    C6332151   3.415   2.366   5.299 -0.5761 -1.0659 -0.0849
   85MOL    C6432152   3.416   2.408   5.447  0.1152  0.0705 -0.2033
   85MOL    C6532153   3.276   2.445   5.497 -0.4545  0.7548  0.3151
   85MOL    H6632154   3.798   2.097   5.167 -2.4859  0.1675 -0.7888
   85MOL    H6732155   3.871   2.169   5.024  0.6421  1.7801  1.0239
   85MOL    H6832156   3.741   2.380   5.066  0.6821 -0.9947 -0.4508
   85MOL    H6932157   3.516   2.395   5.118  1.9505  1.3362 -0.7597
   85MOL    H7032158   3.589   2.493   5.240 -1.6750  0.9838 -0.5084
   85MOL    H7132159   3.341   2.434   5.256 -0.9878 -2.3787 -1.4876
   85MOL    H7232160   3.368   2.268   5.287 -0.7612 -1.4461  3.0900
   85MOL    H7332161   3.468   2.331   5.503 -1.8464 -0.7389  0.5823
   85MOL    H7432162   3.487   2.490   5.452  0.5050 -0.2666 -0.2647
   85MOL    H7532163   3.233   2.512   5.423 -0.5393  1.7537  1.2526
   85MOL    H7632164   3.211   2.358   5.499 -0.2516  0.6026  0.2794
   85MOL    H7732165   3.291   2.490   5.595  1.5207  2.1052 -0.5614
   85MOL    C7832166   3.872   2.340   5.236 -0.3888 -0.3610 -0.5841
   85MOL    C7932167   3.877   2.479   5.302  0.6381 -0.4569 -0.1894
   85MOL    O8032168   4.006   2.543   5.285  0.1520  0.4898  0.3650
   85MOL    C8132169   4.031   2.597   5.168 -0.0589  0.0628 -0.2507
   85MOL    C8232170   4.170   2.651   5.185 -0.6352  0.5447 -0.0207
   85MOL    C8332171   4.207   2.733   5.308  0.1604  0.3012 -0.2769
   85MOL    C8432172   4.155   2.875   5.302 -0.8020  0.0474 -0.6651
   85MOL    H8532173   3.969   2.330   5.187  0.0247 -0.2541  0.1986
   85MOL    H8632174   3.874   2.262   5.313 -1.0648 -1.8037 -2.0183
   85MOL    H8732175   3.813   2.543   5.242  2.2933  2.5824  1.1629
   85MOL    H8832176   3.960   2.677   5.142  1.3742  1.5290  0.2640
   85MOL    H8932177   4.021   2.528   5.084 -1.2704  1.1686 -1.0315
   85MOL    H9032178   4.225   2.557   5.196 -0.9591  0.5137  1.4959
   85MOL    H9132179   4.210   2.710   5.102  0.1602 -2.5799 -1.9558
   85MOL    H9232180   4.316   2.731   5.307  0.1769  1.0209  0.2870
   85MOL    H9332181   4.170   2.685   5.399 -0.0808 -1.0003 -1.0506
   85MOL    H9432182   4.213   2.934   5.232 -0.9350 -0.0014 -0.8164
   85MOL    H9532183   4.048   2.892   5.290 -0.4902  1.6453 -1.2969
   85MOL    H9632184   4.182   2.928   5.394  1.1909 -1.6601 -0.2253
   85MOL    C9732185   3.823   2.483   5.451  0.0387  0.3824  0.1184
   85MOL    C9832186   3.788   2.617   5.524  0.7716 -0.8089  1.2029
   85MOL    O9932187   3.691   2.693   5.452  0.0615  0.2788 -0.7668
   85MOL   C10032188   3.734   2.821   5.421 -0.0288 -0.0975 -0.4681
   85MOL   C10132189   3.631   2.888   5.335  0.6453  0.8642  0.3540
   85MOL   C10232190   3.670   3.029   5.284 -0.1479  0.0098  0.4656
   85MOL   C10332191   3.570   3.099   5.186  0.7512 -0.2015 -0.0936
   85MOL   H10432192   3.901   2.433   5.508  0.0843 -0.2999 -0.5498
   85MOL   H10532193   3.731   2.425   5.455  0.5462 -0.3508  1.2920
   85MOL   H10632194   3.884   2.669   5.532  1.8806 -2.9300  1.9046
   85MOL   H10732195   3.828   2.818   5.367 -0.5537 -2.4437 -1.3073
   85MOL   H10832196   3.749   2.880   5.512 -0.4910  0.1006 -0.5178
   85MOL   H10932197   3.540   2.891   5.396  0.8820  2.9390  0.6512
   85MOL   H11032198   3.614   2.816   5.255 -2.4329  0.0632  1.6394
   85MOL   H11132199   3.757   3.018   5.219 -1.3192  1.2153 -1.3556
   85MOL   H11232200   3.683   3.102   5.364  0.2405  3.0079 -2.2165
   85MOL   H11332201   3.479   3.122   5.242  2.1521  1.1333  1.6949
   85MOL   H11432202   3.623   3.187   5.148 -0.8644  0.4929 -0.8268
   85MOL   H11532203   3.545   3.029   5.107  1.8956  0.4458 -1.0467
   85MOL   C11632204   3.716   2.601   5.660 -0.2617 -0.0437  0.4890
   85MOL   C11732205   3.806   2.569   5.783  0.2082 -0.5432 -0.0836
   85MOL   O11832206   3.895   2.674   5.813  0.4861  0.2414  0.2272
   85MOL   C11932207   4.028   2.644   5.795 -0.1240  0.1207 -0.1185
   85MOL   C12032208   4.106   2.765   5.826  0.2295 -0.0864 -0.3895
   85MOL   C12132209   4.114   2.863   5.712 -0.2026  0.0717  0.5169
   85MOL   C12232210   4.152   3.016   5.739  0.3498  0.5655  0.5193
   85MOL   H12332211   3.663   2.692   5.688 -2.4735 -0.3088 -2.5494
   85MOL   H12432212   3.634   2.532   5.642 -0.2932 -0.2532  1.4388
   85MOL   H12532213   3.854   2.475   5.758  0.8803 -0.9759  2.7065
   85MOL   H12632214   4.049   2.597   5.699 -2.5266 -4.0963  1.2569
   85MOL   H12732215   4.062   2.577   5.875  0.2770  1.6216  0.9907
   85MOL   H12832216   4.206   2.728   5.847  1.1749  0.9749 -2.8894
   85MOL   H12932217   4.063   2.821   5.909  1.7524 -1.4406  1.3634
   85MOL   H13032218   4.167   2.831   5.622 -0.5310  0.0514  0.3302
   85MOL   H13132219   4.011   2.866   5.675  0.4032  1.0844 -1.1634
   85MOL   H13232220   4.127   3.072   5.649 -1.2460  0.8039  1.0905
   85MOL   H13332221   4.255   3.025   5.774  1.1535  1.2089 -1.9577
   85MOL   H13432222   4.086   3.054   5.818 -3.1068 -0.0008 -1.9924
   85MOL   C13532223   3.723   2.552   5.910 -1.1843  0.1810 -0.0766
   85MOL   C13632224   3.818   2.523   6.029 -0.1670  0.5032 -0.7659
   85MOL   O13732225   3.738   2.527   6.146 -0.1684  0.9093  0.0539
   85MOL   C13832226   3.721   2.655   6.213  0.1609 -0.4187  0.5040
   85MOL   C13932227   3.643   2.621   6.339  0.5257  0.5867  0.4610
   85MOL   C14032228   3.695   2.517   6.436 -1.0275  0.3824  0.5274
   85MOL   C14132229   3.624   2.530   6.574 -0.4495  1.0339 -0.3986
   85MOL   H14232230   3.648   2.475   5.903 -2.0161  0.9574  0.1800
   85MOL   H14332231   3.667   2.644   5.927 -2.5363 -0.9876  2.0205
   85MOL   H14432232   3.894   2.599   6.043 -0.5122  0.9735 -1.3910
   85MOL   H14532233   3.684   2.718   6.132  0.9685 -1.3266 -0.5893
   85MOL   H14632234   3.819   2.699   6.229 -0.3639  0.2298  1.9524
   85MOL   H14732235   3.538   2.604   6.315  0.1402  0.3904  2.2698
   85MOL   H14832236   3.638   2.717   6.391  0.5362 -0.2828  2.0884
   85MOL   H14932237   3.673   2.418   6.395 -1.8573  0.0330  1.7967
   85MOL   H15032238   3.804   2.523   6.441 -1.0029  0.4907 -0.0294
   85MOL   H15132239   3.516   2.531   6.559 -0.6687 -1.1576  0.8793
   85MOL   H15232240   3.649   2.445   6.638  1.8214 -0.1092 -2.6977
   85MOL   H15332241   3.652   2.618   6.632  0.6788  1.4859 -1.6190
   85MOL   C15432242   3.875   2.381   6.028  0.1661  0.9720 -0.8037
   85MOL   C15532243   3.957   2.345   6.156 -0.0380  0.0993 -0.2516
   85MOL   O15632244   4.069   2.434   6.163 -0.0556  0.5210  0.5162
   85MOL   C15732245   4.086   2.501   6.283 -0.8001 -0.3812  0.1560
   85MOL   C15832246   4.234   2.542   6.293  0.5190 -0.0264 -0.0545
   85MOL   C15932247   4.333   2.433   6.319 -0.4854 -0.3815 -0.4126
   85MOL   C16032248   4.481   2.463   6.320 -0.3593 -0.5296  0.0088
   85MOL   H16132249   3.934   2.369   5.938  0.4833 -1.7594 -0.2986
   85MOL   H16232250   3.794   2.309   6.015  0.1053  0.5890  1.4211
   85MOL   H16332251   3.886   2.359   6.238  1.1083 -1.2940  0.9928
   85MOL   H16432252   4.021   2.588   6.284 -1.7719 -1.1028  1.3063
   85MOL   H16532253   4.064   2.454   6.379 -1.3458 -0.4509 -0.0050
   85MOL   H16632254   4.246   2.617   6.372  1.6999 -0.7298  0.4530
   85MOL   H16732255   4.265   2.599   6.205 -1.4303  1.3464  0.1296
   85MOL   H16832256   4.310   2.395   6.418 -0.4458  0.4238 -0.0943
   85MOL   H16932257   4.306   2.359   6.244 -0.3004 -1.1988  0.3153
   85MOL   H17032258   4.544   2.375   6.337  0.0250 -0.0659  1.0270
   85MOL   H17132259   4.521   2.511   6.230  0.8707  0.0979  0.8737
   85MOL   H17232260   4.502   2.525   6.407 -2.2605  1.2405 -0.7612
   85MOL   C17332261   4.011   2.200   6.165 -0.6226 -0.1604  0.5742
   85MOL   C17432262   3.909   2.085   6.149  0.7977  0.1611  0.4879
   85MOL   O17532263   3.968   1.959   6.148 -0.2911  0.1703 -0.0847
   85MOL   C17632264   4.041   1.920   6.028  0.4549 -0.0043 -0.1376
   85MOL   C17732265   4.104   1.780   6.041  0.1849 -0.1139 -0.0830
   85MOL   C17832266   4.234   1.771   6.130  0.6998 -0.2775 -0.3011
   85MOL   C17932267   4.326   1.661   6.086  0.2927  1.0106  0.3262
   85MOL   H18032268   4.050   2.195   6.267  1.7067  0.6801 -0.2365
   85MOL   H18132269   4.101   2.196   6.104 -0.0401  0.1512  1.3949
   85MOL   H18232270   3.860   2.095   6.052  1.7738 -0.9103 -0.1402
   85MOL   H18332271   4.119   1.994   6.010  1.1564 -0.9290 -0.9771
   85MOL   H18432272   3.970   1.918   5.944 -1.4575  1.8248  1.3654
   85MOL   H18532273   4.141   1.765   5.940  2.3230 -0.4826  0.7129
   85MOL   H18632274   4.037   1.699   6.069 -0.2691  0.6962  1.2627
   85MOL   H18732275   4.293   1.861   6.112  0.3890  0.0249  0.1820
   85MOL   H18832276   4.217   1.763   6.238  1.1876 -1.9077 -0.3259
   85MOL   H18932277   4.280   1.563   6.075  2.3165  0.2788 -1.9700
   85MOL   H19032278   4.381   1.680   5.994  2.3895 -1.1943  1.0758
   85MOL   H19132279   4.408   1.649   6.157 -0.7611 -1.2450  1.2012
   85MOL   C19232280   3.798   2.090   6.261 -0.1090  0.4744 -0.3863
   85MOL   C19332281   3.693   1.977   6.253 -0.9612  0.4574 -0.0446
   85MOL   O19432282   3.593   1.982   6.355 -0.2912  0.3113 -0.8266
   85MOL   C19532283   3.635   1.924   6.475  0.1685  0.3648  1.2165
   85MOL   C19632284   3.547   1.953   6.597 -0.2209  0.7198 -0.7542
   85MOL   C19732285   3.417   1.869   6.579 -0.0861  0.0787  0.2055
   85MOL   C19832286   3.316   1.902   6.682 -0.3888  0.1536 -0.5239
   85MOL   H19932287   3.755   2.190   6.265  1.3854  1.1222  0.1104
   85MOL   H20032288   3.851   2.078   6.355 -1.0892  1.0913  0.2497
   85MOL   H20132289   3.741   1.880   6.263 -0.9498  0.5996  1.3682
   85MOL   H20232290   3.725   1.976   6.507  1.3776 -1.3836  0.7712
   85MOL   H20332291   3.654   1.817   6.467 -0.4537  0.3721 -0.5863
   85MOL   H20432292   3.597   1.921   6.689  1.9470 -1.0745 -2.5031
   85MOL   H20532293   3.541   2.062   6.606  1.6531  0.7211  0.8870
   85MOL   H20632294   3.442   1.763   6.589  1.1490  0.4353  0.9205
   85MOL   H20732295   3.380   1.889   6.478  2.2891  0.4771 -0.6064
   85MOL   H20832296   3.311   2.011   6.692 -1.7653  0.0302  0.3834
   85MOL   H20932297   3.214   1.867   6.665 -0.2749 -0.9894  1.0455
   85MOL   H21032298   3.346   1.866   6.781 -1.9742 -1.3052 -0.5543
   85MOL   C21132299   3.611   1.987   6.115 -0.6156 -0.2686 -0.9114
   85MOL   C21232300   3.539   1.856   6.083  0.1028  0.2989  0.0332
   85MOL   O21332301   3.433   1.880   5.985 -0.0931  0.3856  0.5615
   85MOL   C21432302   3.314   1.924   6.043  0.0515 -0.1067  0.2722
   85MOL   C21532303   3.203   1.921   5.933  0.2197  0.1749 -0.2890
   85MOL   C21632304   3.234   2.025   5.828  0.0754 -0.2951  0.5671
   85MOL   C21732305   3.232   2.168   5.889 -0.0958  0.5230 -0.2777
   85MOL   H21832306   3.669   2.012   6.027  0.7628 -0.2706 -0.0114
   85MOL   H21932307   3.545   2.072   6.129 -3.0365 -1.7917 -2.5773
   85MOL   H22032308   3.492   1.816   6.173  0.4689  1.3892  0.7235
   85MOL   H22132309   3.296   1.848   6.120  0.9042 -0.8814 -0.2742
   85MOL   H22232310   3.328   2.020   6.092 -1.7289 -0.2323  1.0753
   85MOL   H22332311   3.197   1.818   5.897 -1.1781 -0.1858  0.9431
   85MOL   H22432312   3.111   1.953   5.982 -0.2060  1.0330 -1.5921
   85MOL   H22532313   3.153   2.005   5.758  0.9335  0.7207 -0.7232
   85MOL   H22632314   3.330   1.996   5.786 -0.4316  0.8957 -1.4810
   85MOL   H22732315   3.185   2.245   5.827  0.0224 -0.3234 -1.4339
   85MOL   H22832316   3.332   2.208   5.902  1.2929 -2.7909 -0.3554
   85MOL   H22932317   3.193   2.156   5.990 -1.3862 -1.0012 -0.9310
   85MOL   C23032318   3.642   1.749   6.027  0.6482  1.0851 -0.3738
   85MOL   C23132319   3.586   1.633   5.945 -0.9163 -0.3891 -0.8226
   85MOL   O23232320   3.675   1.521   5.923  0.4032  0.5003 -0.1562
   85MOL   C23332321   3.767   1.545   5.820 -0.0226  0.5533  0.0297
   85MOL   C23432322   3.860   1.421   5.793  0.0640 -0.6112  0.1104
   85MOL   C23532323   3.906   1.355   5.924  0.5842 -0.0123 -0.6290
   85MOL   C23632324   3.988   1.217   5.894  0.1584  0.1401 -0.7492
   85MOL   H23732325   3.687   1.691   6.108 -0.5603  0.0110 -0.4670
   85MOL   H23832326   3.718   1.797   5.965  1.4067  1.8010  1.0844
   85MOL   H23932327   3.545   1.675   5.853  0.8928  2.0017 -0.5800
   85MOL   H24032328   3.715   1.582   5.732 -0.4256  0.2311  0.1280
   85MOL   H24132329   3.828   1.627   5.856 -1.4621  0.9375  1.6368
   85MOL   H24232330   3.805   1.349   5.732 -0.6197  1.4687 -1.7980
   85MOL   H24332331   3.956   1.446   5.747  0.2056 -2.0007 -0.3703
   85MOL   H24432332   3.815   1.338   5.981  1.7057  1.4981  1.6739
   85MOL   H24532333   3.962   1.426   5.985  0.5486 -0.5520  0.0471
   85MOL   H24632334   3.918   1.155   5.839  0.5656 -0.6929 -0.3471
   85MOL   H24732335   4.013   1.180   5.994  1.4377  1.2707 -0.6394
   85MOL   H24832336   4.079   1.237   5.837  1.1735  0.7638  1.0589
   85MOL   C24932337   3.472   1.560   6.016  0.9584 -0.3596  0.0665
   85MOL   C25032338   3.394   1.450   5.943  0.6285 -0.0057 -0.0471
   85MOL   O25132339   3.319   1.535   5.851  0.6077 -0.0914 -0.1135
   85MOL   C25232340   3.297   1.486   5.722 -0.0929 -0.1387  0.2003
   85MOL   C25332341   3.265   1.598   5.626 -0.3556  0.2209 -0.2941
   85MOL   C25432342   3.371   1.707   5.631 -0.0716 -0.1231  0.9779
   85MOL   C25532343   3.372   1.789   5.497  0.3005 -0.3380 -0.2405
   85MOL   H25632344   3.403   1.631   6.062  1.3067  0.4396 -0.6298
   85MOL   H25732345   3.525   1.508   6.096 -0.7395 -4.7190 -1.5284
   85MOL   H25832346   3.460   1.376   5.897  0.3810 -2.4596  3.4064
   85MOL   H25932347   3.230   1.400   5.713 -1.5302  1.1268 -1.4747
   85MOL   H26032348   3.392   1.451   5.681  0.3777  2.1351 -0.6877
   85MOL   H26132349   3.244   1.562   5.525  1.2892 -0.6071 -0.3556
   85MOL   H26232350   3.171   1.646   5.653 -0.4621 -0.6420  0.8930
   85MOL   H26332351   3.350   1.766   5.720 -1.0264 -0.5167  1.0161
   85MOL   H26432352   3.470   1.662   5.646  0.1156  0.2112  0.7448
   85MOL   H26532353   3.419   1.886   5.510  1.6374 -1.1794  1.5446
   85MOL   H26632354   3.269   1.809   5.467 -0.4320 -1.7905  1.2198
   85MOL   H26732355   3.422   1.735   5.417  0.6227 -0.2557 -0.0935
   85MOL   C26832356   3.300   1.367   6.036 -0.4617 -0.1573 -0.3223
   85MOL   C26932357   3.201   1.264   5.969  0.1476 -0.0955 -0.5381
   85MOL   O27032358   3.190   1.146   6.047 -0.1113 -0.4147 -0.5831
   85MOL   C27132359   3.300   1.061   6.023  0.4194  0.2755 -0.8047
   85MOL   C27232360   3.266   0.910   6.059  0.3518 -0.4577 -0.2747
   85MOL   C27332361   3.123   0.874   6.012 -0.0751 -0.1323 -0.4999
   85MOL   C27432362   3.095   0.724   6.023 -0.5911  0.7559  0.2571
   85MOL   H27532363   3.366   1.311   6.102  0.9606  2.2534  0.3851
   85MOL   H27632364   3.240   1.434   6.098  1.6755  2.4821 -1.0112
   85MOL   H27732365   3.230   1.236   5.868 -0.5672  1.1081 -1.0896
   85MOL   H27832366   3.336   1.061   5.920  1.3464  0.9681 -0.4916
   85MOL   H27932367   3.382   1.087   6.090 -0.8701  1.5361  0.3093
   85MOL   H28032368   3.336   0.842   6.010  0.4024 -0.1816 -0.5829
   85MOL   H28132369   3.276   0.891   6.166 -0.2128  1.0088  0.0541
   85MOL   H28232370   3.090   0.924   5.921 -0.5130  2.0308  0.8096
   85MOL   H28332371   3.059   0.920   6.087  1.6341 -0.0181  0.9352
   85MOL   H28432372   3.003   0.707   5.968  2.2023 -0.2207 -4.4219
   85MOL   H28532373   3.078   0.690   6.125  0.9989  1.5722  0.8188
   85MOL   H28632374   3.163   0.660   5.966 -1.3279  0.4399 -0.2742
   85MOL   C28732375   3.053   1.324   5.966 -0.0410  0.1893 -0.0078
   85MOL   C28832376   2.947   1.230   5.901  0.0209  0.2679  0.2203
   85MOL   O28932377   2.941   1.252   5.765  0.7384  0.4938 -0.0575
   85MOL   C29032378   3.017   1.161   5.685 -0.4297 -0.0200 -0.0727
   85MOL   C29132379   2.977   1.168   5.532 -0.1898  0.0690 -0.1729
   85MOL   C29232380   3.026   1.294   5.460  0.4009 -0.1037 -0.4409
   85MOL   C29332381   2.969   1.303   5.317 -1.1459  0.5698  0.6868
   85MOL   H29432382   3.045   1.416   5.907 -0.3005 -0.0625 -0.3677
   85MOL   H29532383   3.027   1.354   6.067  0.6536  0.4098  0.1068
   85MOL   H29632384   2.964   1.124   5.921 -1.3578  0.0408  0.2825
   85MOL   H29732385   3.125   1.166   5.703 -0.3698  1.4141 -0.7010
   85MOL   H29832386   2.981   1.064   5.717 -1.0954 -0.9489 -3.4590
   85MOL   H29932387   2.868   1.162   5.522 -0.2644  1.7812 -0.5396
   85MOL   H30032388   3.015   1.077   5.487  1.3613  0.9083 -0.6015
   85MOL   H30132389   3.135   1.300   5.457  0.3512  0.8223 -0.3625
   85MOL   H30232390   2.995   1.380   5.519  2.5455  2.8282 -3.3289
   85MOL   H30332391   2.980   1.206   5.269 -0.2072  2.2182 -2.6148
   85MOL   H30432392   2.862   1.314   5.302 -0.8925  0.4363 -1.3408
   85MOL   H30532393   3.027   1.369   5.251 -1.6008  0.5602  0.2732
   85MOL   C30632394   2.806   1.276   5.946  0.3335 -0.2836 -0.4564
   85MOL   C30732395   2.756   1.212   6.075 -0.1885  0.5275 -0.4200
   85MOL   O30832396   2.728   1.073   6.050 -0.0407 -0.5114  0.1751
   85MOL   C30932397   2.762   0.984   6.151  0.6359  0.3862  0.3596
   85MOL   C31032398   2.745   0.834   6.115  0.1464 -0.0845 -0.0378
   85MOL   C31132399   2.709   0.747   6.235 -0.1492 -0.0309  0.1511
   85MOL   C31232400   2.825   0.720   6.333  0.2297  0.2851  0.3629
   85MOL   H31332401   2.798   1.385   5.952 -0.5001 -0.2506 -1.8473
   85MOL   H31432402   2.731   1.242   5.874 -0.0741  1.1827 -0.7405
   85MOL   H31532403   2.836   1.228   6.147 -0.2482 -1.2355  0.0498
   85MOL   H31632404   2.686   1.010   6.224 -1.3446 -0.0985 -1.4701
   85MOL   H31732405   2.860   1.005   6.193  1.3143  2.3917 -2.1692
   85MOL   H31832406   2.825   0.786   6.058 -1.1163 -1.9792 -0.2652
   85MOL   H31932407   2.655   0.838   6.054 -0.9493 -1.4169  1.4612
   85MOL   H32032408   2.618   0.769   6.291  0.3982 -0.6224  1.2968
   85MOL   H32132409   2.682   0.651   6.191  0.7768 -0.1188 -0.2362
   85MOL   H32232410   2.874   0.809   6.373 -1.1179  0.9369  0.6029
   85MOL   H32332411   2.903   0.660   6.286  1.3685  3.0462 -1.4246
   85MOL   H32432412   2.797   0.655   6.415  1.0712  1.9140  1.9855
   85MOL   C32532413   2.615   1.266   6.113 -0.2626 -0.6385  0.6563
   85MOL   C32632414   2.618   1.318   6.262  0.1325  0.6351 -0.6163
   85MOL   O32732415   2.700   1.428   6.257  0.3610  0.1404  0.3509
   85MOL   C32832416   2.766   1.457   6.377  0.5799 -0.4735  0.1880
   85MOL   C32932417   2.907   1.502   6.334 -0.2286 -0.2078  0.3189
   85MOL   C33032418   2.917   1.623   6.242 -0.0255 -0.5136  1.2694
   85MOL   C33132419   3.055   1.694   6.240 -0.2791 -0.0103  0.2351
   85MOL   H33232420   2.542   1.185   6.110 -0.7499 -0.1734 -0.9301
   85MOL   H33332421   2.591   1.347   6.044 -0.0482 -0.2753  1.0044
   85MOL   H33432422   2.658   1.235   6.321  0.2476  1.5622  0.6100
   85MOL   H33532423   2.783   1.366   6.435  1.2563 -0.6492 -0.2708
   85MOL   H33632424   2.715   1.533   6.436  1.1531  0.4111 -0.4385
   85MOL   H33732425   2.971   1.518   6.421  2.7200  0.3428 -1.8807
   85MOL   H33832426   2.955   1.415   6.289 -0.5847  0.0660 -0.6023
   85MOL   H33932427   2.841   1.696   6.270 -2.0767 -1.6516 -1.1471
   85MOL   H34032428   2.886   1.603   6.140 -0.7795 -0.5746  1.5074
   85MOL   H34132429   3.070   1.727   6.342 -0.3915 -4.0337  1.6357
   85MOL   H34232430   3.068   1.770   6.163  1.6929 -1.2601 -0.7080
   85MOL   H34332431   3.146   1.637   6.223 -1.2862 -1.7245  0.4134
   85MOL   C34432432   2.473   1.347   6.312  0.0434 -0.2619  0.4857
   85MOL   C34532433   2.400   1.249   6.414  0.5261 -0.2853 -0.0795
   85MOL   O34632434   2.476   1.240   6.530  0.1252 -0.2607 -0.1601
   85MOL   C34732435   2.458   1.355   6.613  1.2962 -0.2863 -0.4323
   85MOL   C34832436   2.534   1.344   6.744  0.3226 -0.2018 -0.8134
   85MOL   C34932437   2.498   1.453   6.850  0.0668  1.1716 -0.2652
   85MOL   C35032438   2.591   1.477   6.969  0.1465 -0.3921 -0.3085
   85MOL   H35132439   2.467   1.444   6.360  0.8856  0.6526 -1.1786
   85MOL   H35232440   2.405   1.349   6.227 -0.0866  2.3884  0.6012
   85MOL   H35332441   2.297   1.283   6.428  0.2605 -0.2021 -2.0260
   85MOL   H35432442   2.352   1.361   6.640  1.2783 -0.7862 -0.4028
   85MOL   H35532443   2.484   1.449   6.565  3.7815 -0.4189  0.5947
   85MOL   H35632444   2.640   1.352   6.718  0.3181  1.0258 -0.4574
   85MOL   H35732445   2.541   1.243   6.786 -0.1982 -0.1485 -0.5973
   85MOL   H35832446   2.476   1.546   6.798  1.3171  1.5271 -0.1811
   85MOL   H35932447   2.403   1.416   6.890  2.8471 -4.4742  1.7729
   85MOL   H36032448   2.697   1.483   6.947  0.6380 -2.7033  1.1845
   85MOL   H36132449   2.580   1.386   7.029 -0.3507 -0.6052 -0.7173
   85MOL   H36232450   2.545   1.555   7.030  2.2130  0.5607  0.0693
   85MOL   C36332451   2.385   1.103   6.357  0.3240  0.3065 -0.2360
   85MOL   C36432452   2.287   1.090   6.241 -0.8112  0.4943 -0.5426
   85MOL   O36532453   2.259   0.948   6.211 -0.2469 -0.4266 -1.1956
   85MOL   C36632454   2.373   0.869   6.156  0.0214 -0.2522  0.3126
   85MOL   C36732455   2.324   0.733   6.102  1.0084 -0.2089 -0.4234
   85MOL   C36832456   2.249   0.742   5.976  0.1644 -0.0999 -0.4637
   85MOL   C36932457   2.191   0.620   5.910  0.2877  0.1015  0.4110
   85MOL   H37032458   2.361   1.035   6.439 -0.6374 -0.0365 -0.7909
   85MOL   H37132459   2.483   1.066   6.326  0.1538 -0.7615  0.4725
   85MOL   H37232460   2.326   1.141   6.153  0.4282 -0.5958 -0.6379
   85MOL   H37332461   2.433   0.846   6.244 -0.2416 -0.6141  0.4004
   85MOL   H37432462   2.438   0.923   6.088 -1.7676  0.1477 -1.1220
   85MOL   H37532463   2.278   0.671   6.179  1.4863  1.0952  0.9238
   85MOL   H37632464   2.407   0.664   6.088  0.0725 -1.1037 -1.7156
   85MOL   H37732465   2.306   0.793   5.899  0.8429  0.0748  0.1447
   85MOL   H37832466   2.165   0.804   6.008  1.0378 -0.7235  3.2382
   85MOL   H37932467   2.132   0.655   5.826  0.0796 -0.4217  0.3394
   85MOL   H38032468   2.265   0.544   5.884  0.2459  0.2117 -0.0239
   85MOL   H38132469   2.118   0.560   5.965 -1.1641  1.9190  0.4867
   85MOL   H38232470   2.193   1.144   6.253 -0.1367  1.5350  0.1754
   86MOL     C132471   0.520   2.642   4.737 -0.4373 -0.2667 -0.2465
   86MOL     C232472   0.591   2.706   4.852  0.2875  0.2096  0.4259
   86MOL     O332473   0.731   2.696   4.834  0.3798 -0.8923  0.1068
   86MOL     C432474   0.793   2.565   4.818  0.3070  0.0830 -0.4827
   86MOL     C532475   0.938   2.592   4.855  0.6844  0.4402 -0.5118
   86MOL     C632476   0.975   2.587   5.003 -0.4351 -0.0681 -0.1499
   86MOL     C732477   0.961   2.451   5.068  0.2431 -0.2910  0.5549
   86MOL     H832478   0.544   2.676   4.637 -1.1903  0.7750 -0.0769
   86MOL     H932479   0.520   2.533   4.733  0.6706 -0.3358  0.9675
   86MOL    H1032480   0.580   2.648   4.944  0.1513 -2.4927 -1.2466
   86MOL    H1132481   0.742   2.493   4.882 -0.9536  2.5501  1.3494
   86MOL    H1232482   0.772   2.536   4.715  3.2249  0.5975 -1.2750
   86MOL    H1332483   0.974   2.686   4.813 -0.7522  0.7011 -1.1978
   86MOL    H1432484   1.006   2.520   4.811 -1.4584 -2.5482  0.9309
   86MOL    H1532485   0.928   2.660   5.069  1.2331 -1.4712  2.7362
   86MOL    H1632486   1.082   2.611   4.999 -0.4422 -0.1544 -0.8061
   86MOL    H1732487   1.032   2.446   5.150  0.2345  0.5278  0.6088
   86MOL    H1832488   0.995   2.370   5.003 -0.4178 -0.3332  0.2487
   86MOL    H1932489   0.861   2.442   5.111 -1.2008 -0.1994 -2.6449
   86MOL    H2032490   0.413   2.659   4.749 -0.6600 -1.7775  0.1139
   86MOL    C2132491   0.542   2.848   4.874 -0.6301  0.2559 -0.3756
   86MOL    C2232492   0.618   2.940   4.972  0.1579 -0.4157  0.1906
   86MOL    O2332493   0.602   3.071   4.931 -0.3526 -0.4094  0.3514
   86MOL    C2432494   0.699   3.126   4.841  0.2521 -0.3310  0.1046
   86MOL    C2532495   0.673   3.276   4.849  0.2154 -0.9611 -0.7433
   86MOL    C2632496   0.538   3.318   4.794  0.3939 -0.7785  0.3812
   86MOL    C2732497   0.505   3.465   4.816 -0.4616 -0.7543  0.0435
   86MOL    H2832498   0.436   2.849   4.899 -1.0029 -0.9210 -1.8892
   86MOL    H2932499   0.562   2.890   4.776  0.4743 -1.9118 -1.0998
   86MOL    H3032500   0.724   2.915   4.966  0.8000  2.1196  0.5169
   86MOL    H3132501   0.681   3.098   4.737  1.4461  0.3774 -0.2990
   86MOL    H3232502   0.805   3.107   4.855  0.6693  1.8926  0.1363
   86MOL    H3332503   0.693   3.308   4.951 -0.8145 -0.6659 -0.6301
   86MOL    H3432504   0.751   3.325   4.790  0.5389 -1.3420 -0.6362
   86MOL    H3532505   0.524   3.294   4.689 -1.0537 -1.0077  0.6127
   86MOL    H3632506   0.469   3.250   4.845 -1.2673  0.1166 -0.6350
   86MOL    H3732507   0.569   3.518   4.746  0.8671 -0.7349  1.2375
   86MOL    H3832508   0.399   3.479   4.797 -1.2849 -1.2663  3.7748
   86MOL    H3932509   0.516   3.503   4.918  0.3565  0.2795 -0.4285
   86MOL    C4032510   0.575   2.925   5.121 -0.9583  0.2226 -0.4905
   86MOL    C4132511   0.667   2.997   5.234 -0.5956  0.3729  0.6034
   86MOL    O4232512   0.802   2.953   5.212  0.3034 -0.1085  0.3230
   86MOL    C4332513   0.892   3.056   5.198  0.0238  0.2752 -0.2618
   86MOL    C4432514   1.034   3.000   5.168 -0.2549 -0.4848  0.4678
   86MOL    C4532515   1.068   2.896   5.278 -0.0625 -0.3783 -0.0125
   86MOL    C4632516   1.197   2.825   5.237  0.3456 -1.1365  0.4405
   86MOL    H4732517   0.572   2.818   5.141  0.4754  0.7467  2.9808
   86MOL    H4832518   0.473   2.965   5.130 -0.6348  0.6690  1.4348
   86MOL    H4932519   0.663   3.104   5.217 -0.5169  0.3731  0.5874
   86MOL    H5032520   0.904   3.122   5.284 -0.0633 -0.8699  0.6559
   86MOL    H5132521   0.861   3.120   5.116  0.6547  2.4766  1.1519
   86MOL    H5232522   1.100   3.086   5.174  0.7802 -1.4098  2.4902
   86MOL    H5332523   1.023   2.962   5.066 -1.3783  1.2951 -0.1131
   86MOL    H5432524   0.990   2.824   5.302 -1.2982  1.5604  2.0857
   86MOL    H5532525   1.089   2.949   5.371 -1.7592 -0.7195  0.5959
   86MOL    H5632526   1.238   2.762   5.316 -1.3745 -1.8020  0.8280
   86MOL    H5732527   1.184   2.767   5.146 -1.5674 -1.5391  0.9545
   86MOL    H5832528   1.274   2.900   5.222  1.0585 -2.1530 -1.0790
   86MOL    C5932529   0.608   2.963   5.375 -0.1187  0.5553  0.6534
   86MOL    C6032530   0.667   3.052   5.480  0.5359 -0.0050 -0.1720
   86MOL    O6132531   0.620   3.185   5.446 -0.0566 -0.0669  0.1270
   86MOL    C6232532   0.690   3.297   5.496 -0.5122 -0.1878 -0.3353
   86MOL    C6332533   0.666   3.428   5.417  0.0866  0.2666 -0.1178
   86MOL    C6432534   0.708   3.416   5.276 -0.5159 -0.3580 -0.6240
   86MOL    C6532535   0.658   3.537   5.188 -0.3300  0.3509 -0.3153
   86MOL    H6632536   0.499   2.967   5.381 -0.2115 -0.1070 -0.5047
   86MOL    H6732537   0.627   2.856   5.383 -1.3420  0.2057 -0.7677
   86MOL    H6832538   0.776   3.046   5.476  0.5527  0.3188 -0.2279
   86MOL    H6932539   0.796   3.276   5.510 -0.7878 -1.6865 -0.3569
   86MOL    H7032540   0.649   3.310   5.597  2.5913  0.4767  0.8886
   86MOL    H7132541   0.562   3.452   5.437 -0.5422 -2.1607 -0.2942
   86MOL    H7232542   0.725   3.512   5.455 -2.7217  2.0999  0.3562
   86MOL    H7332543   0.816   3.405   5.274 -0.4528  0.0908 -0.0218
   86MOL    H7432544   0.671   3.321   5.237  1.1489 -1.5974  0.7660
   86MOL    H7532545   0.692   3.542   5.085 -1.5609 -2.1930 -0.9075
   86MOL    H7632546   0.549   3.535   5.186 -0.3533  1.0229  0.2841
   86MOL    H7732547   0.678   3.637   5.225  1.4863  0.2560 -0.9764
   86MOL    C7832548   0.618   3.012   5.625  0.3685  0.0450 -0.0964
   86MOL    C7932549   0.685   2.892   5.690  0.2046  0.3772  0.2420
   86MOL    O8032550   0.587   2.827   5.766  0.6038  0.2731 -0.0128
   86MOL    C8132551   0.491   2.757   5.687 -0.1721  0.3137 -0.0673
   86MOL    C8232552   0.475   2.622   5.756  0.4454  0.5818  0.3714
   86MOL    C8332553   0.402   2.628   5.891  0.3073 -0.7762  0.0057
   86MOL    C8432554   0.413   2.499   5.969 -0.6196  0.1263  0.5619
   86MOL    H8532555   0.511   2.993   5.616  0.1242  0.0306  2.4658
   86MOL    H8632556   0.627   3.105   5.680  0.7539  1.4577 -2.4932
   86MOL    H8732557   0.721   2.826   5.612 -1.7278  0.6028 -0.8599
   86MOL    H8832558   0.531   2.737   5.587 -0.9085  1.2246 -0.5526
   86MOL    H8932559   0.391   2.800   5.675 -1.0971 -1.7172  0.1247
   86MOL    H9032560   0.402   2.571   5.694  0.0730  1.9221 -0.3209
   86MOL    H9132561   0.568   2.565   5.765  0.3232  0.7820  3.5892
   86MOL    H9232562   0.297   2.656   5.880 -0.2308 -1.7247  2.3810
   86MOL    H9332563   0.444   2.706   5.955 -2.1891  0.0533  0.7145
   86MOL    H9432564   0.321   2.489   6.026 -1.2175  0.4364 -0.3387
   86MOL    H9532565   0.425   2.412   5.903  1.8956 -0.4885  1.7644
   86MOL    H9632566   0.502   2.499   6.032 -0.3493  1.3454  0.1896
   86MOL    C9732567   0.808   2.916   5.783  0.1475 -0.0075 -0.0409
   86MOL    C9832568   0.865   2.784   5.839  0.4612 -0.0020 -0.1091
   86MOL    O9932569   0.918   2.712   5.726  0.1676  0.3887  0.4636
   86MOL   C10032570   0.863   2.583   5.705  0.2578 -0.4894  0.3619
   86MOL   C10132571   0.957   2.512   5.610  0.2627 -0.0230 -0.1534
   86MOL   C10232572   0.967   2.591   5.474 -0.5098  0.1201  0.1454
   86MOL   C10332573   0.852   2.560   5.373  0.1562 -0.1838  0.7897
   86MOL   H10432574   0.781   2.994   5.855 -0.3964  1.0340 -1.3532
   86MOL   H10532575   0.881   2.958   5.714 -0.7314 -0.7895 -1.4785
   86MOL   H10632576   0.784   2.726   5.883 -0.9192  1.6345 -0.4182
   86MOL   H10732577   0.771   2.608   5.653  0.5070  1.7858  0.9838
   86MOL   H10832578   0.839   2.533   5.799 -1.6082  2.2307  1.3817
   86MOL   H10932579   0.916   2.417   5.578 -2.1512  1.7680 -2.6000
   86MOL   H11032580   1.052   2.499   5.662 -0.3994  1.6326  1.5332
   86MOL   H11132581   1.070   2.582   5.440 -1.0445 -0.1325 -1.4343
   86MOL   H11232582   0.944   2.695   5.498 -0.5598  0.2986 -0.6760
   86MOL   H11332583   0.757   2.590   5.418 -1.6251 -1.0731 -2.2525
   86MOL   H11432584   0.865   2.610   5.277  0.3102 -0.9239  0.4196
   86MOL   H11532585   0.839   2.452   5.359 -0.3640  0.2286 -2.2128
   86MOL   C11632586   0.979   2.803   5.937 -0.1920  0.2487  0.5576
   86MOL   C11732587   0.945   2.863   6.078  0.2268 -0.5780 -0.5300
   86MOL   O11832588   0.866   2.776   6.155  0.1989 -0.6313  0.2817
   86MOL   C11932589   0.756   2.841   6.222 -0.6007  0.6986 -0.0428
   86MOL   C12032590   0.678   2.734   6.298  1.0853  0.4975 -0.5877
   86MOL   C12132591   0.544   2.777   6.364 -0.4516  0.3678  0.9372
   86MOL   C12232592   0.468   2.666   6.432  0.0751 -0.5007  0.3321
   86MOL   H12332593   1.016   2.703   5.959 -1.0949  0.3998  2.9416
   86MOL   H12432594   1.059   2.865   5.897 -0.3935  0.4628  0.4868
   86MOL   H12532595   0.900   2.962   6.065  0.8274 -0.3202 -0.6453
   86MOL   H12632596   0.685   2.880   6.149 -1.5554 -0.1062  0.4378
   86MOL   H12732597   0.781   2.926   6.286  0.4399 -0.0927  0.6071
   86MOL   H12832598   0.742   2.715   6.384 -0.2702 -0.6590  0.1953
   86MOL   H12932599   0.661   2.643   6.241  0.6493  0.6104 -0.6414
   86MOL   H13032600   0.574   2.863   6.423  1.6614  0.4345 -0.1959
   86MOL   H13132601   0.477   2.814   6.286  1.3693  1.5746 -0.0955
   86MOL   H13232602   0.527   2.615   6.508  0.7712 -2.8082 -1.6907
   86MOL   H13332603   0.426   2.593   6.363 -1.5187 -0.1657  0.9208
   86MOL   H13432604   0.394   2.717   6.493 -0.7231  1.4788 -2.2144
   86MOL   C13532605   1.074   2.875   6.166  0.4036  0.1850 -0.3405
   86MOL   C13632606   1.064   2.956   6.301 -0.3140 -0.4680 -0.4732
   86MOL   O13732607   1.193   2.950   6.353 -0.1006 -0.6112 -0.2104
   86MOL   C13832608   1.223   2.839   6.443  0.3087 -0.2319  0.3011
   86MOL   C13932609   1.357   2.881   6.500  1.0887  0.3537 -0.3180
   86MOL   C14032610   1.340   2.998   6.592 -0.4217  1.0278 -0.3843
   86MOL   C14132611   1.478   3.046   6.651  0.6776  0.5254 -0.6896
   86MOL   H14232612   1.149   2.925   6.104  0.3389  1.9830  1.0056
   86MOL   H14332613   1.109   2.775   6.191 -1.3592 -0.5174 -0.6196
   86MOL   H14432614   0.990   2.910   6.367 -1.7673 -0.1524 -1.8715
   86MOL   H14532615   1.231   2.752   6.377 -0.1547  0.0957 -0.1891
   86MOL   H14632616   1.146   2.827   6.520  0.6833  0.4636  0.7871
   86MOL   H14732617   1.437   2.891   6.427  0.7144  0.5154 -0.7086
   86MOL   H14832618   1.400   2.795   6.552  2.0623  1.1905  0.2789
   86MOL   H14932619   1.325   3.090   6.535  1.8938  2.1240  0.6947
   86MOL   H15032620   1.261   3.000   6.666  1.1409 -3.2522  1.5617
   86MOL   H15132621   1.459   3.131   6.717  0.4167  0.3775 -0.5714
   86MOL   H15232622   1.511   2.960   6.709 -0.8918  0.9350  0.8511
   86MOL   H15332623   1.547   3.072   6.571  1.8806 -0.3457  0.0432
   86MOL   C15432624   1.040   3.109   6.282 -0.3536 -0.0107 -0.1157
   86MOL   C15532625   1.034   3.189   6.411  0.4711  0.0799 -0.7259
   86MOL   O15632626   0.927   3.147   6.489  0.2737  0.2657  0.0333
   86MOL   C15732627   0.963   3.136   6.630 -0.0657  0.0177  0.1418
   86MOL   C15832628   0.839   3.126   6.714  0.5750  0.7656 -0.4008
   86MOL   C15932629   0.749   3.007   6.678  0.0288 -1.2473  0.6239
   86MOL   C16032630   0.812   2.866   6.690  0.3251  0.2255  0.2785
   86MOL   H16132631   0.949   3.135   6.229  0.5809 -0.3447 -1.9175
   86MOL   H16232632   1.121   3.138   6.215  0.0729  0.5248  0.6212
   86MOL   H16332633   1.132   3.183   6.459  0.7155 -1.3612 -1.3708
   86MOL   H16432634   1.037   3.057   6.646  0.9136  0.8699 -0.1345
   86MOL   H16532635   1.013   3.230   6.653  0.2708 -0.4849  1.4765
   86MOL   H16632636   0.793   3.223   6.694  0.1003 -0.0232 -3.3575
   86MOL   H16732637   0.866   3.120   6.820  1.0511  0.3864 -0.5451
   86MOL   H16832638   0.664   3.009   6.747 -1.4172 -0.1074 -1.1642
   86MOL   H16932639   0.720   3.029   6.576  1.9982 -2.3905 -0.2073
   86MOL   H17032640   0.877   2.877   6.777 -0.2608 -1.9204  1.0136
   86MOL   H17132641   0.743   2.787   6.719  0.7033  0.3070  1.4180
   86MOL   H17232642   0.870   2.832   6.605 -2.1698 -2.0606 -0.5608
   86MOL   C17332643   1.024   3.343   6.393 -0.1754 -0.1219 -0.2624
   86MOL   C17432644   0.889   3.416   6.370 -0.2117  0.6833  0.5144
   86MOL   O17532645   0.838   3.444   6.502  0.7604  0.1831 -0.9591
   86MOL   C17632646   0.699   3.479   6.521 -0.0891  1.1295 -0.0167
   86MOL   C17732647   0.667   3.504   6.665 -0.1826  0.5485  0.0422
   86MOL   C17832648   0.512   3.527   6.689 -0.5812  0.2343 -0.3212
   86MOL   C17932649   0.467   3.512   6.835 -0.6736 -0.2673 -0.2118
   86MOL   H18032650   1.098   3.374   6.320 -3.0674 -0.1750 -3.2915
   86MOL   H18132651   1.045   3.388   6.490 -2.6129  0.2274  0.1344
   86MOL   H18232652   0.823   3.351   6.313  2.6516 -1.9281  0.0666
   86MOL   H18332653   0.636   3.407   6.468  0.9352 -0.2773  0.6367
   86MOL   H18432654   0.694   3.571   6.463  2.3646  1.5192  0.3229
   86MOL   H18532655   0.718   3.596   6.691  2.1365 -1.2549  2.0994
   86MOL   H18632656   0.700   3.418   6.723 -4.5767 -1.1943  0.1444
   86MOL   H18732657   0.482   3.621   6.643 -0.1345  0.4828 -0.1015
   86MOL   H18832658   0.471   3.436   6.646 -0.7842  0.9613 -1.6976
   86MOL   H18932659   0.494   3.604   6.888 -0.0257  1.0750 -2.7811
   86MOL   H19032660   0.360   3.496   6.847 -0.6243 -1.1425 -0.8607
   86MOL   H19132661   0.509   3.423   6.881 -1.1681  0.2299  1.2178
   86MOL   C19232662   0.919   3.549   6.288  0.5864  1.0823  0.2408
   86MOL   C19332663   0.970   3.530   6.138 -0.0032 -0.3342 -0.4035
   86MOL   O19432664   0.850   3.494   6.067  0.1145 -0.4371  0.1843
   86MOL   C19532665   0.868   3.419   5.945  1.3876  0.1366 -0.0016
   86MOL   C19632666   0.754   3.325   5.929  0.7875  0.0663 -0.4993
   86MOL   C19732667   0.733   3.230   6.050 -0.2392  0.6720 -0.1546
   86MOL   C19832668   0.600   3.171   6.050  0.5211  0.5973  0.6676
   86MOL   H19932669   0.994   3.600   6.348  0.2778  1.7163  0.0968
   86MOL   H20032670   0.842   3.626   6.291 -0.4534  0.0329  0.7574
   86MOL   H20132671   1.037   3.444   6.128 -0.8152 -1.2269  1.5335
   86MOL   H20232672   0.955   3.354   5.936 -0.1570 -1.6063 -3.2831
   86MOL   H20332673   0.875   3.485   5.858 -0.6707  0.0238 -0.2854
   86MOL   H20432674   0.668   3.390   5.914 -0.0338 -0.2075  2.7889
   86MOL   H20532675   0.761   3.271   5.834  1.8583  0.5626 -0.7134
   86MOL   H20632676   0.740   3.281   6.147 -0.2355  0.8311 -0.2377
   86MOL   H20732677   0.818   3.163   6.051 -2.4667 -2.2521 -0.0210
   86MOL   H20832678   0.564   3.147   6.150  0.5218 -1.6062  0.1695
   86MOL   H20932679   0.534   3.242   6.001 -3.7338 -3.5125  0.0852
   86MOL   H21032680   0.592   3.079   5.992 -1.2834  1.7124 -0.9021
   86MOL   C21132681   1.035   3.661   6.084 -0.1737  0.0772 -0.1310
   86MOL   C21232682   1.186   3.637   6.067 -0.3584  0.7093  0.1512
   86MOL   O21332683   1.208   3.518   5.987  0.2847  0.1601 -0.4169
   86MOL   C21432684   1.332   3.455   6.015  0.3121  0.2048 -0.2648
   86MOL   C21532685   1.360   3.338   5.919 -0.0532 -0.3838 -0.1455
   86MOL   C21632686   1.288   3.208   5.976 -0.1407  0.6735  0.5878
   86MOL   C21732687   1.304   3.088   5.884 -0.1268  0.6469  0.3978
   86MOL   H21832688   1.012   3.748   6.146 -0.0848 -1.4299  2.0576
   86MOL   H21932689   0.990   3.689   5.989  0.9362  3.4996  0.2795
   86MOL   H22032690   1.233   3.623   6.164  1.2188 -0.1763 -0.7248
   86MOL   H22132691   1.416   3.523   6.003  0.8273 -0.8391 -3.2644
   86MOL   H22232692   1.347   3.417   6.116 -1.2970 -0.3949 -0.2344
   86MOL   H22332693   1.315   3.357   5.822 -0.1555 -2.4158 -0.5057
   86MOL   H22432694   1.466   3.313   5.911 -0.0383 -0.9314  1.4748
   86MOL   H22532695   1.182   3.233   5.982 -0.4754 -0.9991  2.0328
   86MOL   H22632696   1.325   3.182   6.075 -0.8287 -1.5221  0.2783
   86MOL   H22732697   1.266   3.001   5.937 -0.8403  2.1032  2.3558
   86MOL   H22832698   1.405   3.058   5.856 -0.1937 -0.1128  0.9766
   86MOL   H22932699   1.238   3.099   5.798  0.9415 -0.4783 -0.5714
   86MOL   C23032700   1.260   3.759   5.998 -0.4522 -0.0074  0.6028
   86MOL   C23132701   1.278   3.884   6.083  0.3758 -0.1063 -1.1210
   86MOL   O23232702   1.300   3.849   6.222 -0.2256  0.4320  0.1362
   86MOL   C23332703   1.269   3.953   6.316  0.6002 -0.2599 -0.1230
   86MOL   C23432704   1.281   3.900   6.458  0.0167 -0.1486 -0.6189
   86MOL   C23532705   1.178   3.797   6.492 -0.5820  0.0711  0.1984
   86MOL   C23632706   1.207   3.740   6.628  0.4783  0.2784 -0.2090
   86MOL   H23732707   1.204   3.787   5.910  1.5041  1.1444 -0.3140
   86MOL   H23832708   1.360   3.729   5.965 -0.1268  0.6319  1.0008
   86MOL   H23932709   1.182   3.935   6.082 -0.1783 -1.1017 -0.2953
   86MOL   H24032710   1.332   4.042   6.305  0.1124 -0.0167 -0.9804
   86MOL   H24132711   1.166   3.987   6.309  0.2457 -0.6808  2.5305
   86MOL   H24232712   1.381   3.862   6.481 -0.1581  0.5937  1.4727
   86MOL   H24332713   1.258   3.986   6.521 -1.8716  0.8149 -2.5380
   86MOL   H24432714   1.194   3.712   6.426 -1.4858 -1.1831  1.5579
   86MOL   H24532715   1.080   3.843   6.477 -0.3502  0.1826 -0.9858
   86MOL   H24632716   1.306   3.696   6.636 -0.5504 -1.7755  1.9220
   86MOL   H24732717   1.128   3.669   6.651 -0.7606  1.4895 -0.6154
   86MOL   H24832718   1.179   3.809   6.709 -0.8013  0.7793 -1.0638
   86MOL   C24932719   1.388   3.971   6.030 -0.3291  0.0207  0.6757
   86MOL   C25032720   1.366   4.038   5.882  0.1289  0.0964 -0.0208
   86MOL   O25132721   1.398   3.931   5.796  0.0915 -0.2805  0.2268
   86MOL   C25232722   1.342   3.938   5.666  0.0868 -0.2902  0.3074
   86MOL   C25332723   1.422   3.839   5.583  0.1364  0.1936 -0.1864
   86MOL   C25432724   1.397   3.855   5.430  0.1349 -0.0308 -0.0829
   86MOL   C25532725   1.429   3.734   5.350 -0.5869  0.8510  0.8000
   86MOL   H25632726   1.478   3.911   6.023 -0.5185 -0.2597  0.6129
   86MOL   H25732727   1.412   4.047   6.104  1.8521 -0.7830  0.8151
   86MOL   H25832728   1.262   4.059   5.860 -0.5286 -2.4977  0.4511
   86MOL   H25932729   1.361   4.038   5.628 -0.2277 -1.0058 -1.7941
   86MOL   H26032730   1.234   3.924   5.670 -0.5438  3.1490 -2.4538
   86MOL   H26132731   1.528   3.860   5.600  0.5164  0.8882 -3.1174
   86MOL   H26232732   1.396   3.744   5.628  0.6630 -0.3128 -0.9365
   86MOL   H26332733   1.295   3.866   5.395  0.2898 -0.7563 -0.7583
   86MOL   H26432734   1.445   3.942   5.386 -2.6314 -0.0191 -3.2276
   86MOL   H26532735   1.365   3.648   5.369  0.8158 -0.4670 -0.2510
   86MOL   H26632736   1.534   3.709   5.365 -0.4677  1.3727  0.8332
   86MOL   H26732737   1.419   3.748   5.242  1.7825  1.6102  0.6466
   86MOL   C26832738   1.465   4.158   5.863  0.5836  0.3508 -0.3600
   86MOL   C26932739   1.401   4.291   5.916 -1.0640 -0.0078 -0.7751
   86MOL   O27032740   1.373   4.287   6.056 -0.2778  0.0308 -0.3442
   86MOL   C27132741   1.269   4.372   6.101 -0.4516 -0.0807  0.1997
   86MOL   C27232742   1.251   4.343   6.254  0.0729 -0.8752  0.4622
   86MOL   C27332743   1.385   4.335   6.323 -0.3710 -0.4067 -0.1423
   86MOL   C27432744   1.360   4.304   6.474 -0.5296 -0.3511  0.3093
   86MOL   H27532745   1.556   4.126   5.915 -0.9353 -1.9166  0.9738
   86MOL   H27632746   1.497   4.173   5.760  0.4985 -0.2959 -0.4833
   86MOL   H27732747   1.303   4.306   5.872 -1.2409  0.9888 -0.0594
   86MOL   H27832748   1.291   4.479   6.093  1.4989 -0.4292  0.4481
   86MOL   H27932749   1.178   4.336   6.055  0.3849 -2.5449  0.4067
   86MOL   H28032750   1.186   4.425   6.285 -0.4024 -1.4228  0.9138
   86MOL   H28132751   1.200   4.247   6.256 -1.1975 -0.4858 -4.6188
   86MOL   H28232752   1.438   4.430   6.323 -0.9908 -0.0540 -0.1150
   86MOL   H28332753   1.445   4.256   6.279 -1.0132 -0.4438 -0.9556
   86MOL   H28432754   1.339   4.198   6.490 -1.1995 -0.0303  1.6323
   86MOL   H28532755   1.281   4.366   6.516  1.0170  1.1680  1.0602
   86MOL   H28632756   1.454   4.320   6.527 -0.8916  0.5267  0.6946
   86MOL   C28732757   1.493   4.406   5.888 -0.3487 -0.0817 -0.0531
   86MOL   C28832758   1.473   4.475   5.756 -0.7421 -0.5182 -0.3217
   86MOL   O28932759   1.470   4.374   5.652 -0.4865 -0.3889 -0.3813
   86MOL   C29032760   1.458   4.424   5.518 -0.5685 -0.1151  0.5909
   86MOL   C29132761   1.423   4.303   5.422 -0.3102  0.2879  0.2159
   86MOL   C29232762   1.268   4.272   5.414  0.1001 -0.2624 -0.3522
   86MOL   C29332763   1.220   4.170   5.315  0.9167  0.0292  0.2064
   86MOL   H29432764   1.593   4.364   5.892 -0.8948 -1.3508  0.7572
   86MOL   H29532765   1.480   4.482   5.965  0.5276 -0.6249  0.6434
   86MOL   H29632766   1.380   4.530   5.768 -0.3606 -0.1374  1.0840
   86MOL   H29732767   1.393   4.511   5.512 -2.4830 -1.5386  0.1615
   86MOL   H29832768   1.558   4.460   5.495  0.1549 -1.3647  1.7163
   86MOL   H29932769   1.480   4.214   5.448  0.4439  0.4050 -0.9675
   86MOL   H30032770   1.462   4.336   5.326  0.8848  0.5750  0.7889
   86MOL   H30132771   1.226   4.371   5.400 -0.1380 -0.1582  1.0183
   86MOL   H30232772   1.246   4.238   5.515  1.9058 -3.1008 -0.8397
   86MOL   H30332773   1.115   4.156   5.341  0.2054  1.5535 -1.7428
   86MOL   H30432774   1.226   4.204   5.212 -0.8713  0.1297  0.1219
   86MOL   H30532775   1.260   4.069   5.324 -0.4354 -0.5706 -0.2530
   86MOL   C30632776   1.593   4.578   5.740  0.0119 -0.5628  0.6317
   86MOL   C30732777   1.604   4.690   5.853 -0.4884 -0.2560 -0.6510
   86MOL   O30832778   1.516   4.798   5.832  0.1650 -0.0434 -0.1797
   86MOL   C30932779   1.481   4.880   5.944  0.2117  0.8388  0.9193
   86MOL   C31032780   1.374   4.978   5.901  0.9074 -0.0284 -0.4391
   86MOL   C31132781   1.373   5.107   5.993 -0.3265  0.6923 -0.1992
   86MOL   C31232782   1.271   5.214   5.953 -0.9134 -0.0815  0.1667
   86MOL   H31332783   1.688   4.525   5.733  0.5335  0.5284 -0.6460
   86MOL   H31432784   1.582   4.628   5.644 -1.9969  3.2709  2.7196
   86MOL   H31532785   1.601   4.644   5.951  1.9138 -1.1993 -0.9603
   86MOL   H31632786   1.566   4.935   5.984  2.1535 -1.1119 -0.4088
   86MOL   H31732787   1.454   4.827   6.036  2.4839 -0.6968  0.7564
   86MOL   H31832788   1.275   4.933   5.906 -0.4090  2.8140 -0.0875
   86MOL   H31932789   1.384   5.009   5.797 -0.8131  0.3740 -0.5061
   86MOL   H32032790   1.351   5.072   6.094  0.9775  0.7041  0.0982
   86MOL   H32132791   1.473   5.151   5.992 -0.7913  1.7732 -2.4783
   86MOL   H32232792   1.291   5.239   5.849 -0.1584 -0.6974  0.1538
   86MOL   H32332793   1.275   5.304   6.014 -1.7014  0.3131 -0.3610
   86MOL   H32432794   1.173   5.167   5.964 -1.2985  0.2439 -1.7380
   86MOL   C32532795   1.747   4.761   5.849  0.6529  0.0357 -0.5440
   86MOL   C32632796   1.872   4.668   5.847  0.5569  0.7234  0.0198
   86MOL   O32732797   1.892   4.626   5.712  0.0961 -0.2360 -0.1475
   86MOL   C32832798   1.976   4.510   5.708 -0.6452 -0.0900 -0.6218
   86MOL   C32932799   2.036   4.503   5.567 -0.4419  0.7146  0.7025
   86MOL   C33032800   1.926   4.436   5.478 -0.9370 -0.4101 -1.3561
   86MOL   C33132801   1.964   4.445   5.329  0.5279  0.8073  0.3156
   86MOL   H33232802   1.746   4.823   5.939 -1.5446 -1.6416  0.6630
   86MOL   H33332803   1.753   4.828   5.764 -0.6592  0.7502 -0.0864
   86MOL   H33432804   1.846   4.587   5.915 -0.7120  0.9791 -0.1648
   86MOL   H33532805   1.918   4.418   5.718  1.3479 -1.6975 -3.2337
   86MOL   H33632806   2.049   4.519   5.788  0.6361  0.4841 -1.8359
   86MOL   H33732807   2.067   4.601   5.531  1.1033  0.5207  1.4615
   86MOL   H33832808   2.125   4.439   5.560 -1.8998 -1.0762 -2.3445
   86MOL   H33932809   1.829   4.484   5.488 -1.1772 -1.1213 -0.1569
   86MOL   H34032810   1.913   4.331   5.505  0.4478 -0.1348  0.5688
   86MOL   H34132811   1.971   4.545   5.287  1.2598 -0.2749 -2.2358
   86MOL   H34232812   1.898   4.385   5.265  2.1035  0.3471 -0.9307
   86MOL   H34332813   2.062   4.398   5.316 -0.1042 -0.4416 -0.0235
   86MOL   C34432814   1.990   4.754   5.885  0.8157  0.6869 -0.8698
   86MOL   C34532815   2.024   4.769   6.030  0.4187  0.1800  0.0847
   86MOL   O34632816   2.100   4.893   6.032 -0.4229 -0.5311  0.3085
   86MOL   C34732817   2.081   4.968   6.146 -0.1841 -0.3132  0.1053
   86MOL   C34832818   2.177   5.087   6.120  0.7062 -0.7455 -0.2099
   86MOL   C34932819   2.136   5.194   6.017 -0.2330 -0.0566 -0.0587
   86MOL   C35032820   2.246   5.305   6.009 -0.1160  0.0573 -0.0046
   86MOL   H35132821   2.083   4.722   5.839  1.0353 -1.3865  0.9225
   86MOL   H35232822   1.972   4.853   5.843  1.6179  2.1142  2.0100
   86MOL   H35332823   1.937   4.770   6.095  0.1081 -1.2548 -0.2961
   86MOL   H35432824   2.110   4.920   6.239  1.1286  1.9361  0.8932
   86MOL   H35532825   1.980   5.009   6.140  0.9747  2.6333 -0.1947
   86MOL   H35632826   2.274   5.041   6.101  1.6557  2.1247 -2.5205
   86MOL   H35732827   2.183   5.143   6.214 -0.2940  1.0939 -1.2170
   86MOL   H35832828   2.129   5.151   5.917  0.4275 -0.8257  0.2233
   86MOL   H35932829   2.034   5.229   6.037 -0.6486 -0.9932 -0.4907
   86MOL   H36032830   2.345   5.260   6.010 -0.2122 -0.1502  0.3856
   86MOL   H36132831   2.236   5.363   6.101  3.6449  0.8437 -0.0001
   86MOL   H36232832   2.230   5.371   5.924 -0.5202  0.0604  0.0725
   86MOL   C36332833   2.126   4.653   6.072  1.1157 -0.0874  0.3309
   86MOL   C36432834   2.172   4.666   6.213 -0.9095  0.5522 -0.4917
   86MOL   O36532835   2.241   4.545   6.221  0.5908  0.2558 -0.0428
   86MOL   C36632836   2.263   4.502   6.359  0.0097  0.2453 -0.5458
   86MOL   C36732837   2.290   4.353   6.362  0.0361 -0.2593  0.0201
   86MOL   C36832838   2.196   4.269   6.459 -0.1339 -0.3407 -0.2061
   86MOL   C36932839   2.236   4.272   6.607  0.2412  0.1636  0.2414
   86MOL   H37032840   2.210   4.659   6.003  0.4581 -0.5413 -0.5234
   86MOL   H37132841   2.067   4.563   6.053 -0.1384  0.4523  1.5588
   86MOL   H37232842   2.097   4.673   6.292  0.2894  0.7290  0.6458
   86MOL   H37332843   2.167   4.505   6.411 -1.2063 -1.4861 -2.6602
   86MOL   H37432844   2.342   4.554   6.415 -0.4402  0.1731  0.1698
   86MOL   H37532845   2.395   4.325   6.376 -0.9424 -3.1619  2.2445
   86MOL   H37632846   2.278   4.320   6.259  2.5061 -1.8824  0.2056
   86MOL   H37732847   2.195   4.168   6.418  0.6441  0.7753 -3.0463
   86MOL   H37832848   2.091   4.296   6.462 -0.3650 -1.3517  2.0783
   86MOL   H37932849   2.159   4.225   6.669  1.3609 -3.1024 -0.7382
   86MOL   H38032850   2.329   4.220   6.629  0.8534  0.8426 -0.7155
   86MOL   H38132851   2.255   4.377   6.631  0.4863 -0.0447  0.9753
   86MOL   H38232852   2.248   4.741   6.235 -0.6999  0.0251  0.5534
   87MOL     C132853   6.084   2.196   2.105 -0.7801 -0.5774  0.2280
   87MOL     C232854   5.946   2.255   2.137  0.1920  0.0501 -0.0571
   87MOL     O332855   5.910   2.207   2.273  0.5388  0.2985 -0.0573
   87MOL     C432856   5.783   2.237   2.313 -0.6080 -0.2169 -0.3434
   87MOL     C532857   5.763   2.166   2.448 -0.0852 -0.9916  0.1224
   87MOL     C632858   5.869   2.216   2.556  0.6248  0.1315  0.2192
   87MOL     C732859   5.891   2.111   2.663  0.3063  0.0671  0.2403
   87MOL     H832860   6.158   2.248   2.165  0.4166 -0.5457 -1.2457
   87MOL     H932861   6.099   2.090   2.129  3.0102 -0.2363 -0.3337
   87MOL    H1032862   5.876   2.215   2.064 -1.3236 -1.3363  2.0940
   87MOL    H1132863   5.780   2.345   2.329 -0.9819 -0.3460  0.4919
   87MOL    H1232864   5.720   2.211   2.227  1.6553 -1.9926 -1.5060
   87MOL    H1332865   5.770   2.060   2.426 -1.8817 -0.6631 -2.2542
   87MOL    H1432866   5.664   2.178   2.492  0.2681 -0.4491  0.7869
   87MOL    H1532867   5.838   2.314   2.591  2.3041  1.0558 -0.8434
   87MOL    H1632868   5.969   2.235   2.518  0.4483  2.9735  1.1024
   87MOL    H1732869   5.801   2.070   2.710 -0.1188  1.0151  0.2703
   87MOL    H1832870   5.946   2.159   2.744  1.7703 -1.2191  0.0298
   87MOL    H1932871   5.952   2.028   2.628  1.0721  0.3412  0.9121
   87MOL    H2032872   6.126   2.223   2.008  1.2494  1.7798  1.7111
   87MOL    C2132873   5.942   2.409   2.138  0.3880  0.4611  0.1012
   87MOL    C2232874   5.989   2.487   2.015 -0.5202  0.4796  0.1540
   87MOL    O2332875   5.902   2.593   1.987 -0.0378 -0.0355  0.1229
   87MOL    C2432876   5.780   2.565   1.917 -0.6348 -0.1500 -0.6794
   87MOL    C2532877   5.678   2.678   1.922  0.2502 -0.0821 -0.4087
   87MOL    C2632878   5.546   2.643   1.872 -0.2465 -0.1164 -0.1152
   87MOL    C2732879   5.444   2.753   1.899  0.4256  0.5953  0.2384
   87MOL    H2832880   5.988   2.441   2.231  0.9648  0.1973 -0.0883
   87MOL    H2932881   5.836   2.432   2.152  0.2287  0.3283 -0.8128
   87MOL    H3032882   5.995   2.420   1.929 -0.3514  0.6924 -0.0001
   87MOL    H3132883   5.742   2.479   1.971  0.9699 -0.4163  0.0587
   87MOL    H3232884   5.808   2.526   1.819 -1.4833  0.7522 -1.2983
   87MOL    H3332885   5.678   2.721   2.022 -0.8584 -0.3230 -0.3058
   87MOL    H3432886   5.720   2.764   1.870  1.3960 -1.9978 -2.7648
   87MOL    H3532887   5.541   2.622   1.765  0.2200  0.5423 -0.2716
   87MOL    H3632888   5.514   2.555   1.928  2.2987 -0.1601  1.3505
   87MOL    H3732889   5.451   2.849   1.848 -2.1076  0.6759 -0.0334
   87MOL    H3832890   5.357   2.702   1.859 -0.1362  2.6217 -1.2279
   87MOL    H3932891   5.426   2.772   2.005 -0.6828 -0.8855  0.3169
   87MOL    C4032892   6.120   2.564   2.042  0.4439 -0.9559 -0.0289
   87MOL    C4132893   6.202   2.606   1.922 -0.1443 -0.2518  0.1272
   87MOL    O4232894   6.283   2.492   1.883 -0.5330 -0.4562 -0.6882
   87MOL    C4332895   6.243   2.421   1.770  0.2061  0.4863 -0.4018
   87MOL    C4432896   6.362   2.347   1.715  0.5862  0.2914  0.0349
   87MOL    C4532897   6.321   2.274   1.588 -0.2801 -0.1526  0.4298
   87MOL    C4632898   6.444   2.217   1.520  1.0120 -0.4020 -0.0922
   87MOL    H4732899   6.187   2.499   2.099  1.6263 -1.3439 -1.8108
   87MOL    H4832900   6.098   2.653   2.100  1.0083  0.5567 -2.1060
   87MOL    H4932901   6.136   2.642   1.842  0.6645  3.3765  0.9991
   87MOL    H5032902   6.201   2.485   1.692 -0.9047 -1.9207 -1.8456
   87MOL    H5132903   6.166   2.352   1.805  1.2380  0.5065  1.9624
   87MOL    H5232904   6.410   2.277   1.784  2.2713  1.3364 -0.0384
   87MOL    H5332905   6.445   2.410   1.682 -0.3361  1.4936 -0.0461
   87MOL    H5432906   6.275   2.345   1.519 -0.1321 -0.8419 -0.3835
   87MOL    H5532907   6.247   2.196   1.608  1.4210 -2.1315 -0.8590
   87MOL    H5632908   6.400   2.184   1.426  0.5922  1.1588 -0.4502
   87MOL    H5732909   6.521   2.291   1.500  1.5546 -0.2797  2.2896
   87MOL    H5832910   6.496   2.139   1.575  0.9410  0.5753  1.3883
   87MOL    C5932911   6.293   2.720   1.940 -0.5325 -0.0940 -0.0024
   87MOL    C6032912   6.352   2.779   1.810 -0.9538 -0.5166  0.0690
   87MOL    O6132913   6.247   2.833   1.730  0.5943 -0.5320 -0.1750
   87MOL    C6232914   6.218   2.776   1.602  0.4632 -0.3817 -0.4983
   87MOL    C6332915   6.075   2.805   1.541 -0.1093  0.0458  0.2465
   87MOL    C6432916   5.971   2.713   1.601 -0.1081 -0.7625 -0.0414
   87MOL    C6532917   5.837   2.713   1.521 -0.6123 -0.9293 -0.2538
   87MOL    H6632918   6.234   2.805   1.975  1.2627  0.0099  3.0025
   87MOL    H6732919   6.362   2.694   2.020  1.2908  2.0311 -0.8258
   87MOL    H6832920   6.391   2.691   1.759  0.3915  0.1028  0.0199
   87MOL    H6932921   6.238   2.670   1.611  0.7650 -0.3445 -0.7241
   87MOL    H7032922   6.298   2.810   1.536  0.1752  2.0046  0.3049
   87MOL    H7132923   6.045   2.907   1.566  1.1475  0.9751 -1.8924
   87MOL    H7232924   6.077   2.789   1.433 -1.2956 -2.3377  0.5543
   87MOL    H7332925   6.010   2.611   1.600  1.2827 -0.2483  0.2488
   87MOL    H7432926   5.957   2.743   1.705 -2.3619 -0.9227 -0.2858
   87MOL    H7532927   5.856   2.675   1.421  1.5086 -1.6113  0.3779
   87MOL    H7632928   5.752   2.656   1.559 -1.2810 -0.6017 -1.2464
   87MOL    H7732929   5.810   2.818   1.510  0.6839 -0.8289 -2.7867
   87MOL    C7832930   6.467   2.878   1.843  0.0394 -0.3155  0.5926
   87MOL    C7932931   6.552   2.912   1.725 -0.2034  0.3905  0.4347
   87MOL    O8032932   6.645   2.804   1.688  0.1400 -0.0348 -0.3130
   87MOL    C8132933   6.614   2.757   1.556  0.2553  0.2634 -0.6486
   87MOL    C8232934   6.711   2.643   1.508 -0.3347  0.2195  0.6620
   87MOL    C8332935   6.858   2.676   1.497 -0.7047 -0.1705 -0.4684
   87MOL    C8432936   6.900   2.773   1.389  0.0591  0.6548 -0.1904
   87MOL    H8532937   6.535   2.844   1.921 -0.4841 -1.9203  0.3750
   87MOL    H8632938   6.415   2.967   1.878  0.1679 -0.2391  0.5902
   87MOL    H8732939   6.484   2.953   1.651 -1.1243 -1.7395  0.0537
   87MOL    H8832940   6.603   2.843   1.490  0.3072  2.4038  2.0206
   87MOL    H8932941   6.514   2.714   1.552 -0.6010  1.9007  1.9622
   87MOL    H9032942   6.706   2.564   1.583 -2.3891 -2.6365 -2.3248
   87MOL    H9132943   6.677   2.603   1.413  0.8808  0.1770  0.2430
   87MOL    H9232944   6.899   2.576   1.488  1.0121  0.3579  1.1037
   87MOL    H9332945   6.887   2.717   1.594 -1.4621  1.6880 -1.0023
   87MOL    H9432946   6.855   2.870   1.410 -0.0060  0.2561  1.5594
   87MOL    H9532947   7.007   2.788   1.374  0.2273  0.0583  0.4161
   87MOL    H9632948   6.863   2.736   1.294 -1.0185  1.6192 -0.1603
   87MOL    C9732949   6.641   3.039   1.763 -0.3049 -0.1919 -0.5401
   87MOL    C9832950   6.722   3.084   1.642 -0.3885  0.5955 -0.6738
   87MOL    O9932951   6.642   3.123   1.527 -0.3951  0.2467 -0.4310
   87MOL   C10032952   6.558   3.238   1.535  0.2757  0.6064  0.1287
   87MOL   C10132953   6.462   3.234   1.415 -0.5704  0.9255  0.1618
   87MOL   C10232954   6.385   3.362   1.376 -0.2936  0.5186 -0.0176
   87MOL   C10332955   6.338   3.349   1.231 -0.1253 -0.0551  0.0180
   87MOL   H10432956   6.705   3.009   1.846 -0.9052  1.1626  0.4392
   87MOL   H10532957   6.579   3.121   1.799 -0.9501 -0.4819 -0.9812
   87MOL   H10632958   6.782   3.003   1.600  1.0609  1.4488 -0.3145
   87MOL   H10732959   6.619   3.328   1.527  0.5268  0.4304  0.0633
   87MOL   H10832960   6.490   3.245   1.620  1.0866 -1.8394  1.0095
   87MOL   H10932961   6.393   3.151   1.430 -0.3243  1.0722  2.1767
   87MOL   H11032962   6.523   3.202   1.331 -2.7996 -1.0136 -0.7859
   87MOL   H11132963   6.459   3.441   1.390  1.9992 -1.4641 -0.6087
   87MOL   H11232964   6.298   3.376   1.440 -1.0853  0.9919 -1.1806
   87MOL   H11332965   6.296   3.448   1.213 -0.4624  0.1110  1.6700
   87MOL   H11432966   6.426   3.337   1.167 -0.3698 -0.6775 -0.2076
   87MOL   H11532967   6.249   3.289   1.212 -0.6159  1.4404 -2.6463
   87MOL   C11632968   6.820   3.199   1.679 -0.1241 -0.6068  0.4250
   87MOL   C11732969   6.929   3.166   1.779  0.6214 -0.1405 -0.3343
   87MOL   O11832970   7.008   3.065   1.734  0.8974  0.0826  0.1897
   87MOL   C11932971   7.003   2.954   1.806  0.4239  1.1956 -0.0718
   87MOL   C12032972   7.093   2.845   1.742 -0.6705  0.0446 -0.2707
   87MOL   C12132973   7.231   2.854   1.794  0.2230 -0.1402  0.2683
   87MOL   C12232974   7.306   2.960   1.728 -0.6712 -0.4038  0.7918
   87MOL   H12332975   6.873   3.231   1.589 -0.2696  3.0840  1.5727
   87MOL   H12432976   6.763   3.290   1.700 -1.4684 -0.8867 -1.8708
   87MOL   H12532977   6.891   3.145   1.879  0.5268 -0.8749 -0.5165
   87MOL   H12632978   6.901   2.915   1.795  1.2015 -0.7400 -0.7210
   87MOL   H12732979   7.025   2.965   1.912 -1.8212  2.5424  0.2883
   87MOL   H12832980   7.094   2.852   1.633  5.0237 -1.0309 -0.4785
   87MOL   H12932981   7.061   2.744   1.769  1.6852 -0.0566  2.3448
   87MOL   H13032982   7.223   2.861   1.902 -0.4692  1.8034  0.1076
   87MOL   H13132983   7.275   2.757   1.770  0.7128 -0.4003  2.1531
   87MOL   H13232984   7.253   3.055   1.739 -0.5765  0.1500 -2.8938
   87MOL   H13332985   7.330   2.947   1.622  1.3686  4.0031  0.5918
   87MOL   H13432986   7.404   2.980   1.772 -0.4237 -2.5276  1.2536
   87MOL   C13532987   7.027   3.285   1.795  0.2422 -0.7168 -0.2000
   87MOL   C13632988   7.105   3.283   1.931 -0.7281  0.3576  1.2239
   87MOL   O13732989   7.217   3.369   1.897 -0.2443  0.3573  0.2385
   87MOL   C13832990   7.348   3.309   1.881  0.5478 -0.0308 -0.1465
   87MOL   C13932991   7.465   3.405   1.890  0.0300 -0.3625 -0.0798
   87MOL   C14032992   7.481   3.464   2.028  0.3439 -0.2280  0.1797
   87MOL   C14132993   7.566   3.592   2.028  0.0885  0.3706  0.1163
   87MOL   H14232994   6.970   3.378   1.794 -0.4204 -1.1194 -0.6311
   87MOL   H14332995   7.100   3.281   1.715 -0.0163 -0.6922 -0.4360
   87MOL   H14432996   7.127   3.180   1.959 -0.9261 -0.0803 -0.1773
   87MOL   H14532997   7.362   3.247   1.792 -0.6025 -1.6169  0.7434
   87MOL   H14632998   7.358   3.245   1.969 -1.6805  1.6323  1.3649
   87MOL   H14732999   7.435   3.483   1.820 -2.4551 -2.3260 -1.2612
   87MOL   H14833000   7.564   3.371   1.860  0.5905  0.6206  0.5858
   87MOL   H14933001   7.381   3.487   2.067  0.3008  0.6066 -0.4168
   87MOL   H15033002   7.531   3.396   2.097 -0.4488 -0.8044  0.1962
   87MOL   H15133003   7.540   3.654   1.942  1.9312  1.0078  0.0011
   87MOL   H15233004   7.545   3.648   2.120  1.7178 -0.2461  0.8874
   87MOL   H15333005   7.667   3.561   2.053  0.4757  0.8011 -0.9000
   87MOL   C15433006   7.022   3.352   2.043  0.2469 -0.4853  0.0911
   87MOL   C15533007   7.059   3.301   2.187  0.1514 -0.2905  0.5376
   87MOL   O15633008   6.964   3.188   2.219 -0.1252 -0.2662  0.1811
   87MOL   C15733009   7.026   3.065   2.262 -0.4399 -0.4949  0.5048
   87MOL   C15833010   6.909   2.970   2.297  0.2333 -0.2213 -0.1528
   87MOL   C15933011   6.838   2.901   2.185 -0.1586 -0.1995  0.1875
   87MOL   C16033012   6.728   2.814   2.242  0.0963  0.0366 -0.2771
   87MOL   H16133013   6.916   3.346   2.022 -0.0622  2.3285  0.6880
   87MOL   H16233014   7.047   3.458   2.033 -2.0326  0.3091  2.3776
   87MOL   H16333015   7.165   3.274   2.185  0.0631 -0.5820 -0.0441
   87MOL   H16433016   7.082   3.034   2.174  0.4121 -2.0717  1.5654
   87MOL   H16533017   7.094   3.073   2.347  1.2248  1.1317 -0.9645
   87MOL   H16633018   6.837   3.026   2.356 -0.6736 -0.3321 -1.1378
   87MOL   H16733019   6.946   2.894   2.366  0.5069 -1.0809 -1.2230
   87MOL   H16833020   6.790   2.970   2.117  0.9693  0.2424 -0.1711
   87MOL   H16933021   6.912   2.845   2.128 -0.3151  1.6809 -1.9216
   87MOL   H17033022   6.663   2.879   2.301  0.8263  0.7378 -0.2337
   87MOL   H17133023   6.670   2.773   2.160  1.5496  0.7883 -1.7082
   87MOL   H17233024   6.768   2.736   2.308 -0.5310 -1.7415 -1.9663
   87MOL   C17333025   7.046   3.417   2.292  0.1021 -0.2494 -0.2755
   87MOL   C17433026   7.079   3.373   2.437  0.6659 -0.1735 -0.5858
   87MOL   O17533027   7.216   3.336   2.436  0.3488 -0.4544  0.0751
   87MOL   C17633028   7.256   3.286   2.563 -0.7557  0.1976  0.3142
   87MOL   C17733029   7.370   3.187   2.534 -0.6984  0.0975 -0.3951
   87MOL   C17833030   7.320   3.054   2.483 -0.5299 -0.1322 -0.0123
   87MOL   C17933031   7.419   2.933   2.490  0.7074 -0.5743  0.0581
   87MOL   H18033032   6.951   3.470   2.283 -0.2050 -0.8600 -0.6977
   87MOL   H18133033   7.116   3.491   2.253 -1.5579  1.6863  0.3738
   87MOL   H18233034   7.010   3.290   2.453 -0.2681  0.7403  0.1614
   87MOL   H18333035   7.179   3.248   2.630 -0.1139  1.8416  2.0015
   87MOL   H18433036   7.297   3.369   2.619 -0.1564  0.2576 -0.2082
   87MOL   H18533037   7.429   3.178   2.625 -1.3420  0.3243  0.0430
   87MOL   H18633038   7.432   3.224   2.452 -2.9791  1.4891 -1.5431
   87MOL   H18733039   7.232   3.026   2.541 -0.2929  0.5351  0.6692
   87MOL   H18833040   7.299   3.067   2.377 -1.9543  1.4198  0.4373
   87MOL   H18933041   7.437   2.916   2.596  1.3668  2.1471  0.4051
   87MOL   H19033042   7.375   2.842   2.449  2.2217 -1.0081 -0.6364
   87MOL   H19133043   7.494   2.964   2.417 -1.2061 -0.0763 -1.7513
   87MOL   C19233044   7.050   3.488   2.542 -0.1317  0.3329  0.6432
   87MOL   C19333045   6.902   3.534   2.547  0.2172 -0.1878 -0.7148
   87MOL   O19433046   6.834   3.455   2.640 -0.3512 -0.3512  0.7133
   87MOL   C19533047   6.808   3.319   2.617 -0.7905 -1.2227 -0.1496
   87MOL   C19633048   6.694   3.280   2.715 -0.5142  0.6957  0.1126
   87MOL   C19733049   6.736   3.301   2.863 -0.5165  0.1248  0.3121
   87MOL   C19833050   6.644   3.231   2.969  0.3974  0.5724  0.1036
   87MOL   H19933051   7.117   3.567   2.511  0.0165 -0.1691 -0.3293
   87MOL   H20033052   7.089   3.453   2.638  0.1746 -0.2084  0.3213
   87MOL   H20133053   6.847   3.523   2.453  0.3886 -2.6928 -0.5535
   87MOL   H20233054   6.903   3.269   2.634  0.7344  1.8294  0.4872
   87MOL   H20333055   6.767   3.296   2.519 -0.7080  0.1700 -0.5113
   87MOL   H20433056   6.607   3.344   2.697 -0.9199 -0.0255 -0.5112
   87MOL   H20533057   6.684   3.172   2.706  0.7356  0.6533 -0.8705
   87MOL   H20633058   6.740   3.409   2.877  1.6295  0.3702 -1.8305
   87MOL   H20733059   6.839   3.268   2.878 -0.5878 -1.1892 -1.8073
   87MOL   H20833060   6.639   3.130   2.928  0.2779  1.3774 -1.9402
   87MOL   H20933061   6.683   3.235   3.071 -0.2217  1.0580  0.3273
   87MOL   H21033062   6.544   3.275   2.967 -1.2538 -3.0372 -1.2114
   87MOL   C21133063   6.876   3.679   2.591  0.5548 -0.0874 -0.5406
   87MOL   C21233064   6.736   3.721   2.597  0.6271  0.4412  0.1171
   87MOL   O21333065   6.702   3.772   2.726 -0.8769  0.3295  0.1345
   87MOL   C21433066   6.690   3.678   2.831  0.3878  0.1473  0.8000
   87MOL   C21533067   6.626   3.757   2.943  0.8180 -0.6892 -1.0709
   87MOL   C21633068   6.718   3.868   3.003 -0.4982 -0.0063 -0.5832
   87MOL   C21733069   6.646   3.952   3.108  0.4979 -0.0940 -1.0884
   87MOL   H21833070   6.926   3.756   2.534  2.2361  0.6710  1.8774
   87MOL   H21933071   6.920   3.673   2.691  1.2924 -1.7912 -0.9557
   87MOL   H22033072   6.673   3.633   2.579  2.5162 -0.4725 -2.2854
   87MOL   H22133073   6.620   3.598   2.808  0.0678  1.2299 -2.2544
   87MOL   H22233074   6.786   3.630   2.849 -0.3877 -2.2917 -1.2254
   87MOL   H22333075   6.526   3.786   2.914  0.5457 -0.0356  0.4424
   87MOL   H22433076   6.614   3.682   3.021 -0.5318  0.7701  0.1615
   87MOL   H22533077   6.747   3.934   2.922 -0.8835 -1.7162 -2.1352
   87MOL   H22633078   6.814   3.826   3.035 -0.5461  0.1773 -0.1884
   87MOL   H22733079   6.688   4.050   3.131 -1.5420  0.5801 -0.1232
   87MOL   H22833080   6.630   3.896   3.200  0.1889 -0.2435 -1.2358
   87MOL   H22933081   6.544   3.967   3.073 -0.2652  1.8148  1.7603
   87MOL   C23033082   6.699   3.827   2.491 -0.2155  0.5303 -0.0491
   87MOL   C23133083   6.698   3.783   2.339 -0.5878 -0.2680 -0.6166
   87MOL   O23233084   6.831   3.763   2.285 -0.3825  0.0388  0.1761
   87MOL   C23333085   6.912   3.874   2.257 -0.3977 -0.1260  0.2351
   87MOL   C23433086   7.037   3.819   2.185  0.2113 -0.1179  0.2296
   87MOL   C23533087   7.016   3.736   2.061  0.5734  0.7623 -0.2979
   87MOL   C23633088   7.147   3.706   1.984  0.0665  0.4826 -0.9115
   87MOL   H23733089   6.761   3.916   2.500  1.6606 -0.3781 -3.2165
   87MOL   H23833090   6.602   3.871   2.515 -2.2974 -3.1062 -1.3527
   87MOL   H23933091   6.656   3.867   2.285 -1.5782  0.4099  1.1930
   87MOL   H24033092   6.853   3.946   2.201 -0.5330  0.3689  1.0119
   87MOL   H24133093   6.943   3.925   2.348 -0.6337 -0.2485  0.3833
   87MOL   H24233094   7.086   3.912   2.155 -0.8606 -0.1752 -1.8068
   87MOL   H24333095   7.121   3.780   2.244  0.5896 -0.2067 -0.3613
   87MOL   H24433096   6.943   3.773   1.989  0.9206  0.4643 -0.8127
   87MOL   H24533097   6.966   3.649   2.101 -0.4589  1.4969  0.0343
   87MOL   H24633098   7.117   3.640   1.902 -1.1104 -1.5271  1.0818
   87MOL   H24733099   7.211   3.647   2.051 -2.0138 -0.2583  0.4864
   87MOL   H24833100   7.211   3.786   1.947  1.9408 -0.0221  1.1231
   87MOL   C24933101   6.607   3.660   2.308 -0.7237  0.1768  0.3015
   87MOL   C25033102   6.466   3.651   2.385  0.3249 -0.3066  0.7665
   87MOL   O25133103   6.414   3.524   2.348  0.7367  0.2680 -0.2754
   87MOL   C25233104   6.428   3.418   2.449 -0.4388 -0.0942 -0.9126
   87MOL   C25333105   6.452   3.293   2.361 -0.2082 -0.3404 -0.7403
   87MOL   C25433106   6.561   3.294   2.257  0.1861 -0.7870  0.1626
   87MOL   C25533107   6.584   3.162   2.189 -0.3526 -0.0001 -0.4393
   87MOL   H25633108   6.674   3.575   2.315 -0.8712 -0.0347 -0.7553
   87MOL   H25733109   6.578   3.661   2.203 -1.9224 -0.0347  0.6272
   87MOL   H25833110   6.480   3.653   2.494  2.0679  1.5850  0.5484
   87MOL   H25933111   6.356   3.406   2.530 -1.7594  0.0066 -2.0548
   87MOL   H26033112   6.527   3.434   2.492 -1.2812 -3.5255  2.5334
   87MOL   H26133113   6.491   3.209   2.418  1.1050 -1.9993 -3.9282
   87MOL   H26233114   6.359   3.252   2.323 -0.5914 -1.7494  1.6408
   87MOL   H26333115   6.553   3.364   2.174 -0.6179 -1.8436 -0.6656
   87MOL   H26433116   6.655   3.312   2.310  0.3744 -0.5966 -0.2369
   87MOL   H26533117   6.586   3.087   2.268 -0.4266 -0.5414 -0.9451
   87MOL   H26633118   6.679   3.169   2.135 -0.0049  0.9326  0.2829
   87MOL   H26733119   6.518   3.134   2.107  0.5469  1.2143 -1.6049
   87MOL   C26833120   6.371   3.758   2.341  0.7320  0.2045 -0.1301
   87MOL   C26933121   6.253   3.783   2.446 -0.1207  0.4134  0.2455
   87MOL   O27033122   6.327   3.823   2.574  0.4128  0.1231 -0.3879
   87MOL   C27133123   6.261   3.784   2.697 -0.2745 -0.5881  0.3803
   87MOL   C27233124   6.250   3.632   2.713  0.7244 -0.0087  0.6078
   87MOL   C27333125   6.171   3.588   2.842 -0.4726  0.6059 -0.0208
   87MOL   C27433126   6.154   3.433   2.846  0.3508 -0.2630 -0.1282
   87MOL   H27533127   6.420   3.855   2.333 -1.6714  1.6892  2.5510
   87MOL   H27633128   6.325   3.733   2.245 -0.2257 -1.2340  0.6928
   87MOL   H27733129   6.194   3.691   2.443 -2.5845  1.9766  0.0206
   87MOL   H27833130   6.339   3.810   2.768 -0.0404  1.5233 -0.5932
   87MOL   H27933131   6.168   3.836   2.721 -0.6488 -0.7429 -0.6954
   87MOL   H28033132   6.198   3.592   2.626 -0.4663  1.6220  0.5634
   87MOL   H28133133   6.350   3.589   2.704 -0.8887 -3.9768  0.7545
   87MOL   H28233134   6.074   3.638   2.844 -0.2307  1.0686  0.1106
   87MOL   H28333135   6.228   3.612   2.931  0.6139 -1.1494 -0.2033
   87MOL   H28433136   6.243   3.392   2.894  1.5407 -1.1860 -3.0438
   87MOL   H28533137   6.155   3.394   2.744  0.4712 -0.2961 -0.1146
   87MOL   H28633138   6.062   3.400   2.895  0.1308 -0.4861 -0.6919
   87MOL   C28733139   6.154   3.895   2.409 -0.0698 -0.9187  0.6355
   87MOL   C28833140   6.020   3.902   2.481  0.2177  0.3116 -0.3476
   87MOL   O28933141   5.937   3.799   2.437  0.2180 -0.2743  0.9877
   87MOL   C29033142   5.895   3.707   2.537  0.1856  0.0408  0.2544
   87MOL   C29133143   5.798   3.610   2.471  0.2284 -0.2762  1.0246
   87MOL   C29233144   5.667   3.687   2.429  0.5932  0.2229  0.4516
   87MOL   C29333145   5.555   3.598   2.377  0.3093  0.8159  0.4473
   87MOL   H29433146   6.128   3.865   2.307  0.4791  0.5564  0.0410
   87MOL   H29533147   6.199   3.995   2.407 -2.4447  0.1735 -0.4373
   87MOL   H29633148   6.042   3.897   2.588 -1.4277  0.7386  0.0291
   87MOL   H29733149   5.983   3.648   2.560 -0.7998 -0.8022  1.9418
   87MOL   H29833150   5.854   3.755   2.626  0.4571  2.0388 -0.6673
   87MOL   H29933151   5.767   3.529   2.536 -0.8958 -0.6178  0.0707
   87MOL   H30033152   5.836   3.565   2.379 -2.0118 -0.4444  0.1492
   87MOL   H30133153   5.703   3.756   2.352 -0.3394  0.2212  0.0062
   87MOL   H30233154   5.615   3.756   2.496 -1.9808  0.0947 -1.3146
   87MOL   H30333155   5.517   3.538   2.460  1.0393 -1.8915 -1.1050
   87MOL   H30433156   5.471   3.651   2.333 -0.7130 -2.7166 -2.0320
   87MOL   H30533157   5.588   3.536   2.294 -1.6385 -1.0105  0.9869
   87MOL   C30633158   5.935   4.026   2.458  0.1838 -0.4371 -0.5131
   87MOL   C30733159   5.955   4.131   2.575  0.3115 -0.1322 -0.1788
   87MOL   O30833160   5.842   4.210   2.598  0.2075  0.0140  0.5504
   87MOL   C30933161   5.769   4.186   2.714  0.1067 -0.3702  0.5901
   87MOL   C31033162   5.647   4.286   2.731  0.8488 -0.6294 -1.0863
   87MOL   C31133163   5.555   4.249   2.845  0.1433 -0.8747 -0.0900
   87MOL   C31233164   5.412   4.307   2.832 -0.0499  0.0281  0.7004
   87MOL   H31333165   5.954   4.071   2.361  2.5639 -3.2659 -1.4391
   87MOL   H31433166   5.828   4.014   2.471 -0.2253  1.8057 -1.6993
   87MOL   H31533167   5.982   4.079   2.668  0.3012 -1.1125 -0.7218
   87MOL   H31633168   5.836   4.179   2.800  1.7804 -0.3997 -0.6909
   87MOL   H31733169   5.748   4.079   2.713  1.0032 -0.5533 -1.3023
   87MOL   H31833170   5.594   4.290   2.636 -0.7306  2.7171 -0.1285
   87MOL   H31933171   5.687   4.388   2.735  0.9329 -0.6584 -1.1562
   87MOL   H32033172   5.549   4.140   2.837 -0.4106 -0.7727 -1.1703
   87MOL   H32133173   5.586   4.279   2.945  3.4963  1.2628 -1.6730
   87MOL   H32233174   5.355   4.294   2.924  1.3228  1.2967  1.7599
   87MOL   H32333175   5.360   4.259   2.749  1.5049  1.4579 -1.1417
   87MOL   H32433176   5.409   4.416   2.823 -0.2878  0.1177  1.7985
   87MOL   C32533177   6.076   4.222   2.533 -0.4387  0.1108  0.2937
   87MOL   C32633178   6.108   4.323   2.632 -0.9432 -0.0082 -0.0083
   87MOL   O32733179   6.178   4.264   2.737  0.4261 -0.0670  0.2774
   87MOL   C32833180   6.129   4.288   2.868  0.2491 -1.0355 -0.5917
   87MOL   C32933181   6.255   4.270   2.947  0.1511 -0.1838  0.4127
   87MOL   C33033182   6.241   4.294   3.093 -0.1826  0.2432 -0.2609
   87MOL   C33133183   6.354   4.216   3.166 -0.4528  0.3298  0.1643
   87MOL   H33233184   6.037   4.264   2.440 -1.9133 -1.6658  0.0635
   87MOL   H33333185   6.169   4.170   2.512 -0.7778 -0.3864  0.0119
   87MOL   H33433186   6.017   4.368   2.672  0.1861  0.7507  1.7823
   87MOL   H33533187   6.045   4.225   2.898  0.5873 -0.3742  1.8648
   87MOL   H33633188   6.095   4.390   2.883 -0.7380 -1.0701 -2.4266
   87MOL   H33733189   6.290   4.168   2.930 -1.9009 -0.8986  0.3202
   87MOL   H33833190   6.336   4.331   2.908  0.1441  0.7284  1.8046
   87MOL   H33933191   6.150   4.252   3.134  0.8058 -1.3604  0.3198
   87MOL   H34033192   6.250   4.401   3.114  3.7412 -0.0519 -0.0008
   87MOL   H34133193   6.448   4.233   3.113 -0.2261  0.3815  0.5755
   87MOL   H34233194   6.323   4.113   3.180 -0.4841  0.0995 -1.5327
   87MOL   H34333195   6.375   4.264   3.262 -2.3869  1.1346  0.2055
   87MOL   C34433196   6.207   4.425   2.577  0.0487  0.7390 -0.1292
   87MOL   C34533197   6.232   4.546   2.660  0.3876  0.1936 -1.1509
   87MOL   O34633198   6.109   4.616   2.683 -0.2625  0.0510 -0.6487
   87MOL   C34733199   6.111   4.699   2.800  0.2125 -0.8801  0.0672
   87MOL   C34833200   5.976   4.772   2.807  0.1646  0.1733  0.1077
   87MOL   C34933201   5.854   4.679   2.798  0.1526 -0.3068  0.1318
   87MOL   C35033202   5.724   4.735   2.854  0.7859  0.3758  0.1896
   87MOL   H35133203   6.303   4.377   2.556 -0.1020 -0.0522  0.9530
   87MOL   H35233204   6.167   4.463   2.484 -0.4896 -0.5715 -0.4405
   87MOL   H35333205   6.268   4.521   2.760  0.7034 -0.4139 -1.4140
   87MOL   H35433206   6.186   4.777   2.810 -1.7267  0.7395  2.4991
   87MOL   H35533207   6.133   4.644   2.891  0.0449  0.0284  0.6577
   87MOL   H35633208   5.979   4.845   2.726 -0.0183 -0.8059 -0.7869
   87MOL   H35733209   5.972   4.839   2.893 -0.1877 -0.3399  0.4953
   87MOL   H35833210   5.829   4.659   2.693 -0.0102  0.5117  0.0091
   87MOL   H35933211   5.867   4.574   2.824  0.5397 -0.5866 -1.1346
   87MOL   H36033212   5.702   4.839   2.830 -1.7602  0.3297  2.1854
   87MOL   H36133213   5.741   4.731   2.962  0.2598  0.1787  0.2655
   87MOL   H36233214   5.639   4.672   2.828  0.1565  1.2115  0.1904
   87MOL   C36333215   6.319   4.652   2.583 -0.9147  0.0656 -0.6702
   87MOL   C36433216   6.458   4.597   2.547 -0.7944  0.4338  0.6758
   87MOL   O36533217   6.536   4.709   2.511 -0.1939 -0.7813 -0.0153
   87MOL   C36633218   6.664   4.683   2.462 -0.2395  0.6905  0.4288
   87MOL   C36733219   6.763   4.631   2.568 -0.5820  0.8846  0.1565
   87MOL   C36833220   6.906   4.621   2.513  0.2254 -0.2353 -0.2038
   87MOL   C36933221   7.003   4.578   2.623  0.0946  0.1246 -0.4077
   87MOL   H37033222   6.349   4.734   2.649  0.2019 -1.1182  0.3072
   87MOL   H37133223   6.265   4.700   2.501 -1.1706  1.0000  0.0278
   87MOL   H37233224   6.448   4.526   2.466  0.3515  3.1124 -1.8897
   87MOL   H37333225   6.689   4.782   2.422  1.4811 -0.7397 -2.1995
   87MOL   H37433226   6.656   4.609   2.383 -1.1337  1.6696 -0.4114
   87MOL   H37533227   6.733   4.537   2.614  0.2794  0.1229 -0.7958
   87MOL   H37633228   6.769   4.700   2.652  2.0093 -0.6993  1.3502
   87MOL   H37733229   6.934   4.720   2.475 -0.9260  0.0352 -0.3794
   87MOL   H37833230   6.907   4.546   2.434 -2.5672 -2.9327  2.1947
   87MOL   H37933231   6.980   4.475   2.649 -0.5483 -0.0941 -1.7991
   87MOL   H38033232   7.103   4.579   2.581  0.6269 -3.4798  0.6204
   87MOL   H38133233   7.000   4.648   2.708 -0.0777  0.1849 -0.4616
   87MOL   H38233234   6.514   4.536   2.618  0.3271  0.7957  0.1081
   88MOL     C133235   5.129   5.020   3.520  0.0564 -0.1714 -0.2671
   88MOL     C233236   5.160   5.170   3.482 -0.0188 -0.3893 -0.0727
   88MOL     O333237   5.111   5.260   3.588 -0.4312 -0.3073  0.2604
   88MOL     C433238   4.972   5.278   3.607  0.0059  0.4333  1.1716
   88MOL     C533239   4.957   5.393   3.707 -0.0472 -0.0797 -0.9114
   88MOL     C633240   5.006   5.351   3.845 -0.1808  0.0582 -0.9441
   88MOL     C733241   4.998   5.471   3.941  0.2171  0.6209  0.2139
   88MOL     H833242   5.178   4.961   3.442  0.5311  1.1142 -0.9596
   88MOL     H933243   5.157   4.991   3.621  1.1224 -1.8400 -1.0164
   88MOL    H1033244   5.123   5.196   3.383 -0.0078  0.5542  0.1721
   88MOL    H1133245   4.941   5.318   3.510  0.3503 -1.0796  0.4162
   88MOL    H1233246   4.913   5.190   3.629  3.0127 -1.7928  0.7275
   88MOL    H1333247   4.851   5.404   3.726  0.1074  0.6472 -0.4584
   88MOL    H1433248   5.007   5.478   3.661  0.2255 -0.3165 -1.0578
   88MOL    H1533249   5.109   5.316   3.841 -0.7316 -1.4712 -2.1161
   88MOL    H1633250   4.940   5.278   3.894  0.6088  0.5699  0.9399
   88MOL    H1733251   4.897   5.505   3.966 -0.1232  0.1175 -0.4474
   88MOL    H1833252   5.067   5.545   3.902 -0.0519  0.3223 -0.8477
   88MOL    H1933253   5.048   5.442   4.034  0.4523  0.7165  0.1157
   88MOL    H2033254   5.024   4.996   3.502  0.5189 -1.8431 -0.8768
   88MOL    C2133255   5.309   5.195   3.489  0.2218  0.4420 -0.7594
   88MOL    C2233256   5.405   5.113   3.401  0.0664 -0.4315 -0.2092
   88MOL    O2333257   5.381   5.159   3.267  0.1221  0.2592 -0.2182
   88MOL    C2433258   5.458   5.094   3.157  0.4313 -1.0242 -0.3279
   88MOL    C2533259   5.417   5.152   3.022  1.3133  0.3286 -0.4320
   88MOL    C2633260   5.518   5.253   2.953 -0.0322 -0.6975  0.1398
   88MOL    C2733261   5.444   5.341   2.848  0.2998 -0.3268  0.0362
   88MOL    H2833262   5.347   5.192   3.592  1.7416  0.8369 -1.2958
   88MOL    H2933263   5.314   5.302   3.467 -1.0466  0.5440 -0.5847
   88MOL    H3033264   5.376   5.008   3.401  0.0079 -0.4155 -0.0278
   88MOL    H3133265   5.420   4.992   3.155  0.6344 -1.0978 -0.4013
   88MOL    H3233266   5.566   5.101   3.164  0.3798 -1.9012  1.7127
   88MOL    H3333267   5.413   5.067   2.954  1.6089  0.3859 -0.5189
   88MOL    H3433268   5.317   5.196   3.027  0.1810 -2.2206  0.2818
   88MOL    H3533269   5.561   5.323   3.024  0.1936  0.9975 -1.6029
   88MOL    H3633270   5.599   5.194   2.913  0.0956 -0.3964 -0.0531
   88MOL    H3733271   5.436   5.275   2.762 -1.0480  0.7226 -0.6691
   88MOL    H3833272   5.347   5.377   2.884 -0.2858  1.3835 -3.0234
   88MOL    H3933273   5.502   5.425   2.810  1.3137 -2.1613 -2.5135
   88MOL    C4033274   5.558   5.120   3.437 -0.3126 -0.0234  1.0707
   88MOL    C4133275   5.610   5.099   3.584  0.3139 -0.2970 -0.1367
   88MOL    O4233276   5.747   5.098   3.566 -0.1282  0.4691  0.2556
   88MOL    C4333277   5.818   5.216   3.544  0.2916 -0.5399 -0.7679
   88MOL    C4433278   5.968   5.181   3.572 -0.7647 -0.1980  0.4255
   88MOL    C4533279   5.995   5.117   3.712 -0.4088 -0.4601 -0.6665
   88MOL    C4633280   6.146   5.089   3.735 -0.0360  1.2310  0.3141
   88MOL    H4733281   5.589   5.218   3.402 -0.8777 -0.8110 -1.7713
   88MOL    H4833282   5.608   5.044   3.377  0.8643 -0.2582  2.3519
   88MOL    H4933283   5.581   5.176   3.655  1.3846 -0.9919  1.0818
   88MOL    H5033284   5.778   5.297   3.605  0.5184 -0.2259 -1.0341
   88MOL    H5133285   5.815   5.261   3.445 -2.9012  1.6069  0.2215
   88MOL    H5233286   6.025   5.273   3.560  1.0871 -1.3155  0.4017
   88MOL    H5333287   6.008   5.113   3.497  1.6877  0.1026  1.3951
   88MOL    H5433288   5.940   5.023   3.711  2.6382 -2.3016 -0.5508
   88MOL    H5533289   5.974   5.178   3.799  0.8807  0.8514 -1.2485
   88MOL    H5633290   6.209   5.178   3.731  0.6747  0.7667  1.0393
   88MOL    H5733291   6.160   5.025   3.821  1.2406 -0.6765 -1.2657
   88MOL    H5833292   6.173   5.017   3.658 -1.2432  0.6368  0.4357
   88MOL    C5933293   5.564   4.966   3.643  0.3272 -0.0884 -0.1624
   88MOL    C6033294   5.606   4.954   3.786 -0.7677 -0.3085 -0.2419
   88MOL    O6133295   5.555   5.048   3.881  0.5156  0.2531  0.1789
   88MOL    C6233296   5.641   5.152   3.927 -0.5826  0.2668  1.0318
   88MOL    C6333297   5.632   5.200   4.073  0.4962  0.4578  0.2373
   88MOL    C6433298   5.677   5.106   4.177  0.7637 -0.2442 -0.1051
   88MOL    C6533299   5.680   5.166   4.323  0.0695 -0.4450  0.2877
   88MOL    H6633300   5.456   4.975   3.651  0.2270 -0.4227 -1.1039
   88MOL    H6733301   5.581   4.876   3.583 -0.5592 -1.1706  1.1843
   88MOL    H6833302   5.714   4.938   3.784 -0.9958 -1.7714 -1.5978
   88MOL    H6933303   5.644   5.236   3.858 -1.2623  0.4910  1.2728
   88MOL    H7033304   5.744   5.126   3.903 -1.7756 -2.5775 -1.4213
   88MOL    H7133305   5.696   5.288   4.079  0.8064  0.3840 -1.7620
   88MOL    H7233306   5.531   5.231   4.100  0.5802  2.2123 -1.3887
   88MOL    H7333307   5.599   5.030   4.181 -0.5580  0.9186 -2.6834
   88MOL    H7433308   5.774   5.061   4.154  1.0019  0.4850 -0.5430
   88MOL    H7533309   5.725   5.265   4.327 -2.5231  0.7473  1.8486
   88MOL    H7633310   5.575   5.174   4.353 -0.5795 -1.5853 -1.5648
   88MOL    H7733311   5.731   5.102   4.395  0.6080 -0.7515 -0.3578
   88MOL    C7833312   5.573   4.814   3.829 -0.4538  0.1772 -1.0962
   88MOL    C7933313   5.639   4.775   3.968  0.6612 -0.1176 -0.6264
   88MOL    O8033314   5.777   4.763   3.943  0.0637  0.6372  0.2925
   88MOL    C8133315   5.865   4.762   4.059  0.6697  0.2881  0.8046
   88MOL    C8233316   6.003   4.785   4.010 -0.1902 -0.4655 -0.5796
   88MOL    C8333317   6.073   4.668   3.943  0.7091 -0.0174  0.4411
   88MOL    C8433318   6.181   4.702   3.834  0.0137  0.3936  0.0485
   88MOL    H8533319   5.602   4.737   3.757 -3.0615 -0.7535 -1.2200
   88MOL    H8633320   5.465   4.801   3.837 -0.4549 -2.5229 -4.3342
   88MOL    H8733321   5.605   4.845   4.045 -1.2879 -2.4509  0.6820
   88MOL    H8833322   5.858   4.665   4.108  2.3758 -0.2992 -0.0695
   88MOL    H8933323   5.831   4.832   4.135 -0.6095  0.5072  0.0492
   88MOL    H9033324   5.996   4.870   3.942  2.0205 -0.3799 -0.7199
   88MOL    H9133325   6.075   4.819   4.085 -0.1559  0.4855 -1.0440
   88MOL    H9233326   5.994   4.605   3.902 -1.0828  2.2551  0.2989
   88MOL    H9333327   6.113   4.602   4.020  0.1866  1.2624  1.8364
   88MOL    H9433328   6.242   4.617   3.804  1.2721  0.5172  2.1947
   88MOL    H9533329   6.137   4.751   3.748 -0.4069 -0.1863 -0.0713
   88MOL    H9633330   6.259   4.769   3.871  0.0175  0.5677 -0.2746
   88MOL    C9733331   5.596   4.637   4.020  0.2005  0.4172  0.0370
   88MOL    C9833332   5.442   4.612   4.035  0.5152 -0.3951  0.3658
   88MOL    O9933333   5.398   4.570   3.910  0.2210 -0.6857 -0.2276
   88MOL   C10033334   5.254   4.591   3.890  0.3027  0.1785  0.3388
   88MOL   C10133335   5.227   4.562   3.744 -0.4771  0.6120 -0.2274
   88MOL   C10233336   5.083   4.582   3.700  0.2144  0.5886 -0.1955
   88MOL   C10333337   5.065   4.631   3.555  0.0564 -0.1762 -0.7524
   88MOL   H10433338   5.642   4.613   4.116 -0.0106  0.5332  0.1673
   88MOL   H10533339   5.639   4.563   3.952 -0.8095  0.0938 -0.2542
   88MOL   H10633340   5.390   4.704   4.063  0.2389 -0.7673  1.0825
   88MOL   H10733341   5.237   4.699   3.890  1.1951  0.3246 -0.3657
   88MOL   H10833342   5.193   4.551   3.971  2.6655 -0.0755  2.0556
   88MOL   H10933343   5.254   4.460   3.716  2.3845  1.3295 -0.1791
   88MOL   H11033344   5.280   4.640   3.691 -2.1033  3.5415  2.3121
   88MOL   H11133345   5.036   4.652   3.768  1.3878 -0.6848  1.9724
   88MOL   H11233346   5.025   4.492   3.720 -0.2960  1.1867  1.0778
   88MOL   H11333347   5.051   4.739   3.544 -2.7128 -0.7485 -3.9555
   88MOL   H11433348   5.162   4.616   3.509  1.0713  1.0796  0.9216
   88MOL   H11533349   4.984   4.580   3.503 -0.7784  1.0277 -0.6668
   88MOL   C11633350   5.420   4.501   4.140 -0.4174 -0.1473  0.1941
   88MOL   C11733351   5.426   4.558   4.288  0.0906  0.6394 -0.4071
   88MOL   O11833352   5.340   4.667   4.289  0.2115 -0.6917 -0.1332
   88MOL   C11933353   5.389   4.766   4.374 -0.0254  0.0426  0.2145
   88MOL   C12033354   5.288   4.874   4.391 -0.1838 -0.5021  0.0584
   88MOL   C12133355   5.168   4.841   4.478 -0.2819  0.0949  0.6033
   88MOL   C12233356   5.070   4.960   4.508  0.1189 -0.1704  0.1988
   88MOL   H12333357   5.322   4.455   4.127 -0.5793 -0.3805  2.0909
   88MOL   H12433358   5.495   4.424   4.126  0.8391  0.7943  1.7012
   88MOL   H12533359   5.527   4.591   4.312 -0.2801  0.5381  1.3800
   88MOL   H12633360   5.473   4.819   4.330  1.2028 -0.4146  1.9269
   88MOL   H12733361   5.411   4.723   4.472 -2.3890 -0.2992  0.6224
   88MOL   H12833362   5.251   4.896   4.291 -0.7673 -1.9882 -0.0611
   88MOL   H12933363   5.339   4.965   4.424  1.8791 -1.4171 -0.5704
   88MOL   H13033364   5.109   4.760   4.435 -1.0088 -0.0989  1.9423
   88MOL   H13133365   5.212   4.808   4.572  0.8884 -0.3013 -0.0830
   88MOL   H13233366   5.036   4.996   4.411 -1.0596  1.5507  1.2239
   88MOL   H13333367   5.131   5.037   4.555 -2.2552 -0.1973  3.5256
   88MOL   H13433368   4.986   4.958   4.578  0.5604  0.1004  0.7409
   88MOL   C13533369   5.376   4.446   4.386  0.5056  0.2789  0.3935
   88MOL   C13633370   5.475   4.325   4.400 -0.4092  0.5556 -0.3421
   88MOL   O13733371   5.561   4.339   4.508  0.5605  0.0346 -0.1534
   88MOL   C13833372   5.651   4.445   4.505 -0.0814  0.3036 -0.4106
   88MOL   C13933373   5.744   4.428   4.617 -0.2207 -0.0019  0.6565
   88MOL   C14033374   5.835   4.306   4.587 -0.1511  0.2318  0.1086
   88MOL   C14133375   5.958   4.295   4.676 -0.0628 -0.2392  0.4113
   88MOL   H14233376   5.288   4.407   4.335  1.5875  0.9639 -2.0782
   88MOL   H14333377   5.346   4.487   4.483  0.0417  0.6394  0.1013
   88MOL   H14433378   5.531   4.312   4.307 -2.3934 -1.6930 -1.2604
   88MOL   H14533379   5.599   4.539   4.522  0.0369  0.2995 -0.0298
   88MOL   H14633380   5.717   4.449   4.418  0.8119  0.5747  0.2719
   88MOL   H14733381   5.709   4.407   4.717  0.6262 -0.4041  0.8778
   88MOL   H14833382   5.805   4.518   4.612 -0.4549  0.0592 -2.5533
   88MOL   H14933383   5.773   4.222   4.618 -2.4179  0.1224 -4.3912
   88MOL   H15033384   5.855   4.290   4.481 -0.1523  0.0198  0.1407
   88MOL   H15133385   5.945   4.314   4.782  0.3069  0.7211  0.2969
   88MOL   H15233386   6.004   4.197   4.668 -1.4682 -0.8558 -0.2037
   88MOL   H15333387   6.035   4.368   4.648 -1.8927  0.9909 -1.6074
   88MOL   C15433388   5.399   4.192   4.422 -0.0492  0.2006  0.1409
   88MOL   C15533389   5.490   4.062   4.399 -0.4569  0.3262 -0.2990
   88MOL   O15633390   5.546   4.067   4.274  0.3633 -0.2765  0.0852
   88MOL   C15733391   5.670   4.010   4.251 -0.2490  1.0860  0.0084
   88MOL   C15833392   5.740   4.087   4.140  0.0657 -0.1944  0.3449
   88MOL   C15933393   5.871   4.017   4.118 -0.2677  0.4641 -0.3830
   88MOL   C16033394   5.975   4.090   4.037  0.5255 -0.5108  0.0527
   88MOL   H16133395   5.328   4.183   4.341 -1.0636  0.7705  0.9605
   88MOL   H16233396   5.347   4.194   4.517 -3.5491  1.8148 -1.7192
   88MOL   H16333397   5.567   4.067   4.476 -0.7774  1.6760 -0.0552
   88MOL   H16433398   5.721   4.015   4.347  0.4739 -1.0417 -0.2490
   88MOL   H16533399   5.672   3.902   4.233 -0.5908  1.2879 -1.3210
   88MOL   H16633400   5.764   4.190   4.164  2.3279 -0.9386  1.4186
   88MOL   H16733401   5.686   4.093   4.045  1.5356  0.4368 -0.4784
   88MOL   H16833402   5.920   3.990   4.212  0.9546 -0.1424 -1.1771
   88MOL   H16933403   5.842   3.927   4.064  2.3092 -0.9518  0.4944
   88MOL   H17033404   6.064   4.031   4.016  0.6167 -0.2827 -0.2218
   88MOL   H17133405   5.939   4.114   3.936 -0.7127  0.1879  0.6420
   88MOL   H17233406   6.021   4.173   4.092  0.2815 -0.5448  0.3114
   88MOL   C17333407   5.408   3.929   4.414 -0.0119  0.2781 -0.4704
   88MOL   C17433408   5.409   3.867   4.558  0.7411  0.2847 -0.3814
   88MOL   O17533409   5.361   3.973   4.644  0.2511  0.1525 -0.1402
   88MOL   C17633410   5.401   3.974   4.780  0.0678  0.5221  0.0525
   88MOL   C17733411   5.350   4.102   4.850 -0.2451  0.3890  0.3370
   88MOL   C17833412   5.408   4.231   4.784  0.7058 -0.6272 -0.2971
   88MOL   C17933413   5.388   4.344   4.883  0.8674 -0.3632 -0.3686
   88MOL   H18033414   5.455   3.858   4.345 -3.4292  0.1750 -2.8587
   88MOL   H18133415   5.307   3.941   4.375 -0.3625 -0.2483  0.2549
   88MOL   H18233416   5.509   3.833   4.586  1.3043  2.8044  0.8499
   88MOL   H18333417   5.509   3.990   4.789  0.7418 -2.9040 -1.1759
   88MOL   H18433418   5.375   3.884   4.834 -1.0463  0.7580 -0.0856
   88MOL   H18533419   5.392   4.102   4.951 -0.3358 -0.1715  0.3782
   88MOL   H18633420   5.241   4.102   4.859 -0.1143 -0.2535  2.1284
   88MOL   H18733421   5.510   4.231   4.747  2.0795  1.1685  3.2617
   88MOL   H18833422   5.345   4.260   4.700  2.4643  0.7851 -1.1631
   88MOL   H18933423   5.410   4.435   4.827 -0.3673  1.3841  1.8979
   88MOL   H19033424   5.285   4.345   4.917  0.6890  1.9761 -0.8764
   88MOL   H19133425   5.458   4.345   4.966 -0.5166 -0.0894  0.8118
   88MOL   C19233426   5.316   3.747   4.586  0.3633  1.1064  1.0673
   88MOL   C19333427   5.374   3.611   4.538  0.0420 -0.2312  0.1676
   88MOL   O19433428   5.474   3.578   4.632  0.2911  0.0162 -0.3914
   88MOL   C19533429   5.564   3.476   4.599 -0.2141  0.1089  0.1146
   88MOL   C19633430   5.612   3.421   4.734  0.0276 -0.6444  0.5725
   88MOL   C19733431   5.499   3.351   4.809  0.1898  0.2192  0.0344
   88MOL   C19833432   5.558   3.278   4.938  0.2820  0.4091  0.0132
   88MOL   H19933433   5.228   3.760   4.524  1.2807 -1.8517 -0.9627
   88MOL   H20033434   5.281   3.731   4.688 -1.6362 -1.1793  0.0686
   88MOL   H20133435   5.425   3.633   4.444  1.3737 -1.0176  0.6817
   88MOL   H20233436   5.644   3.512   4.535 -0.7438 -1.1405 -1.2821
   88MOL   H20333437   5.522   3.394   4.541 -0.4358  0.8739 -0.8094
   88MOL   H20433438   5.699   3.355   4.725  0.2463 -0.1516 -1.2530
   88MOL   H20533439   5.648   3.511   4.784 -4.8288  2.0043 -0.4658
   88MOL   H20633440   5.449   3.276   4.748  0.4257 -1.2157  1.5869
   88MOL   H20733441   5.422   3.425   4.830  2.6514  2.8393  0.2150
   88MOL   H20833442   5.629   3.195   4.931  1.4395  1.4979 -1.4119
   88MOL   H20933443   5.616   3.348   4.997  3.1357 -0.2924 -1.8348
   88MOL   H21033444   5.466   3.254   4.991 -1.4838 -0.7000 -3.3648
   88MOL   C21133445   5.267   3.501   4.553  0.5445 -0.1409  0.9033
   88MOL   C21233446   5.260   3.402   4.438 -0.5099 -0.3573  0.1935
   88MOL   O21333447   5.218   3.286   4.509 -0.3115 -0.1499  0.6894
   88MOL   C21433448   5.239   3.163   4.441  0.0874 -0.4825  0.1577
   88MOL   C21533449   5.189   3.039   4.516 -0.5898  0.3106  0.2977
   88MOL   C21633450   5.285   3.002   4.625 -0.7582 -0.1311 -0.6818
   88MOL   C21733451   5.250   2.881   4.711  0.5944  0.0073 -0.5968
   88MOL   H21833452   5.169   3.543   4.578  0.3074 -0.8840  1.2233
   88MOL   H21933453   5.291   3.447   4.644  0.0689 -3.0242 -0.6116
   88MOL   H22033454   5.359   3.373   4.403  0.5670  1.9807  1.1917
   88MOL   H22133455   5.195   3.169   4.342 -1.3102 -2.2625  0.6445
   88MOL   H22233456   5.347   3.147   4.431  0.6614  1.8582  2.0299
   88MOL   H22333457   5.095   3.067   4.563 -0.7132  0.2475  0.0834
   88MOL   H22433458   5.180   2.958   4.444  1.5052 -1.2159  1.6843
   88MOL   H22533459   5.278   3.084   4.696  1.1854  0.0586 -0.6674
   88MOL   H22633460   5.387   2.995   4.587 -0.2984 -1.7155  0.7820
   88MOL   H22733461   5.325   2.863   4.787 -0.5267 -0.8430  0.3392
   88MOL   H22833462   5.253   2.796   4.642 -0.3199 -0.2660 -0.3107
   88MOL   H22933463   5.147   2.897   4.745  1.2276  2.5376  0.2298
   88MOL   C23033464   5.172   3.442   4.319  0.0924  0.9031  0.2495
   88MOL   C23133465   5.221   3.557   4.218  0.3273  0.6062 -0.0243
   88MOL   O23233466   5.340   3.492   4.172  0.2714  0.0524  0.0404
   88MOL   C23333467   5.419   3.588   4.103  0.4699 -0.1877  0.1227
   88MOL   C23433468   5.564   3.523   4.097 -0.2734 -0.4066 -0.4771
   88MOL   C23533469   5.661   3.623   4.031  0.3463 -0.2602 -0.2856
   88MOL   C23633470   5.792   3.548   4.007  0.1113  0.0114  0.1483
   88MOL   H23733471   5.074   3.462   4.363 -1.0188  1.0035 -2.1790
   88MOL   H23833472   5.157   3.358   4.251 -0.7352  1.6331 -0.4894
   88MOL   H23933473   5.253   3.650   4.265 -1.7139  1.1525  0.3374
   88MOL   H24033474   5.374   3.597   4.004 -1.3732  0.5509  1.0091
   88MOL   H24133475   5.424   3.683   4.156  0.7797  0.7073 -1.4761
   88MOL   H24233476   5.608   3.505   4.194 -2.5759  1.0097  0.8834
   88MOL   H24333477   5.571   3.427   4.046  0.1731 -1.4827  1.5873
   88MOL   H24433478   5.662   3.716   4.088  1.2201 -0.8457  0.6723
   88MOL   H24533479   5.627   3.651   3.932  1.1343 -1.8447 -1.0248
   88MOL   H24633480   5.877   3.616   3.999  0.6114 -0.6160  0.0778
   88MOL   H24733481   5.802   3.482   3.920  1.5675  0.8624 -0.3400
   88MOL   H24833482   5.806   3.486   4.096  4.0660  0.0318 -0.3609
   88MOL   C24933483   5.109   3.581   4.112  0.0594  0.2707  0.1687
   88MOL   C25033484   4.982   3.654   4.163 -0.1264  0.5604  0.2290
   88MOL   O25133485   4.887   3.662   4.055  0.4957 -0.3540  0.2160
   88MOL   C25233486   4.773   3.568   4.075  0.3191 -0.0377  0.4832
   88MOL   C25333487   4.653   3.629   4.157  0.4474  0.8272  0.7649
   88MOL   C25433488   4.513   3.569   4.139  0.4133 -0.3618 -0.1551
   88MOL   C25533489   4.419   3.655   4.222  0.3016  0.4468  0.4909
   88MOL   H25633490   5.073   3.487   4.070 -0.7412  0.0791  1.2575
   88MOL   H25733491   5.137   3.626   4.017 -0.0184 -1.9078 -0.9153
   88MOL   H25833492   4.941   3.606   4.252 -1.3272 -0.7331 -0.9990
   88MOL   H25933493   4.799   3.471   4.117 -0.0205 -0.8592 -1.1401
   88MOL   H26033494   4.737   3.551   3.973 -0.7349  0.8035  0.6994
   88MOL   H26133495   4.676   3.624   4.263  0.7675 -0.8956  0.6274
   88MOL   H26233496   4.648   3.735   4.130  2.1667  0.7589  0.1345
   88MOL   H26333497   4.487   3.557   4.034  1.5254  1.3907 -0.6572
   88MOL   H26433498   4.512   3.464   4.169 -3.1022  0.4727  2.9504
   88MOL   H26533499   4.313   3.636   4.210  0.2574  1.4695 -0.8703
   88MOL   H26633500   4.434   3.762   4.205 -0.4493  0.0438 -3.0431
   88MOL   H26733501   4.423   3.641   4.330 -1.6045 -0.5283  0.4637
   88MOL   C26833502   5.016   3.802   4.197  0.1235  0.2529 -0.3753
   88MOL   C26933503   4.918   3.859   4.295  0.0950 -0.1243 -0.8500
   88MOL   O27033504   4.973   3.818   4.423  0.0244  0.1690  0.1404
   88MOL   C27133505   4.884   3.797   4.533 -0.3477 -0.3255  0.1563
   88MOL   C27233506   4.975   3.789   4.662 -0.2501  0.3464 -0.6750
   88MOL   C27333507   4.899   3.776   4.800  0.0456 -0.3720 -0.1796
   88MOL   C27433508   4.998   3.761   4.919 -0.1169  0.2388  0.1598
   88MOL   H27533509   5.118   3.795   4.236  0.5773  0.7303 -1.4628
   88MOL   H27633510   5.012   3.868   4.111 -0.4216  1.6248  0.6973
   88MOL   H27733511   4.820   3.814   4.279  0.6764 -0.5889 -3.3462
   88MOL   H27833512   4.819   3.883   4.548 -1.7252 -1.5686  1.5273
   88MOL   H27933513   4.813   3.715   4.521 -2.1114  0.5974  3.5356
   88MOL   H28033514   5.021   3.691   4.649  0.8179  0.8287 -0.5754
   88MOL   H28133515   5.056   3.862   4.665 -0.4722  0.7603 -3.4072
   88MOL   H28233516   4.832   3.690   4.803 -0.2216 -0.2261 -1.7276
   88MOL   H28333517   4.853   3.872   4.822  0.1064 -0.3308 -0.2335
   88MOL   H28433518   5.048   3.856   4.936  0.0065  0.0113  1.0541
   88MOL   H28533519   5.062   3.680   4.883 -1.6443 -1.5710  1.3887
   88MOL   H28633520   4.962   3.745   5.020 -1.4929  0.4383 -0.2875
   88MOL   C28733521   4.916   4.011   4.296  0.4400  0.2268  0.1201
   88MOL   C28833522   4.814   4.088   4.208  0.3324  0.6418  0.0483
   88MOL   O28933523   4.858   4.218   4.197 -0.3499 -0.0132 -0.2790
   88MOL   C29033524   4.898   4.270   4.068  0.5296  0.0120  0.4649
   88MOL   C29133525   4.952   4.410   4.080 -0.3855 -0.2016  0.4490
   88MOL   C29233526   4.862   4.525   4.128 -0.8075  0.2114  0.2353
   88MOL   C29333527   4.935   4.656   4.150 -0.1488  0.0387  0.1351
   88MOL   H29433528   5.019   4.043   4.281  0.7179  0.2578  1.9569
   88MOL   H29533529   4.890   4.047   4.395 -2.2302  0.1360 -0.5214
   88MOL   H29633530   4.806   4.033   4.114  1.2952  1.6013 -0.6166
   88MOL   H29733531   4.969   4.198   4.029  0.0200 -0.8945  1.1945
   88MOL   H29833532   4.814   4.255   4.000  1.6128 -0.7825 -0.7056
   88MOL   H29933533   5.004   4.423   3.985  0.3289 -0.7959  0.7476
   88MOL   H30033534   5.039   4.398   4.145 -0.0378 -0.9578 -0.1513
   88MOL   H30133535   4.816   4.511   4.226  1.9120 -0.5802  1.4352
   88MOL   H30233536   4.786   4.536   4.050 -1.0904  2.0245  0.7467
   88MOL   H30333537   4.995   4.665   4.240  1.4525 -0.8208 -0.8284
   88MOL   H30433538   5.006   4.653   4.067 -0.5420 -3.0674 -0.1674
   88MOL   H30533539   4.871   4.745   4.149  0.1155  0.2650 -3.8256
   88MOL   C30633540   4.667   4.086   4.267  0.4161  0.5752  0.0012
   88MOL   C30733541   4.564   4.137   4.157 -0.9651  0.4700  0.0471
   88MOL   O30833542   4.432   4.160   4.216  0.1997  0.1630 -0.1025
   88MOL   C30933543   4.434   4.283   4.289 -0.4907 -0.7787 -0.1357
   88MOL   C31033544   4.320   4.273   4.391  0.2413  0.3461 -0.3826
   88MOL   C31133545   4.349   4.195   4.518  0.3400 -0.4945  0.1480
   88MOL   C31233546   4.232   4.213   4.623  0.0440  0.2411  0.2092
   88MOL   H31333547   4.632   3.990   4.304 -2.4946  1.7742  0.5479
   88MOL   H31433548   4.664   4.146   4.358 -1.1140 -1.0711  1.0618
   88MOL   H31533549   4.597   4.229   4.109 -0.2112  0.5890  0.7809
   88MOL   H31633550   4.408   4.363   4.218  0.3788  0.8972  1.3944
   88MOL   H31733551   4.526   4.314   4.337 -2.0061  0.0475  2.3342
   88MOL   H31833552   4.237   4.227   4.337  1.2056 -2.4553  0.4627
   88MOL   H31933553   4.282   4.374   4.409  0.2535  0.2331  0.2665
   88MOL   H32033554   4.367   4.090   4.496 -2.5547 -0.9739 -0.1204
   88MOL   H32133555   4.442   4.236   4.558 -0.4077  1.1412  0.2545
   88MOL   H32233556   4.194   4.315   4.637  0.2991  0.5083 -0.9704
   88MOL   H32333557   4.262   4.182   4.723  1.3347  2.1949  0.4505
   88MOL   H32433558   4.142   4.159   4.594  0.2523  0.4157 -0.8001
   88MOL   C32533559   4.542   4.034   4.052  0.1642 -0.0881 -0.2594
   88MOL   C32633560   4.503   4.081   3.908  0.1888 -0.0760 -0.4333
   88MOL   O32733561   4.606   4.173   3.864 -0.9528  0.3361  0.3062
   88MOL   C32833562   4.573   4.236   3.737  0.4382 -0.0097 -0.5263
   88MOL   C32933563   4.646   4.373   3.720 -0.1249  0.4077 -0.0846
   88MOL   C33033564   4.612   4.471   3.829  0.8319  0.0371 -0.0491
   88MOL   C33133565   4.685   4.602   3.815 -0.4769  0.1887  0.6181
   88MOL   H33233566   4.460   3.977   4.095 -0.2265  1.3930  0.9804
   88MOL   H33333567   4.625   3.963   4.050 -1.7086 -2.4342  1.8163
   88MOL   H33433568   4.413   4.141   3.917  0.4812 -0.0084  2.4586
   88MOL   H33533569   4.465   4.239   3.719  0.4742 -1.5158 -1.0381
   88MOL   H33633570   4.603   4.179   3.649 -1.4422 -0.3402 -0.9851
   88MOL   H33733571   4.749   4.338   3.722 -0.5000 -0.6932  0.3510
   88MOL   H33833572   4.621   4.422   3.626 -0.8329  0.2723  0.0319
   88MOL   H33933573   4.630   4.431   3.928 -2.4945  0.9613  0.9878
   88MOL   H34033574   4.507   4.498   3.830  1.0678  0.9239  1.0710
   88MOL   H34133575   4.783   4.591   3.861  0.5872  0.9129 -1.4013
   88MOL   H34233576   4.632   4.683   3.866 -1.4578 -0.2811  0.3691
   88MOL   H34333577   4.705   4.630   3.711  0.3756 -1.7261  0.2419
   88MOL   C34433578   4.481   3.958   3.818  0.2075 -0.5262  0.5251
   88MOL   C34533579   4.390   3.847   3.868  0.6810  0.1326 -0.0644
   88MOL   O34633580   4.364   3.753   3.761  0.0688 -0.1851  0.6284
   88MOL   C34733581   4.297   3.631   3.788  0.3815  0.1791 -0.3408
   88MOL   C34833582   4.344   3.531   3.680 -0.1431  0.8189 -0.1390
   88MOL   C34933583   4.482   3.476   3.714 -0.2090 -0.8935 -0.1291
   88MOL   C35033584   4.517   3.353   3.627  0.1924 -0.0192 -0.4320
   88MOL   H35133585   4.445   3.989   3.720 -0.3678  2.5021  1.6562
   88MOL   H35233586   4.576   3.912   3.792 -0.3324 -2.7781  2.3447
   88MOL   H35333587   4.443   3.789   3.943  0.7434  0.4360  0.1236
   88MOL   H35433588   4.188   3.639   3.781  0.4053 -1.4620 -3.4439
   88MOL   H35533589   4.329   3.590   3.884 -3.2008  0.0820  0.8860
   88MOL   H35633590   4.323   3.572   3.581  0.2068 -2.1977 -1.5194
   88MOL   H35733591   4.274   3.449   3.694 -2.1714  2.1929 -1.8283
   88MOL   H35833592   4.554   3.555   3.695 -0.8449 -0.2090  0.2202
   88MOL   H35933593   4.478   3.454   3.821 -1.7920  3.0199  0.7150
   88MOL   H36033594   4.448   3.269   3.641 -1.2242  1.0749 -0.6913
   88MOL   H36133595   4.617   3.316   3.648 -0.6853 -2.3117 -0.0847
   88MOL   H36233596   4.511   3.380   3.521  0.0266  1.8747  0.0386
   88MOL   C36333597   4.251   3.905   3.917  0.5831  0.0414 -0.4422
   88MOL   C36433598   4.171   3.975   3.798 -0.4734 -0.4865 -0.1458
   88MOL   O36533599   4.038   3.997   3.843  0.0433 -0.1992  0.4771
   88MOL   C36633600   3.955   4.059   3.750 -0.0981  0.7630  0.0316
   88MOL   C36733601   3.823   4.094   3.826 -0.5422 -0.3833  0.4734
   88MOL   C36833602   3.759   4.212   3.753  0.3142 -1.2908 -0.0896
   88MOL   C36933603   3.635   4.275   3.814  0.1528 -0.2284 -0.9014
   88MOL   H37033604   4.260   3.980   3.995  1.4906 -0.8778  0.3455
   88MOL   H37133605   4.193   3.822   3.958 -0.8299  1.0903 -0.2858
   88MOL   H37233606   4.175   3.914   3.708  0.8859  2.2988 -2.0558
   88MOL   H37333607   3.937   3.996   3.663 -1.9984 -0.0497  0.9807
   88MOL   H37433608   4.001   4.153   3.718 -1.5389  1.7791  0.8837
   88MOL   H37533609   3.844   4.128   3.927 -1.0127 -0.1114  0.4807
   88MOL   H37633610   3.763   4.004   3.821 -1.7175  0.3755  0.8274
   88MOL   H37733611   3.753   4.200   3.645 -0.5188  0.2324 -0.2256
   88MOL   H37833612   3.831   4.292   3.764 -1.3882 -0.1341  3.1305
   88MOL   H37933613   3.630   4.262   3.922 -1.4273  0.3652 -0.8954
   88MOL   H38033614   3.632   4.383   3.802  1.3838  0.1062  1.5305
   88MOL   H38133615   3.547   4.241   3.760  0.6118 -1.7699 -0.6935
   88MOL   H38233616   4.218   4.066   3.760 -1.6767  0.7417  1.2195
   89MOL     C133617   4.251   6.942   0.340 -0.4301  0.1246  0.4800
   89MOL     C233618   4.404   6.960   0.362 -0.2322 -0.8426  0.0929
   89MOL     O333619   4.431   6.964   0.500  0.2022 -0.2887  0.0381
   89MOL     C433620   4.389   7.079   0.565  0.0315  0.0336 -0.0193
   89MOL     C533621   4.446   7.071   0.709  0.3047 -0.0940 -0.3983
   89MOL     C633622   4.403   7.180   0.811 -0.7680  0.3041  0.0221
   89MOL     C733623   4.471   7.317   0.769 -0.1604  0.4470  0.0371
   89MOL     H833624   4.180   7.004   0.397 -1.1436  0.6629 -0.9757
   89MOL     H933625   4.230   6.963   0.235 -0.5397  1.9603  0.8420
   89MOL    H1033626   4.456   7.049   0.327  0.0919 -0.1657  2.2309
   89MOL    H1133627   4.413   7.172   0.515  1.1520 -0.5815 -0.6635
   89MOL    H1233628   4.281   7.074   0.576  0.0172  0.8412  0.2107
   89MOL    H1333629   4.554   7.064   0.699  0.2286 -1.2398 -0.4507
   89MOL    H1433630   4.424   6.974   0.753  0.1005  0.9793  1.9701
   89MOL    H1533631   4.424   7.160   0.916  1.0066 -1.2189 -0.5851
   89MOL    H1633632   4.294   7.185   0.803 -0.6591  2.3089 -0.5163
   89MOL    H1733633   4.578   7.297   0.774 -0.2780 -0.2371 -0.0319
   89MOL    H1833634   4.453   7.395   0.843  1.7818 -0.1172  1.1577
   89MOL    H1933635   4.429   7.350   0.674  0.1293 -0.4212 -0.4034
   89MOL    H2033636   4.222   6.837   0.345 -2.7345  0.6692 -0.7795
   89MOL    C2133637   4.488   6.839   0.311 -0.1418  0.3495 -0.8078
   89MOL    C2233638   4.483   6.789   0.167 -1.2805 -0.7405 -0.1091
   89MOL    O2333639   4.546   6.884   0.091 -0.5617 -0.0987  0.3881
   89MOL    C2433640   4.526   6.881   7.754  0.4567 -0.1058 -0.4500
   89MOL    C2533641   4.402   6.967   7.724  0.8517  0.2112  0.7536
   89MOL    C2633642   4.375   6.965   7.575 -0.4371  0.1647  0.9094
   89MOL    C2733643   4.246   7.030   7.545  0.7101 -0.2730 -0.2821
   89MOL    H2833644   4.462   6.755   0.375  1.0015 -0.6228 -1.5786
   89MOL    H2933645   4.589   6.875   0.332  0.7325 -0.7716 -2.8554
   89MOL    H3033646   4.384   6.764   0.130 -0.8806 -1.9667 -0.3698
   89MOL    H3133647   4.521   6.782   7.710  1.7381  0.1788 -1.2771
   89MOL    H3233648   4.615   6.924   7.707 -0.6934  2.3454 -0.4677
   89MOL    H3333649   4.313   6.928   7.774  0.1834  0.3090 -0.3461
   89MOL    H3433650   4.408   7.071   7.755 -0.9953  0.7660 -0.6599
   89MOL    H3533651   4.461   7.015   7.530  0.4471 -2.0378  0.0600
   89MOL    H3633652   4.372   6.866   7.528  1.4640  0.5626 -0.0837
   89MOL    H3733653   4.238   7.034   7.436 -0.3790 -1.4682 -0.2678
   89MOL    H3833654   4.166   6.976   7.595 -0.1622  2.0141  0.8395
   89MOL    H3933655   4.243   7.128   7.593 -1.4294 -0.7299  0.6042
   89MOL    C4033656   4.558   6.651   0.154  0.2766  0.3723 -0.5384
   89MOL    C4133657   4.468   6.531   0.168  0.7475 -0.3543  0.3028
   89MOL    O4233658   4.414   6.524   0.303  0.0552  0.0742  0.6824
   89MOL    C4333659   4.291   6.453   0.322  0.1784  0.1774 -0.3684
   89MOL    C4433660   4.256   6.467   0.473  0.3291  0.1008  0.3469
   89MOL    C4533661   4.128   6.392   0.515 -0.1343 -0.2243  0.2784
   89MOL    C4633662   4.012   6.423   0.422  0.3815 -0.0707  0.5797
   89MOL    H4733663   4.641   6.657   0.224 -0.2781  0.5477  0.1177
   89MOL    H4833664   4.597   6.645   0.052  2.2160 -0.4036  0.2296
   89MOL    H4933665   4.384   6.546   0.100  0.5644 -1.3649  0.2858
   89MOL    H5033666   4.270   6.353   0.283 -2.7456  1.0848 -1.1736
   89MOL    H5133667   4.229   6.512   0.255  2.6212 -0.6891 -3.5759
   89MOL    H5233668   4.252   6.573   0.499 -1.9904  0.0180  0.4626
   89MOL    H5333669   4.341   6.424   0.526 -1.3811 -0.1327  3.0141
   89MOL    H5433670   4.103   6.417   0.618  3.8692  0.3131  1.2052
   89MOL    H5533671   4.153   6.286   0.522 -0.7433 -0.3898 -0.0342
   89MOL    H5633672   3.924   6.359   0.434  0.0446  0.3450  0.3615
   89MOL    H5733673   3.988   6.529   0.429 -0.2796 -0.1354 -0.7149
   89MOL    H5833674   4.042   6.403   0.320 -1.0959  2.1801 -0.3244
   89MOL    C5933675   4.541   6.401   0.128  0.0557  0.0675 -0.0005
   89MOL    C6033676   4.456   6.301   0.036 -0.0332 -0.6655 -0.5728
   89MOL    O6133677   4.432   6.375   7.716 -0.1604  0.2033  0.0522
   89MOL    C6233678   4.318   6.327   7.639  0.6765  0.4572  0.2155
   89MOL    C6333679   4.203   6.423   7.677 -0.3414 -0.5395  0.0474
   89MOL    C6433680   4.235   6.570   7.623  0.2229  0.2864 -0.5928
   89MOL    C6533681   4.115   6.665   7.651 -0.4833  0.3570 -0.4375
   89MOL    H6633682   4.625   6.434   0.067 -0.1526 -3.3964 -2.2823
   89MOL    H6733683   4.575   6.350   0.218  3.2656 -0.8195 -1.6334
   89MOL    H6833684   4.361   6.275   0.084 -0.2233  0.3283 -0.4019
   89MOL    H6933685   4.288   6.227   7.668  0.2622  0.4955 -0.0612
   89MOL    H7033686   4.331   6.331   7.531  0.0059  0.7362  0.1389
   89MOL    H7133687   4.115   6.376   7.632 -1.1137  0.5850  0.3402
   89MOL    H7233688   4.185   6.406   7.783 -0.7354 -0.1806  0.0395
   89MOL    H7333689   4.322   6.616   7.670  1.7090 -2.8242 -0.2008
   89MOL    H7433690   4.256   6.562   7.516  0.6844  0.3606 -0.5063
   89MOL    H7533691   4.110   6.694   7.756 -3.0536  0.4754 -0.5702
   89MOL    H7633692   4.129   6.758   7.595 -0.3000  0.0362 -0.9322
   89MOL    H7733693   4.025   6.612   7.619  0.2269  0.6174 -3.0285
   89MOL    C7833694   4.525   6.167   7.796  0.3935 -0.6255 -0.5568
   89MOL    C7933695   4.524   6.065   0.111  0.2362  0.8050  0.7838
   89MOL    O8033696   4.598   6.115   0.221  0.7801 -0.0212  0.3700
   89MOL    C8133697   4.525   6.118   0.343 -0.0621  0.8953  1.0492
   89MOL    C8233698   4.625   6.162   0.448 -0.0355  0.2867  0.1919
   89MOL    C8333699   4.569   6.173   0.591 -0.1617 -0.0151  0.0868
   89MOL    C8433700   4.680   6.206   0.693 -0.1813 -0.2014 -0.0748
   89MOL    H8533701   4.629   6.203   7.794  0.6240 -0.9938  2.1084
   89MOL    H8633702   4.491   6.121   7.704 -2.4291 -0.0384  0.1451
   89MOL    H8733703   4.422   6.059   0.149  0.5304  2.4374  1.9006
   89MOL    H8833704   4.478   6.024   0.371  0.3920  0.5845  0.7662
   89MOL    H8933705   4.452   6.199   0.354 -2.1437 -1.1033  2.4751
   89MOL    H9033706   4.708   6.092   0.447 -0.4296 -0.1767 -0.4891
   89MOL    H9133707   4.660   6.259   0.412  0.7791 -0.4756 -1.1284
   89MOL    H9233708   4.516   6.082   0.622  0.8005 -0.4858  0.3824
   89MOL    H9333709   4.487   6.245   0.598 -2.0421 -1.9524 -1.3421
   89MOL    H9433710   4.709   6.310   0.680  0.1809 -0.5697 -2.4347
   89MOL    H9533711   4.618   6.194   0.782 -0.4782 -0.4342 -0.3114
   89MOL    H9633712   4.763   6.135   0.684  0.6110  0.9348 -2.0160
   89MOL    C9733713   4.566   5.919   0.075 -0.8238  0.4047 -0.3381
   89MOL    C9833714   4.537   5.804   0.172 -0.1491 -0.1703  0.2501
   89MOL    O9933715   4.392   5.815   0.186  0.4728 -0.4183  0.4665
   89MOL   C10033716   4.343   5.787   0.315  0.0657 -0.4083 -0.6074
   89MOL   C10133717   4.188   5.822   0.327 -0.3854  0.1204  0.1866
   89MOL   C10233718   4.164   5.975   0.352  0.3481 -0.7503  0.2152
   89MOL   C10333719   4.021   6.036   0.348  0.0812  0.2161  0.3864
   89MOL   H10433720   4.674   5.922   0.064 -0.6979 -0.9841  0.4131
   89MOL   H10533721   4.533   5.891   7.776 -1.1508  0.5496 -0.2726
   89MOL   H10633722   4.584   5.817   0.270  0.2907  0.2314 -0.0117
   89MOL   H10733723   4.399   5.834   0.395 -1.1579  2.2813 -1.2602
   89MOL   H10833724   4.365   5.681   0.328  0.3541 -0.2657  0.0646
   89MOL   H10933725   4.142   5.772   0.412  0.2373  1.1827  1.1493
   89MOL   H11033726   4.118   5.795   0.247 -0.6233 -2.1184  1.1180
   89MOL   H11133727   4.224   6.028   0.278  1.3137 -0.5117  1.1477
   89MOL   H11233728   4.211   5.999   0.447  1.4657 -0.1653 -0.4686
   89MOL   H11333729   3.964   6.025   0.255 -2.0227  1.3272  1.4934
   89MOL   H11433730   3.967   5.985   0.427  0.7017  1.2617  1.5090
   89MOL   H11533731   4.034   6.144   0.357 -4.8204  0.7413  2.5843
   89MOL   C11633732   4.577   5.662   0.113 -0.0812  0.0405 -0.5177
   89MOL   C11733733   4.735   5.627   0.120  0.3005 -0.3720 -0.7191
   89MOL   O11833734   4.723   5.486   0.127  0.3492  0.6515 -0.1798
   89MOL   C11933735   4.819   5.404   0.190 -0.0753 -0.5797  0.2269
   89MOL   C12033736   4.791   5.257   0.159  0.4965  0.7074 -0.7121
   89MOL   C12133737   4.801   5.242   0.001  0.3515 -0.4568  0.6205
   89MOL   C12233738   4.765   5.100   7.744 -0.1215 -0.2351  0.9390
   89MOL   H12333739   4.522   5.587   0.170  2.5753 -1.7466 -0.2366
   89MOL   H12433740   4.531   5.645   0.015 -2.0229 -0.0255  0.3647
   89MOL   H12533741   4.772   5.679   0.209 -2.4350  2.5747 -1.1977
   89MOL   H12633742   4.818   5.409   0.299 -0.3495  0.9768  0.1707
   89MOL   H12733743   4.912   5.432   0.139  0.0645  0.5225  1.0649
   89MOL   H12833744   4.693   5.235   0.203  0.8708 -1.5957 -0.9938
   89MOL   H12933745   4.867   5.203   0.215  1.0212  1.8979 -0.2550
   89MOL   H13033746   4.747   5.321   7.749 -1.1252  0.4573  3.3583
   89MOL   H13133747   4.905   5.268   7.785  0.1894  0.0404  0.3772
   89MOL   H13233748   4.796   5.089   7.641 -1.8629  0.5499  0.3060
   89MOL   H13333749   4.656   5.099   7.755 -0.2322  1.7037  0.1518
   89MOL   H13433750   4.821   5.030   0.004 -1.0123 -3.0410 -1.3563
   89MOL   C13533751   4.811   5.659   7.789  0.1499  0.6353 -0.1108
   89MOL   C13633752   4.752   5.627   7.652 -0.2058 -0.7039 -0.4614
   89MOL   O13733753   4.651   5.726   7.617  0.1515 -0.5813 -0.6351
   89MOL   C13833754   4.548   5.681   7.533 -0.2906  0.4616 -0.5740
   89MOL   C13933755   4.446   5.792   7.507  0.2037 -0.4670 -0.2184
   89MOL   C14033756   4.508   5.900   7.417  0.0361 -0.1566 -0.2710
   89MOL   C14133757   4.409   6.012   7.367 -0.4796  0.0287  0.0405
   89MOL   H14233758   4.908   5.613   0.004  0.5018  1.2914 -0.3559
   89MOL   H14333759   4.827   5.767   7.791  0.7320  0.5126  2.1719
   89MOL   H14433760   4.723   5.522   7.655  1.3378 -1.0682  2.8169
   89MOL   H14533761   4.492   5.597   7.574 -1.0367  0.4052 -1.7099
   89MOL   H14633762   4.595   5.648   7.440  0.9473  0.8187 -0.0932
   89MOL   H14733763   4.402   5.829   7.599 -0.0710 -2.9434  0.6887
   89MOL   H14833764   4.359   5.748   7.457 -0.1148 -2.2916  1.8885
   89MOL   H14933765   4.589   5.943   7.476 -0.3431  1.0128 -0.5913
   89MOL   H15033766   4.540   5.840   7.332  1.6657 -2.4978  1.8983
   89MOL   H15133767   4.465   6.076   7.299  0.7507 -0.7319  0.3113
   89MOL   H15233768   4.328   5.962   7.314 -0.6747  1.0222 -0.6193
   89MOL   H15333769   4.357   6.069   7.443  0.5702  0.2357  0.6090
   89MOL   C15433770   4.862   5.620   7.538  0.5021 -0.5246 -0.2246
   89MOL   C15533771   4.983   5.523   7.572  0.2337  0.4943 -0.8056
   89MOL   O15633772   5.086   5.609   7.628  0.6905 -0.0028 -0.3701
   89MOL   C15733773   5.166   5.546   7.728 -0.0319  0.6249 -0.1392
   89MOL   C15833774   5.298   5.617   7.763  0.3344 -0.3026 -0.2639
   89MOL   C15933775   5.274   5.756   0.038  0.2823 -0.2443 -0.3605
   89MOL   C16033776   5.401   5.815   0.090 -0.5290  0.5230  0.0704
   89MOL   H16133777   4.906   5.720   7.529  0.5298 -0.5685 -0.5747
   89MOL   H16233778   4.812   5.595   7.444  0.5642 -2.5470  0.2635
   89MOL   H16333779   4.947   5.453   7.647  1.9324 -0.4668 -0.8586
   89MOL   H16433780   5.117   5.535   0.023  0.2626 -1.4602 -0.2094
   89MOL   H16533781   5.197   5.443   7.713  0.2669  0.4049  1.8352
   89MOL   H16633782   5.343   5.647   7.669  1.4077  0.7804  0.5909
   89MOL   H16733783   5.364   5.555   0.022  1.7078  0.7098 -0.7029
   89MOL   H16833784   5.222   5.830   7.778 -1.2393 -0.3211  0.7996
   89MOL   H16933785   5.215   5.736   0.128  0.4821 -0.4781 -0.2814
   89MOL   H17033786   5.467   5.835   0.005  1.6303 -0.9095  1.3392
   89MOL   H17133787   5.390   5.913   0.137  0.5367  2.5188 -3.6873
   89MOL   H17233788   5.435   5.735   0.157 -0.5807  0.0037 -0.5217
   89MOL   C17333789   5.049   5.451   7.454 -0.0977  0.4028  1.0272
   89MOL   C17433790   4.962   5.378   7.349 -0.5864 -0.1519  0.5988
   89MOL   O17533791   5.042   5.295   7.256  0.1705 -0.7032 -0.4080
   89MOL   C17633792   5.123   5.374   7.164  0.1263 -0.6055 -0.1282
   89MOL   C17733793   5.181   5.262   7.070 -0.3204  0.3761 -0.3930
   89MOL   C17833794   5.077   5.192   6.982 -0.4084  0.7193  0.5742
   89MOL   C17933795   5.144   5.090   6.881 -0.7708  0.2234 -0.1177
   89MOL   H18033796   5.115   5.378   7.501 -0.4702  0.0683  1.0334
   89MOL   H18133797   5.107   5.529   7.405  0.2374  0.4544  1.5074
   89MOL   H18233798   4.898   5.446   7.294  1.5106  1.3087 -0.0799
   89MOL   H18333799   5.205   5.435   7.203 -1.3735  1.4210 -0.1069
   89MOL   H18433800   5.062   5.445   7.109 -1.5367  0.1499  2.6045
   89MOL   H18533801   5.234   5.182   7.122  0.6354 -1.7779 -4.4067
   89MOL   H18633802   5.259   5.311   7.011  0.4288  1.9566  1.8391
   89MOL   H18733803   5.005   5.151   7.052 -0.7350  2.8856  1.5467
   89MOL   H18833804   5.024   5.270   6.927 -1.0349  0.4846  0.8525
   89MOL   H18933805   5.069   5.053   6.811 -0.6313  3.0252 -1.8278
   89MOL   H19033806   5.224   5.124   6.815 -0.4891  1.4296  0.8268
   89MOL   H19133807   5.181   5.008   6.943  0.5101  0.4690 -0.5574
   89MOL   C19233808   4.866   5.277   7.418 -0.8294 -0.5005 -0.4871
   89MOL   C19333809   4.734   5.246   7.352 -0.2657  0.6272 -0.1712
   89MOL   O19433810   4.688   5.128   7.422  0.1626 -0.0188 -0.4960
   89MOL   C19533811   4.725   5.004   7.352  0.1313  0.1851 -0.2890
   89MOL   C19633812   4.676   4.899   7.451 -0.5138  0.2364 -0.0692
   89MOL   C19733813   4.524   4.905   7.469  0.3256  0.4154 -0.1815
   89MOL   C19833814   4.453   4.803   7.551  0.1089 -0.4022 -0.2305
   89MOL   H19933815   4.843   5.313   7.519 -3.6004 -4.0873  0.2463
   89MOL   H20033816   4.927   5.188   7.435 -0.3831 -0.1626 -0.2941
   89MOL   H20133817   4.757   5.228   7.247  0.5204  0.2826  0.0591
   89MOL   H20233818   4.832   5.002   7.330  0.3066 -0.1698  0.5723
   89MOL   H20333819   4.664   4.996   7.262  0.3721 -0.5157 -0.3990
   89MOL   H20433820   4.704   4.805   7.402  0.0218  0.5575 -0.3748
   89MOL   H20533821   4.730   4.906   7.545 -2.0124  2.4060  0.6517
   89MOL   H20633822   4.479   4.914   7.370  0.3364  0.8455 -0.1502
   89MOL   H20733823   4.495   5.006   7.500 -1.1172  0.7914 -2.6173
   89MOL   H20833824   4.497   4.797   7.650  1.8557 -1.0054 -1.0335
   89MOL   H20933825   4.348   4.835   7.557  0.1999 -0.3786  1.6341
   89MOL   H21033826   4.460   4.705   7.503  0.6706 -0.5880  0.2312
   89MOL   C21133827   4.629   5.355   7.369  0.0094 -0.3141  0.5016
   89MOL   C21233828   4.494   5.316   7.305  0.2868 -0.4281 -0.7811
   89MOL   O21333829   4.392   5.416   7.337 -0.6551 -0.0346  0.0192
   89MOL   C21433830   4.285   5.362   7.418 -0.2391 -0.5617  0.2301
   89MOL   C21533831   4.187   5.479   7.445  0.7404  0.7684  0.7863
   89MOL   C21633832   4.140   5.542   7.316  0.8732 -0.6945  0.4364
   89MOL   C21733833   4.052   5.667   7.351 -0.1278 -0.7427 -0.3329
   89MOL   H21833834   4.649   5.457   7.335  1.4184 -1.1384 -1.2407
   89MOL   H21933835   4.609   5.357   7.476  1.2196  2.6268  0.7210
   89MOL   H22033836   4.460   5.223   7.350 -0.2148  1.3014  2.5526
   89MOL   H22133837   4.239   5.284   7.358  0.5564 -1.6247  0.9987
   89MOL   H22233838   4.319   5.326   7.515  2.0058 -0.4741 -0.5153
   89MOL   H22333839   4.098   5.461   7.507 -1.3146  1.5525 -1.8561
   89MOL   H22433840   4.237   5.561   7.496  0.7058  3.2245 -2.9526
   89MOL   H22533841   4.083   5.460   7.272  0.9311 -0.7554  0.4754
   89MOL   H22633842   4.214   5.576   7.244 -0.0488 -1.5400 -0.9407
   89MOL   H22733843   4.117   5.750   7.378  0.4393 -1.2706 -0.0746
   89MOL   H22833844   3.983   5.643   7.431 -0.4169  2.9343  0.5861
   89MOL   H22933845   3.985   5.692   7.268 -0.1395 -1.7801 -0.6438
   89MOL   C23033846   4.491   5.290   7.152 -0.0202  0.2813  0.5758
   89MOL   C23133847   4.556   5.406   7.076  0.3235 -0.1421  0.5241
   89MOL   O23233848   4.566   5.348   6.946 -0.6693  0.0976  0.2897
   89MOL   C23333849   4.700   5.314   6.899  0.0190  0.5173 -0.1928
   89MOL   C23433850   4.680   5.249   6.761  0.1843 -0.3704  0.5252
   89MOL   C23533851   4.811   5.210   6.688 -1.1015  0.3161  0.1660
   89MOL   C23633852   4.900   5.333   6.655  0.4265  0.2484 -0.2387
   89MOL   H23733853   4.388   5.277   7.120  0.4807  1.0558 -1.4209
   89MOL   H23833854   4.548   5.198   7.145  0.4557  0.5236  1.2040
   89MOL   H23933855   4.656   5.426   7.114 -0.5009  1.8206  1.7166
   89MOL   H24033856   4.758   5.406   6.900  0.0730  0.4906  1.2096
   89MOL   H24133857   4.744   5.243   6.969  1.8870  0.2230 -1.6315
   89MOL   H24233858   4.625   5.156   6.774  1.2516 -1.2092 -0.9159
   89MOL   H24333859   4.616   5.316   6.703 -0.0628 -0.1434  1.0504
   89MOL   H24433860   4.794   5.150   6.599  0.5858 -0.5162  0.3838
   89MOL   H24533861   4.868   5.142   6.752 -1.0229  0.8651  0.6874
   89MOL   H24633862   4.849   5.414   6.602 -2.1412 -1.6030 -0.6702
   89MOL   H24733863   4.978   5.302   6.587  1.7246  1.2561  0.7540
   89MOL   H24833864   4.948   5.375   6.744  1.6157  0.3533 -0.9252
   89MOL   C24933865   4.468   5.536   7.067 -0.6779 -0.0517  1.3792
   89MOL   C25033866   4.514   5.635   6.961 -0.8737  0.5145  0.2773
   89MOL   O25133867   4.649   5.671   6.996  0.6168 -0.8875 -0.0563
   89MOL   C25233868   4.722   5.719   6.892 -0.3318  0.2377  0.4521
   89MOL   C25333869   4.851   5.783   6.946  0.0241 -0.1798 -0.4267
   89MOL   C25433870   4.914   5.874   6.841 -0.4389  0.3068 -0.0806
   89MOL   C25533871   5.010   5.788   6.757  0.1414  0.0814 -0.1430
   89MOL   H25633872   4.464   5.587   7.163 -2.5135  0.4850  1.0355
   89MOL   H25733873   4.365   5.512   7.041  0.3793 -1.2968 -1.9157
   89MOL   H25833874   4.504   5.597   6.860 -2.7395  1.8216 -0.0553
   89MOL   H25933875   4.674   5.801   6.839 -0.0881 -0.7194 -1.3090
   89MOL   H26033876   4.753   5.633   6.832  1.7353  0.2987  1.4025
   89MOL   H26133877   4.828   5.840   7.037  0.1221 -3.1456  1.5082
   89MOL   H26233878   4.909   5.701   6.988  2.7705  0.9286 -1.9512
   89MOL   H26333879   4.843   5.916   6.770  0.7083  2.0412 -0.2328
   89MOL   H26433880   4.980   5.944   6.892  0.3760  1.0884 -2.1247
   89MOL   H26533881   5.067   5.844   6.683  0.2421  0.8473  0.5122
   89MOL   H26633882   4.957   5.714   6.697 -0.2894  0.2813 -0.0171
   89MOL   H26733883   5.086   5.741   6.819 -1.9297  0.2423  2.6264
   89MOL   C26833884   4.425   5.762   6.949  0.3039  0.3977 -1.3184
   89MOL   C26933885   4.274   5.738   6.921 -0.6472  0.2822 -0.0029
   89MOL   O27033886   4.227   5.880   6.913 -0.2278  0.1950 -0.6282
   89MOL   C27133887   4.109   5.907   6.980 -0.2511 -0.2672 -0.1622
   89MOL   C27233888   4.057   6.049   6.945  0.3560 -0.2094 -0.1343
   89MOL   C27333889   4.023   6.081   6.798 -0.4599 -0.1502  0.0133
   89MOL   C27433890   3.993   6.230   6.772  0.0056 -0.6128 -0.0399
   89MOL   H27533891   4.430   5.814   7.044  2.0715  0.9597 -1.7014
   89MOL   H27633892   4.464   5.832   6.875 -3.2616  2.2598 -1.5096
   89MOL   H27733893   4.229   5.675   6.997 -1.0637  0.2524 -0.2680
   89MOL   H27833894   4.034   5.832   6.955 -1.0759  0.5566 -0.1963
   89MOL   H27933895   4.121   5.888   7.086  1.1129  0.5726 -0.1456
   89MOL   H28033896   3.970   6.059   7.010  1.4788  2.7282  1.0057
   89MOL   H28133897   4.130   6.123   6.978  0.4499 -1.0925  1.7137
   89MOL   H28233898   3.943   6.016   6.762  0.0621  0.5072 -2.4538
   89MOL   H28333899   4.113   6.050   6.745  1.0124  0.1031  2.3181
   89MOL   H28433900   4.062   6.295   6.826  1.2986 -1.5879 -0.5274
   89MOL   H28533901   3.898   6.275   6.803 -0.7923 -2.8601  0.8275
   89MOL   H28633902   4.004   6.257   6.667  1.0573 -1.9412 -0.2860
   89MOL   C28733903   4.251   5.687   6.776 -0.0548  0.0882  0.1691
   89MOL   C28833904   4.240   5.533   6.763 -0.2789 -0.3330  0.1202
   89MOL   O28933905   4.256   5.502   6.629 -0.7109  0.7128 -0.1259
   89MOL   C29033906   4.379   5.464   6.585 -0.1629  0.0206 -0.5897
   89MOL   C29133907   4.391   5.433   6.437  0.2104 -0.1199  0.3004
   89MOL   C29233908   4.530   5.386   6.403 -0.5802  1.0706  0.4834
   89MOL   C29333909   4.548   5.234   6.430 -0.3091  0.0913  0.2820
   89MOL   H29433910   4.326   5.720   6.704 -0.4661  1.5518  0.3884
   89MOL   H29533911   4.161   5.735   6.735  0.4667 -0.1272 -1.2509
   89MOL   H29633912   4.322   5.491   6.821 -0.9709 -2.3274 -0.2857
   89MOL   H29733913   4.451   5.544   6.605 -0.8014  0.9819 -2.0993
   89MOL   H29833914   4.409   5.375   6.641  2.1992 -0.2535 -2.1947
   89MOL   H29933915   4.365   5.527   6.387  2.6592 -0.0138 -0.8031
   89MOL   H30033916   4.321   5.357   6.401 -3.4583  1.9981  2.5694
   89MOL   H30133917   4.611   5.437   6.456  0.7001 -1.4078  1.0051
   89MOL   H30233918   4.554   5.414   6.301  0.3422  1.2006  0.7273
   89MOL   H30333919   4.499   5.194   6.519  2.8357 -0.8175  1.7036
   89MOL   H30433920   4.495   5.187   6.347  1.5740 -0.2660 -0.7530
   89MOL   H30533921   4.648   5.191   6.438 -0.6896 -0.7099  0.9126
   89MOL   C30633922   4.111   5.470   6.815 -0.3746  0.1560 -0.0035
   89MOL   C30733923   4.107   5.311   6.791 -0.2034 -0.3755 -0.0458
   89MOL   O30833924   3.977   5.250   6.835 -0.0907 -0.5907 -0.4508
   89MOL   C30933925   3.858   5.282   6.758 -0.2020 -0.0020 -0.1855
   89MOL   C31033926   3.741   5.181   6.801 -0.0479 -0.6464  0.9162
   89MOL   C31133927   3.763   5.042   6.765 -0.2116 -0.1245  0.3655
   89MOL   C31233928   3.646   4.934   6.792 -0.0115  0.1170 -0.0659
   89MOL   H31333929   4.116   5.470   6.924 -1.1300 -0.6427  0.0379
   89MOL   H31433930   4.025   5.527   6.779  0.0625 -0.0677 -1.4505
   89MOL   H31533931   4.121   5.304   6.683 -1.0495  0.0612 -0.1930
   89MOL   H31633932   3.879   5.273   6.652  0.1761 -0.0302 -0.1085
   89MOL   H31733933   3.827   5.385   6.779 -1.1095 -0.6381  1.7107
   89MOL   H31833934   3.653   5.215   6.747  0.5860 -0.0165  0.2589
   89MOL   H31933935   3.716   5.203   6.905  0.1988  0.8010  0.6785
   89MOL   H32033936   3.785   5.035   6.659  2.2006 -0.1497  0.8223
   89MOL   H32133937   3.850   5.003   6.818 -1.7406  0.1988  3.2476
   89MOL   H32233938   3.639   4.898   6.895  2.8648  0.9906  0.4932
   89MOL   H32333939   3.649   4.848   6.726  0.4606 -0.5689  0.8385
   89MOL   H32433940   3.549   4.977   6.770  0.1259  0.3075 -0.3089
   89MOL   C32533941   4.214   5.236   6.869 -1.3528  0.1714  0.2842
   89MOL   C32633942   4.224   5.083   6.845  0.0380  0.2064 -0.5006
   89MOL   O32733943   4.269   5.070   6.706  0.0241  0.9753  0.1794
   89MOL   C32833944   4.187   5.016   6.608 -0.4088 -0.1040 -0.4188
   89MOL   C32933945   4.268   5.016   6.478  0.4018  0.3890 -0.4233
   89MOL   C33033946   4.201   4.950   6.357 -0.5913 -0.3493  0.5258
   89MOL   C33133947   4.112   5.048   6.285 -0.1426  0.2150  0.1479
   89MOL   H33233948   4.194   5.265   6.972 -1.4208  1.9914 -0.2291
   89MOL   H33333949   4.315   5.273   6.854 -1.9286  1.2101 -1.0639
   89MOL   H33433950   4.128   5.036   6.867  0.6414 -1.0188 -0.4213
   89MOL   H33533951   4.091   5.066   6.596 -0.8192 -0.3416  1.6666
   89MOL   H33633952   4.160   4.914   6.635  1.4573 -0.2546  1.0666
   89MOL   H33733953   4.293   5.120   6.455 -0.5606  1.2263  2.1354
   89MOL   H33833954   4.358   4.958   6.497  0.7348  1.5578  1.6696
   89MOL   H33933955   4.156   4.858   6.395 -0.9218  0.3144  1.7439
   89MOL   H34033956   4.271   4.923   6.278  0.0847  2.3799  0.1521
   89MOL   H34133957   4.152   5.148   6.268 -0.1573  0.2079  0.0731
   89MOL   H34233958   4.016   5.052   6.337 -0.7885  1.6095 -1.0925
   89MOL   H34333959   4.094   5.002   6.188 -0.1772 -1.5277  0.9659
   89MOL   C34433960   4.320   5.009   6.949 -0.3080 -0.4807 -0.0854
   89MOL   C34533961   4.330   4.856   6.937  0.2058 -0.1947 -0.3887
   89MOL   O34633962   4.196   4.811   6.958 -0.2075 -0.6255 -0.1627
   89MOL   C34733963   4.152   4.701   6.885 -0.0916  0.5688  0.2332
   89MOL   C34833964   3.998   4.703   6.877 -0.5090 -0.7094  0.0181
   89MOL   C34933965   3.931   4.581   6.808  0.3962  0.0429  0.0493
   89MOL   C35033966   3.785   4.558   6.849  0.3702  0.3541 -0.2777
   89MOL   H35133967   4.420   5.052   6.940 -0.7528  0.2169 -1.8594
   89MOL   H35233968   4.270   5.032   7.043 -1.0914 -0.9869 -0.3713
   89MOL   H35333969   4.368   4.835   6.837  0.0818  1.6813 -0.8462
   89MOL   H35433970   4.174   4.611   6.944 -0.0251  0.3470 -0.1325
   89MOL   H35533971   4.198   4.693   6.787 -0.4539 -0.3312  0.1283
   89MOL   H35633972   3.958   4.790   6.825  1.0526 -0.0733 -0.1532
   89MOL   H35733973   3.965   4.693   6.981 -1.8447  1.8343 -0.1241
   89MOL   H35833974   3.939   4.598   6.701  0.0559 -4.1360 -0.7198
   89MOL   H35933975   3.984   4.486   6.812  1.9373  0.7335 -2.6937
   89MOL   H36033976   3.733   4.499   6.774 -2.5220  3.4878 -0.8572
   89MOL   H36133977   3.735   4.655   6.849  1.2124  0.8072  1.6111
   89MOL   H36233978   3.786   4.513   6.948  1.3679  1.3679  0.1778
   89MOL   C36333979   4.417   4.807   7.044 -0.7763  0.3654 -0.0373
   89MOL   C36433980   4.481   4.670   7.024 -0.5518  0.3675 -0.1557
   89MOL   O36533981   4.565   4.637   7.136  0.2546  0.8833  0.4563
   89MOL   C36633982   4.607   4.503   7.129 -0.0920  0.0289 -0.2485
   89MOL   C36733983   4.706   4.488   7.251  0.1880 -0.4534 -0.3035
   89MOL   C36833984   4.844   4.545   7.211 -0.1433 -0.3487  0.8482
   89MOL   C36933985   4.935   4.523   7.330 -0.0449 -0.1845  0.5999
   89MOL   H37033986   4.374   4.822   7.143 -0.1315  1.1176  0.1386
   89MOL   H37133987   4.507   4.869   7.036 -0.1129 -0.5423  0.3827
   89MOL   H37233988   4.536   4.677   6.930 -0.6160 -0.0416 -0.2230
   89MOL   H37333989   4.665   4.481   7.040 -0.3487  2.2871 -0.9824
   89MOL   H37433990   4.521   4.436   7.121  0.5850 -1.0846  1.3592
   89MOL   H37533991   4.721   4.382   7.274 -2.2691 -0.6591  0.4603
   89MOL   H37633992   4.667   4.532   7.342 -2.9095 -1.9843 -0.8137
   89MOL   H37733993   4.818   4.650   7.196 -0.1169 -0.0969  2.5052
   89MOL   H37833994   4.891   4.504   7.122 -1.2965 -1.0428  0.5374
   89MOL   H37933995   4.966   4.419   7.346  0.4447 -0.0457  0.5582
   89MOL   H38033996   5.015   4.594   7.312 -0.8320 -0.0574 -2.7026
   89MOL   H38133997   4.883   4.563   7.417  2.2112  0.9521  1.4569
   89MOL   H38233998   4.400   4.598   7.018 -0.0543 -0.0499 -1.9184
   90MOL     C133999   0.795   7.189   0.693  0.0895 -0.5192  0.2921
   90MOL     C234000   0.715   7.289   0.783 -0.4990  0.3384  0.0961
   90MOL     O334001   0.590   7.231   0.796 -0.1603 -0.3750 -0.1202
   90MOL     C434002   0.500   7.264   0.698 -0.0387  0.1618  0.1192
   90MOL     C534003   0.386   7.167   0.742 -0.1643  0.0070 -0.2674
   90MOL     C634004   0.252   7.194   0.671 -0.2380 -0.1121  0.0717
   90MOL     C734005   0.172   7.315   0.734  0.4365  0.4568  0.0872
   90MOL     H834006   0.800   7.090   0.738  1.0583  0.3472  2.1502
   90MOL     H934007   0.759   7.179   0.591  1.7321  0.3326 -0.3939
   90MOL    H1034008   0.710   7.389   0.739 -0.2162  1.1319  1.8238
   90MOL    H1134009   0.461   7.366   0.693 -0.0820  0.1379 -0.0314
   90MOL    H1234010   0.544   7.238   0.602  0.4778 -2.4164  1.0052
   90MOL    H1334011   0.382   7.175   0.850  1.0456  1.1085 -0.2995
   90MOL    H1434012   0.411   7.063   0.722  0.8902  0.4391 -1.2606
   90MOL    H1534013   0.186   7.108   0.685 -0.6679  0.3894  1.2981
   90MOL    H1634014   0.271   7.217   0.567 -1.2729 -0.5499 -0.2166
   90MOL    H1734015   0.075   7.312   0.684  0.2930 -0.9261  0.4422
   90MOL    H1834016   0.213   7.414   0.711  1.1396 -0.0219 -0.7302
   90MOL    H1934017   0.158   7.316   0.842  0.9402 -0.2389  0.1570
   90MOL    H2034018   0.894   7.231   0.675 -0.6616  0.5594 -1.5137
   90MOL    C2134019   0.784   7.312   0.922  0.0163 -0.1615 -0.5410
   90MOL    C2234020   0.879   7.431   0.928 -0.4942  0.5653 -0.1632
   90MOL    O2334021   0.941   7.419   1.055 -0.6885 -0.3690  0.5152
   90MOL    C2434022   0.894   7.497   1.165 -0.1075  0.2718 -0.6209
   90MOL    C2534023   0.975   7.456   1.289  0.1379 -0.0345  0.5527
   90MOL    C2634024   0.940   7.548   1.408 -0.2347 -0.3761 -0.1448
   90MOL    C2734025   1.001   7.498   1.543  0.3607  1.1163  0.4716
   90MOL    H2834026   0.845   7.225   0.947 -1.1584 -1.3933 -1.9128
   90MOL    H2934027   0.707   7.332   0.997  1.9975 -1.9667  2.0771
   90MOL    H3034028   0.820   7.522   0.912 -1.5644 -0.4047 -1.8882
   90MOL    H3134029   0.790   7.469   1.178 -0.0428  0.8576  1.2103
   90MOL    H3234030   0.907   7.602   1.139  0.3704  0.4564  0.3359
   90MOL    H3334031   0.935   7.357   1.311 -0.8190  0.4349  0.9497
   90MOL    H3434032   1.080   7.462   1.263  0.4291  0.7319  1.8820
   90MOL    H3534033   0.986   7.644   1.384 -0.3941 -0.6627 -1.6198
   90MOL    H3634034   0.831   7.553   1.415 -0.3752  0.2436 -2.5156
   90MOL    H3734035   0.953   7.542   1.631 -0.9543 -0.6126  0.6268
   90MOL    H3834036   0.985   7.393   1.564 -0.6411  1.7697  3.2642
   90MOL    H3934037   1.109   7.511   1.552  0.7757 -2.0023  0.5173
   90MOL    C4034038   0.998   7.439   0.827  1.0196  0.1293  0.4781
   90MOL    C4134039   1.091   7.562   0.842 -0.1099 -0.7044 -0.1396
   90MOL    O4234040   1.018   7.681   0.808 -0.0859 -0.0394 -0.2390
   90MOL    C4334041   1.010   7.770   0.909 -0.3991  0.1721 -0.9662
   90MOL    C4434042   0.898   0.057   0.867 -0.0052 -0.2747  0.0743
   90MOL    C4534043   0.935   0.140   0.743  0.6801  0.2961  0.7312
   90MOL    C4634044   0.874   0.281   0.738 -0.4201 -0.1850 -0.3234
   90MOL    H4734045   0.956   7.448   0.727 -1.8549 -1.0752  1.5236
   90MOL    H4834046   1.062   7.351   0.837  0.0811 -0.7170 -0.8618
   90MOL    H4934047   1.135   7.565   0.942  0.8307 -0.1366 -0.5643
   90MOL    H5034048   1.105   0.020   0.928 -0.3414 -0.9783  2.0287
   90MOL    H5134049   0.990   7.710   0.997  4.0248 -0.3617 -0.1815
   90MOL    H5234050   0.877   0.129   0.947 -0.9318  0.8744 -1.1766
   90MOL    H5334051   0.810   7.796   0.850  1.0747 -1.0797 -2.7786
   90MOL    H5434052   0.905   0.080   0.657  1.0858 -0.4496  1.1134
   90MOL    H5534053   1.043   0.144   0.737  0.8657 -1.6530  2.1890
   90MOL    H5634054   0.862   0.312   0.634  1.1747  0.5445 -0.3203
   90MOL    H5734055   0.773   0.275   0.776  0.0634 -2.5849  0.6310
   90MOL    H5834056   0.931   0.350   0.801  1.0781 -1.8930  0.2263
   90MOL    C5934057   1.215   7.561   0.755  0.9356 -0.3848 -0.2958
   90MOL    C6034058   1.331   7.466   0.799 -0.0149 -0.1666 -0.0697
   90MOL    O6134059   1.285   7.338   0.771 -0.3341  0.1127  0.5568
   90MOL    C6234060   1.287   7.248   0.882 -0.1849  0.1647 -0.7962
   90MOL    C6334061   1.228   7.110   0.855 -0.5235  0.3483 -0.2002
   90MOL    C6434062   1.306   7.031   0.753 -0.0589  0.3666  0.2735
   90MOL    C6534063   1.219   6.927   0.680  0.3127 -0.3308  0.2984
   90MOL    H6634064   1.186   7.532   0.653 -0.7510 -1.7738  0.5480
   90MOL    H6734065   1.262   7.658   0.768  1.9265 -0.9326  0.2680
   90MOL    H6834066   1.352   7.487   0.904 -0.2391 -1.9962  0.3723
   90MOL    H6934067   1.226   7.299   0.957  0.0790 -1.9666  0.8922
   90MOL    H7034068   1.391   7.233   0.913 -1.1031 -2.7614  1.0223
   90MOL    H7134069   1.221   7.052   0.947 -0.6027 -1.1006 -1.1038
   90MOL    H7234070   1.131   7.114   0.807 -0.8064 -1.5238  0.1609
   90MOL    H7334071   1.347   7.092   0.673  2.5021 -3.7666 -1.7565
   90MOL    H7434072   1.392   6.980   0.795 -0.7914 -0.0747  1.2764
   90MOL    H7534073   1.273   6.908   0.587  0.3791 -1.6536  0.5903
   90MOL    H7634074   1.226   6.829   0.726 -1.8125 -0.2009  0.9176
   90MOL    H7734075   1.115   6.953   0.662  0.2225  0.4098  1.8812
   90MOL    C7834076   1.460   7.497   0.721  0.3941  0.3051  0.7984
   90MOL    C7934077   1.575   7.396   0.731  0.5718 -0.1349  0.6429
   90MOL    O8034078   1.658   7.438   0.848  0.0391 -0.0930  0.6747
   90MOL    C8134079   1.627   7.374   0.970  0.3322 -0.0894  0.2253
   90MOL    C8234080   1.733   7.401   1.077 -0.2197 -0.0206  0.3735
   90MOL    C8334081   1.863   7.319   1.051 -0.7039  0.6139 -0.3155
   90MOL    C8434082   1.967   7.406   0.970 -0.5254 -0.2902  0.0937
   90MOL    H8534083   1.481   7.599   0.753 -0.7391  0.9796 -0.5422
   90MOL    H8634084   1.437   7.500   0.615 -0.9410 -0.8516  1.0326
   90MOL    H8734085   1.534   7.295   0.726 -0.9942  0.5737 -1.6187
   90MOL    H8834086   1.606   7.269   0.950  0.7257  0.1839 -1.7837
   90MOL    H8934087   1.537   7.418   1.013 -0.8357 -0.3485 -1.8598
   90MOL    H9034088   1.755   7.507   1.089  3.3281 -0.5817 -0.5832
   90MOL    H9134089   1.704   7.357   1.172 -1.1769  2.0784  1.0929
   90MOL    H9234090   1.833   7.223   1.009  2.7387 -1.0386  0.8317
   90MOL    H9334091   1.896   7.293   1.152 -0.8520  0.8256 -0.2107
   90MOL    H9434092   2.018   7.477   1.034  0.2311  0.2626 -1.1105
   90MOL    H9534093   2.037   7.331   0.932 -0.0559 -0.1229  0.6339
   90MOL    H9634094   1.936   7.468   0.886 -0.9916  0.0705  0.5302
   90MOL    C9734095   1.665   7.402   0.609 -0.4920 -0.2309  0.0467
   90MOL    C9834096   1.791   7.312   0.605  0.6704 -0.0781 -0.7975
   90MOL    O9934097   1.739   7.185   0.599  0.2191  0.0972 -0.0332
   90MOL   C10034098   1.831   7.080   0.616  0.0119  0.3527  0.0793
   90MOL   C10134099   1.752   6.948   0.649 -0.1481 -1.0247  0.4101
   90MOL   C10234100   1.678   6.891   0.533 -0.4218 -0.4310 -0.0576
   90MOL   C10334101   1.584   6.775   0.580 -0.0911 -0.0112 -0.0554
   90MOL   H10434102   1.697   7.506   0.600 -0.3197 -0.2023  0.9777
   90MOL   H10534103   1.603   7.377   0.523 -1.3891 -1.1688  0.9529
   90MOL   H10634104   1.850   7.330   0.696  1.0071 -2.9615 -0.3888
   90MOL   H10734105   1.888   7.101   0.706  1.5492 -0.3762 -0.7069
   90MOL   H10834106   1.900   7.069   0.532 -1.2770 -1.9037 -0.7342
   90MOL   H10934107   1.679   6.953   0.729 -2.2455 -1.2392 -1.4499
   90MOL   H11034108   1.825   6.878   0.692 -0.7633  0.2648  3.7143
   90MOL   H11134109   1.736   6.848   0.451 -2.7236  0.2445 -2.1098
   90MOL   H11234110   1.609   6.968   0.500 -0.8118 -1.2016 -1.0788
   90MOL   H11334111   1.650   6.696   0.615  0.8549  0.5213 -0.5940
   90MOL   H11434112   1.517   6.800   0.663  0.1368  1.1280 -0.1964
   90MOL   H11534113   1.537   6.728   0.494 -2.1368  0.2296  0.8956
   90MOL   C11634114   1.882   7.348   0.485 -0.2181 -0.4036 -0.4969
   90MOL   C11734115   2.035   7.340   0.507 -0.1788  0.8554 -0.1526
   90MOL   O11834116   2.093   7.341   0.378  0.0889 -0.1728  0.2673
   90MOL   C11934117   2.112   7.214   0.319  0.1172  0.0765 -0.5024
   90MOL   C12034118   2.208   7.235   0.193  0.3546  0.3114 -0.3122
   90MOL   C12134119   2.344   7.265   0.251 -0.5695 -0.5143  0.1551
   90MOL   C12234120   2.440   7.327   0.142 -0.3211 -0.0007  0.2173
   90MOL   H12334121   1.866   7.271   0.409  1.9476 -0.0662 -1.3166
   90MOL   H12434122   1.856   7.445   0.442  1.8138 -0.0958 -1.0484
   90MOL   H12534123   2.058   7.251   0.565  0.7255  0.9244 -0.3860
   90MOL   H12634124   2.020   7.167   0.285  0.3125 -0.1749 -0.6848
   90MOL   H12734125   2.154   7.133   0.379 -0.7276  1.1899  1.6454
   90MOL   H12834126   2.166   7.308   0.124  2.0410  0.8114 -0.8353
   90MOL   H12934127   2.218   7.142   0.137  1.6753 -0.0258  0.4487
   90MOL   H13034128   2.334   7.332   0.336 -1.1690 -0.5191  0.0881
   90MOL   H13134129   2.393   7.174   0.286  1.8227 -0.4436 -2.7807
   90MOL   H13234130   2.430   7.272   0.049  0.6966  0.8574 -0.3991
   90MOL   H13334131   2.540   7.301   0.178 -0.4269 -0.2580  0.3293
   90MOL   H13434132   2.414   7.431   0.125 -0.7535 -0.1888 -0.2621
   90MOL   C13534133   2.096   7.455   0.586  0.6602 -0.1975  0.2710
   90MOL   C13634134   2.251   7.447   0.609 -0.3768  0.0719 -0.0867
   90MOL   O13734135   2.287   7.561   0.683  0.2760  0.0178  0.4718
   90MOL   C13834136   2.313   7.667   0.602 -0.0304 -0.2389 -0.2765
   90MOL   C13934137   2.383   7.784   0.675  1.0817  0.1255  0.0740
   90MOL   C14034138   2.520   7.736   0.717 -0.5181  0.8981 -0.6442
   90MOL   C14134139   2.605   0.058   0.757  0.1823  0.3320  0.2236
   90MOL   H14234140   2.059   7.464   0.689  1.7665 -3.7413  1.0294
   90MOL   H14334141   2.071   7.547   0.532 -0.8399 -0.5603  0.3078
   90MOL   H14434142   2.294   7.447   0.509  0.0539  2.4069  0.0704
   90MOL   H14534143   2.215   7.698   0.568 -0.2197  0.0674  0.5440
   90MOL   H14634144   2.371   7.649   0.512 -0.5107 -0.0949 -0.6137
   90MOL   H14734145   2.326   0.016   0.762  0.8664 -1.5593  0.6107
   90MOL   H14834146   2.376   0.069   0.610  1.2125  0.9977  1.2033
   90MOL   H14934147   2.503   7.669   0.801 -0.9760  1.8642  0.0381
   90MOL   H15034148   2.575   7.673   0.647  0.9796 -0.4422  1.6830
   90MOL   H15134149   2.706   0.017   0.764  1.4636  3.1817 -0.8826
   90MOL   H15234150   2.606   0.142   0.687  2.1754  0.6204  0.5856
   90MOL   H15334151   2.576   0.094   0.856 -1.8450 -0.0419 -0.2192
   90MOL   C15434152   2.301   7.320   0.685  0.5367  0.2234  0.5576
   90MOL   C15534153   2.449   7.323   0.699  0.0002 -0.3951  0.2701
   90MOL   O15634154   2.504   7.293   0.578 -0.2460 -0.0695 -0.4224
   90MOL   C15734155   2.636   7.349   0.569 -0.8795  0.4677  0.1963
   90MOL   C15834156   2.662   7.382   0.415  1.1329  0.4847 -0.8299
   90MOL   C15934157   2.787   7.467   0.392  0.5844 -0.3302  0.4950
   90MOL   C16034158   2.798   7.498   0.243 -0.3682  0.2066 -0.4333
   90MOL   H16134159   2.264   7.230   0.635 -0.4440  0.6794  0.4426
   90MOL   H16234160   2.266   7.321   0.788 -0.1781 -4.8241  0.4945
   90MOL   H16334161   2.472   7.424   0.731  1.3442 -1.0706  1.5556
   90MOL   H16434162   2.658   7.430   0.639  0.2743 -0.9564  1.4946
   90MOL   H16534163   2.713   7.274   0.586 -0.1076  0.9889 -0.9048
   90MOL   H16634164   2.567   7.431   0.392 -0.2246 -1.3272  0.7891
   90MOL   H16734165   2.677   7.294   0.354  0.5019 -0.0899 -0.1655
   90MOL   H16834166   2.780   7.562   0.445 -1.6761 -0.1598 -0.0827
   90MOL   H16934167   2.878   7.418   0.427  1.8174  0.7468 -1.1326
   90MOL   H17034168   2.831   7.413   0.183  0.7670  1.1976 -1.2412
   90MOL   H17134169   2.706   7.535   0.197 -0.3192 -1.3984 -1.8907
   90MOL   H17234170   2.879   7.570   0.233  0.0089  0.2553  2.4840
   90MOL   C17334171   2.508   7.228   0.804 -0.5139  0.4101 -0.4531
   90MOL   C17434172   2.593   7.285   0.923 -0.3025 -0.4050 -0.5850
   90MOL   O17534173   2.698   7.357   0.861 -0.2125 -0.5370 -0.3554
   90MOL   C17634174   2.833   7.319   0.885  0.1244  0.3947 -0.0564
   90MOL   C17734175   2.937   7.410   0.807  0.5062 -0.3887  0.0936
   90MOL   C17834176   2.925   7.557   0.829 -0.0899  0.1186 -0.4004
   90MOL   C17934177   3.024   7.636   0.746  0.5018 -0.2809 -0.1663
   90MOL   H18034178   2.576   7.156   0.760 -2.6163 -0.7233 -1.9296
   90MOL   H18134179   2.438   7.153   0.840 -1.6876  0.9193 -1.5935
   90MOL   H18234180   2.628   7.198   0.979 -0.2762 -0.3947 -0.5852
   90MOL   H18334181   2.832   7.224   0.831  1.8195 -0.2536  0.9882
   90MOL   H18434182   2.846   7.317   0.994  0.3949  0.0993 -0.0902
   90MOL   H18534183   2.934   7.393   0.699 -1.0568 -2.3480  0.4314
   90MOL   H18634184   3.038   7.387   0.839  1.1795  0.1041 -1.6383
   90MOL   H18734185   2.822   7.591   0.817  0.3286  1.3446 -0.5183
   90MOL   H18834186   2.945   7.581   0.933 -0.3015 -1.0096 -0.0864
   90MOL   H18934187   3.129   7.609   0.759  0.8103  0.1966 -1.5818
   90MOL   H19034188   2.995   7.627   0.641 -0.7731 -2.0481  0.2995
   90MOL   H19134189   3.004   7.740   0.769  0.1994 -0.0499 -1.4668
   90MOL   C19234190   2.498   7.377   1.014 -1.3173  0.0862 -0.2044
   90MOL   C19334191   2.578   7.466   1.101  0.2534 -0.1248 -0.2315
   90MOL   O19434192   2.493   7.552   1.175  0.2538 -0.4402 -0.3839
   90MOL   C19534193   2.493   7.693   1.136  0.1443 -0.0986 -0.4262
   90MOL   C19634194   2.369   7.714   1.055 -0.7729 -0.3762 -0.1611
   90MOL   C19734195   2.228   7.675   1.116 -0.1651 -0.0277 -0.9089
   90MOL   C19834196   2.112   7.749   1.044  0.1890  0.2964  0.1286
   90MOL   H19934197   2.430   7.311   1.067  0.4769 -2.1619 -0.6049
   90MOL   H20034198   2.436   7.440   0.950 -3.5083 -0.3768  1.4271
   90MOL   H20134199   2.657   7.521   1.051  1.0026  0.1342  1.1992
   90MOL   H20234200   2.578   7.722   1.075 -0.1479  2.4667  0.3239
   90MOL   H20334201   2.495   7.764   1.218 -2.9012  2.2672 -2.2971
   90MOL   H20434202   2.354   0.020   1.046  1.3643  0.2352  3.0158
   90MOL   H20534203   2.376   7.670   0.956  1.2054 -1.2123  0.3322
   90MOL   H20634204   2.224   7.710   1.219 -1.5441  0.7862 -1.2234
   90MOL   H20734205   2.217   7.567   1.102 -0.5622 -0.0909 -0.1206
   90MOL   H20834206   2.106   0.056   1.050 -0.8186  0.2083  0.8555
   90MOL   H20934207   2.111   7.723   0.939  1.0375 -0.0372  0.1958
   90MOL   H21034208   2.017   7.716   1.084  0.5462  1.0185  1.6410
   90MOL   C21134209   2.648   7.400   1.214 -0.1368 -0.4521 -0.2494
   90MOL   C21234210   2.724   7.494   1.319  0.1891  0.8079  0.4786
   90MOL   O21334211   2.755   7.414   1.437  0.1996  0.1674 -0.5458
   90MOL   C21434212   2.669   7.443   1.546 -0.2326  0.6903  0.2515
   90MOL   C21534213   2.671   7.331   1.648  0.6788  0.4374 -0.1474
   90MOL   C21634214   2.592   7.367   1.775  0.2958 -0.3189  0.3572
   90MOL   C21734215   2.624   7.273   1.891  0.4991 -0.2701 -0.4232
   90MOL   H21834216   2.723   7.323   1.195  0.6489  0.0753  0.6560
   90MOL   H21934217   2.572   7.359   1.280  0.3839  0.2200  0.7907
   90MOL   H22034218   2.650   7.572   1.337 -0.6503 -0.1475  1.2413
   90MOL   H22134219   2.694   7.537   1.596  0.9516  0.3909  0.2202
   90MOL   H22234220   2.567   7.458   1.510 -0.2121  1.2701  0.4215
   90MOL   H22334221   2.633   7.237   1.609 -0.8925  0.8579  0.3383
   90MOL   H22434222   2.775   7.302   1.665  0.6092 -0.0164 -0.4675
   90MOL   H22534223   2.484   7.377   1.766  0.0458 -2.2503  0.8935
   90MOL   H22634224   2.629   7.464   1.809  1.0246  0.2469 -1.9439
   90MOL   H22734225   2.600   7.170   1.866 -0.9193  0.3215 -1.5963
   90MOL   H22834226   2.563   7.306   1.975  1.7332  1.1372 -0.0505
   90MOL   H22934227   2.732   7.276   1.907  0.5316 -4.0979  0.4612
   90MOL   C23034228   2.847   7.569   1.259  0.4202 -0.0960 -0.2546
   90MOL   C23134229   2.928   7.638   1.365  0.8039  0.3799  0.2615
   90MOL   O23234230   3.059   7.624   1.326 -0.4985 -0.1120  0.0873
   90MOL   C23334231   3.124   7.500   1.351 -0.0747  0.1967 -0.1213
   90MOL   C23434232   3.265   7.493   1.286  0.4807 -0.0384 -0.5775
   90MOL   C23534233   3.277   7.532   1.135  0.3631 -0.2705 -0.2378
   90MOL   C23634234   3.234   7.415   1.048  0.0748  0.1480 -0.4756
   90MOL   H23734235   2.817   7.631   1.174 -2.5416 -1.7068 -0.4327
   90MOL   H23834236   2.907   7.492   1.211 -0.5032 -0.8415 -0.2306
   90MOL   H23934237   2.914   7.595   1.464 -0.0477  0.3349  0.1293
   90MOL   H24034238   3.141   7.484   1.457 -1.0734  0.1366  0.0328
   90MOL   H24134239   3.063   7.414   1.321 -1.9278  0.6701  2.1578
   90MOL   H24234240   3.323   7.562   1.347  1.6938 -2.0265  0.5689
   90MOL   H24334241   3.314   7.396   1.303  1.0547  0.0803 -1.5503
   90MOL   H24434242   3.385   7.548   1.126  0.3354  0.5225  0.7829
   90MOL   H24534243   3.219   7.624   1.128  0.1737 -0.3525  0.2545
   90MOL   H24634244   3.250   7.427   0.941  1.5675  1.0725 -0.1579
   90MOL   H24734245   3.131   7.383   1.063 -0.0112 -0.4065 -2.1077
   90MOL   H24834246   3.299   7.330   1.070 -1.7417 -1.1353  0.0838
   90MOL   C24934247   2.900   7.790   1.372  0.5408 -0.4026  0.3638
   90MOL   C25034248   2.774   0.026   1.455 -0.5876 -0.4173 -0.0988
   90MOL   O25134249   2.750   0.169   1.440 -0.0861  0.3978 -0.5263
   90MOL   C25234250   2.664   0.198   1.329 -0.2785 -0.1808 -0.4681
   90MOL   C25334251   2.689   0.347   1.303 -0.0154  0.3757 -0.3948
   90MOL   C25434252   2.617   0.432   1.410  0.4498 -0.2810  0.4590
   90MOL   C25534253   2.637   0.582   1.398  0.3741  0.5532 -0.0257
   90MOL   H25634254   2.882   0.027   1.272  1.8223  1.8483  0.9499
   90MOL   H25734255   2.991   0.043   1.399  1.3844 -1.8973  0.5832
   90MOL   H25834256   2.699   7.761   1.411 -1.5191  0.6528 -0.1410
   90MOL   H25934257   2.560   0.169   1.341 -0.2455  0.0739  0.5237
   90MOL   H26034258   2.693   0.138   1.243  3.7465 -0.2911  0.8364
   90MOL   H26134259   2.794   0.369   1.286 -0.6384  1.8319 -2.6221
   90MOL   H26234260   2.640   0.368   1.208  1.8666 -2.1697 -1.9547
   90MOL   H26334261   2.511   0.414   1.430  0.7280 -0.1173  2.1165
   90MOL   H26434262   2.661   0.404   1.505  3.6979 -0.7826 -1.1323
   90MOL   H26534263   2.742   0.609   1.403  0.8753 -1.4930  0.8005
   90MOL   H26634264   2.596   0.631   1.487  1.1984  0.5722  0.3488
   90MOL   H26734265   2.599   0.629   1.308 -1.1798 -1.1582 -0.2882
   90MOL   C26834266   2.796   0.008   1.601  0.4135  0.0221 -0.0818
   90MOL   C26934267   2.677   0.034   1.690  0.3163  0.2726  0.2013
   90MOL   O27034268   2.559   7.769   1.653  0.5785  0.2783  0.3833
   90MOL   C27134269   2.445   0.045   1.637  0.0576  0.1645 -0.3465
   90MOL   C27234270   2.350   7.763   1.554 -0.3164  0.5335 -0.4903
   90MOL   C27334271   2.300   7.634   1.616 -0.7286 -0.4740  0.6119
   90MOL   C27434272   2.193   7.577   1.532  0.1561  0.1563 -0.6101
   90MOL   H27534273   2.828   7.707   1.619  2.8376  0.4902 -1.4966
   90MOL   H27634274   2.879   0.072   1.632  1.9006 -1.4001 -1.0413
   90MOL   H27734275   2.665   0.141   1.706  1.0721  0.2505  0.9402
   90MOL   H27834276   2.393   0.069   1.730  0.2864 -1.2335  0.1535
   90MOL   H27934277   2.487   0.131   1.583 -1.8389  1.5643  0.3606
   90MOL   H28034278   2.260   0.021   1.543 -0.9269 -0.2853  0.0107
   90MOL   H28134279   2.390   7.735   1.456 -2.6086  0.8368 -1.5362
   90MOL   H28234280   2.255   7.663   1.711 -1.4797 -1.0248  0.4378
   90MOL   H28334281   2.380   7.560   1.618 -0.2426  0.0050 -0.7673
   90MOL   H28434282   2.161   7.476   1.561 -1.2992  0.0084 -2.5833
   90MOL   H28534283   2.204   7.574   1.423  0.7059  2.2178 -0.6302
   90MOL   H28634284   2.107   7.642   1.549 -0.3349 -1.5160  3.9084
   90MOL   C28734285   2.716   7.774   1.830 -0.2249 -0.6992  0.2666
   90MOL   C28834286   2.640   0.038   1.946  0.2194  0.6337  0.7551
   90MOL   O28934287   2.665   0.179   1.937 -0.1271 -0.1759  0.5694
   90MOL   C29034288   2.549   0.257   1.967  0.6432 -0.2302 -0.2501
   90MOL   C29134289   2.588   0.398   1.974  0.2274  0.5096 -0.0303
   90MOL   C29234290   2.478   0.475   2.046  0.2919  0.0001 -0.0990
   90MOL   C29334291   2.514   0.615   2.061 -0.5272  0.0564 -0.9661
   90MOL   H29434292   2.820   0.003   1.843 -0.8372  1.6813 -0.2482
   90MOL   H29534293   2.715   7.665   1.838 -0.0766 -0.6556  0.8978
   90MOL   H29634294   2.532   0.026   1.935  0.4199  0.2509 -0.9087
   90MOL   H29734295   2.467   0.238   1.897 -1.9652  0.9346  2.3755
   90MOL   H29834296   2.505   0.216   2.058 -0.0016  1.4339  0.1950
   90MOL   H29934297   2.605   0.446   1.878  0.8069  0.4984  0.0695
   90MOL   H30034298   2.683   0.401   2.026  0.3271  2.0332 -0.2811
   90MOL   H30134299   2.468   0.420   2.140 -0.7980  0.6783  0.1909
   90MOL   H30234300   2.386   0.467   1.988 -0.0150  1.1257  0.2394
   90MOL   H30334301   2.448   0.658   2.136  0.3189 -1.9520  1.0047
   90MOL   H30434302   2.611   0.623   2.111 -0.9769  0.1843 -0.1103
   90MOL   H30534303   2.516   0.678   1.972  0.1679  2.6593  0.8070
   90MOL   C30634304   2.701   7.799   2.092 -0.2502 -0.2607 -0.0881
   90MOL   C30734305   2.658   7.652   2.122  1.0882 -0.2609 -0.3711
   90MOL   O30834306   2.524   7.667   2.172 -0.3594  0.1435 -0.4525
   90MOL   C30934307   2.424   7.561   2.178 -1.0682 -0.1303  1.0570
   90MOL   C31034308   2.357   7.513   2.045  0.7419  0.1163 -0.1508
   90MOL   C31134309   2.244   7.401   2.072 -0.8359  0.2487  0.2889
   90MOL   C31234310   2.211   7.313   1.951 -0.0652 -0.0262 -0.4282
   90MOL   H31334311   2.808   0.018   2.082 -0.9212  2.6011 -1.9851
   90MOL   H31434312   2.669   0.067   2.169 -0.9826 -0.1194 -0.5170
   90MOL   H31534313   2.656   7.597   2.028  0.3352  0.9023 -1.0408
   90MOL   H31634314   2.348   7.587   2.251 -0.4509  1.0866  1.2813
   90MOL   H31734315   2.479   7.473   2.210  3.4450  2.6080  1.2646
   90MOL   H31834316   2.430   7.475   1.972  0.9301  1.0551 -0.4510
   90MOL   H31934317   2.299   7.591   1.996 -1.0721 -2.7953 -2.9257
   90MOL   H32034318   2.273   7.338   2.157  2.6600  1.5744  0.1515
   90MOL   H32134319   2.157   7.450   2.116 -1.1798 -1.2672  1.3522
   90MOL   H32234320   2.233   7.355   1.853  0.6990 -1.1987 -0.7659
   90MOL   H32334321   2.102   7.301   1.951  0.0842 -1.6959  1.4901
   90MOL   H32434322   2.260   7.217   1.961  2.5993  1.3773  0.4146
   90MOL   C32534323   2.740   7.576   2.227 -0.6138  0.4737 -0.2346
   90MOL   C32634324   2.888   7.549   2.185 -0.0035  0.1306  0.6883
   90MOL   O32734325   2.950   7.479   2.287  0.0485 -0.1238  0.4819
   90MOL   C32834326   2.978   7.553   2.405 -0.0194 -0.5061  0.0542
   90MOL   C32934327   2.933   7.473   2.532  0.0533  0.5206  0.1220
   90MOL   C33034328   2.979   7.531   2.668  0.1950 -0.4123  0.4545
   90MOL   C33134329   2.938   7.445   2.784 -0.3139 -0.2742 -0.0889
   90MOL   H33234330   2.688   7.483   2.247 -0.1334  0.3211  0.3245
   90MOL   H33334331   2.732   7.635   2.319  0.2087  0.5165 -0.1848
   90MOL   H33434332   2.937   7.646   2.177  1.2683 -0.6222 -1.0909
   90MOL   H33534333   2.929   7.650   2.398  1.1676  0.1947  1.1419
   90MOL   H33634334   3.086   7.567   2.401 -0.0748  0.3779  1.4812
   90MOL   H33734335   2.826   7.466   2.517  0.5798 -2.0930 -2.7962
   90MOL   H33834336   2.976   7.373   2.532 -2.3220 -0.5099 -0.5933
   90MOL   H33934337   2.939   7.632   2.681  1.3584  0.1577 -0.2842
   90MOL   H34034338   3.086   7.548   2.657  0.0476 -0.5554 -1.4327
   90MOL   H34134339   2.981   7.345   2.775  0.2461 -0.0082 -0.3804
   90MOL   H34234340   2.829   7.435   2.783 -0.2977 -1.6295  3.1241
   90MOL   H34334341   2.967   7.492   2.878 -3.2111 -2.1476  1.8564
   90MOL   C34434342   2.900   7.466   2.050  0.1024  0.5180  0.1793
   90MOL   C34534343   3.039   7.483   1.984  0.3618  0.6325 -0.8580
   90MOL   O34634344   3.051   7.623   1.958  0.0908  0.4648 -0.3285
   90MOL   C34734345   3.183   7.664   1.914  0.4704  0.7187  0.2643
   90MOL   C34834346   3.197   0.004   1.844 -0.1594 -0.3562  0.0564
   90MOL   C34934347   3.198   0.116   1.951  0.9224 -0.6633  0.0480
   90MOL   C35034348   3.064   0.135   2.029  0.1233 -0.5438 -0.5520
   90MOL   H35134349   2.882   7.361   2.073 -1.8825  1.1201  1.4616
   90MOL   H35234350   2.826   7.491   1.973 -0.1702  0.4050  0.4046
   90MOL   H35334351   3.106   7.452   2.064 -1.0815  0.0594  0.1412
   90MOL   H35434352   3.219   7.587   1.847 -0.0948 -1.1742  2.0760
   90MOL   H35534353   3.254   7.651   1.996  1.7203 -1.4680 -1.1330
   90MOL   H35634354   3.112   0.022   1.778 -0.9458 -0.3274  1.0657
   90MOL   H35734355   3.287   0.006   1.783  0.6232  3.5126  1.2249
   90MOL   H35834356   3.280   0.094   2.021 -1.2955  1.5678  3.5384
   90MOL   H35934357   3.235   0.215   1.923  2.1849 -0.7503  1.2873
   90MOL   H36034358   2.980   0.159   1.964  0.1888 -0.3090 -0.5478
   90MOL   H36134359   3.072   0.228   2.086 -0.7202  0.5032 -2.1091
   90MOL   H36234360   3.045   0.043   2.085 -2.8893  0.7412  0.6693
   90MOL   C36334361   3.053   7.389   1.862  0.3231  0.7408 -0.2603
   90MOL   C36434362   3.183   7.301   1.852  0.5390 -0.8188 -0.4519
   90MOL   O36534363   3.170   7.228   1.732 -0.4010 -0.2519  0.7590
   90MOL   C36634364   3.283   7.156   1.694 -0.4868 -0.2774  0.4735
   90MOL   C36734365   3.257   7.061   1.577 -0.4197 -0.1211  0.4026
   90MOL   C36834366   3.379   6.993   1.524  0.1502  0.1445 -0.2000
   90MOL   C36934367   3.363   6.932   1.380 -0.0994 -0.8646  0.0676
   90MOL   H37034368   3.046   7.444   1.768  2.0582  1.0597 -0.2095
   90MOL   H37134369   2.969   7.319   1.866  0.0539  0.9892 -1.2755
   90MOL   H37234370   3.195   7.239   1.941 -1.1760  0.3788  0.6400
   90MOL   H37334371   3.323   7.093   1.774  1.3647  0.4559  0.1310
   90MOL   H37434372   3.359   7.225   1.658  2.2893 -2.4734  1.9379
   90MOL   H37534373   3.216   7.113   1.490 -1.1482  0.1905  0.9269
   90MOL   H37634374   3.183   6.986   1.606 -2.6399  1.7794 -0.1459
   90MOL   H37734375   3.410   6.925   1.603 -0.9886  0.9637  0.9717
   90MOL   H37834376   3.450   7.076   1.514 -1.3552  1.2609 -1.9909
   90MOL   H37934377   3.442   6.860   1.363  0.2852  0.3301 -3.4495
   90MOL   H38034378   3.266   6.887   1.361 -0.1201 -0.6230 -0.3954
   90MOL   H38134379   3.364   7.017   1.313  0.0667 -1.3780 -0.5865
   90MOL   H38234380   3.275   7.359   1.845  0.8484 -1.2100  0.2631
   91MOL     C134381   0.077   7.256   6.911  0.4716 -0.0530 -0.1258
   91MOL     C234382   7.759   7.354   6.905 -0.5746 -0.7895  0.1120
   91MOL     O334383   7.729   7.404   7.035  0.2564  0.0985 -0.1856
   91MOL     C434384   7.639   7.335   7.112  0.3299  0.0151  0.3694
   91MOL     C534385   7.536   7.431   7.165 -0.2734  0.2488  0.2072
   91MOL     C634386   7.438   7.377   7.279 -0.0677 -0.4008  0.6493
   91MOL     C734387   7.338   7.477   7.331 -0.7225  0.3475  0.2135
   91MOL     H834388   0.170   7.311   6.919 -0.3765  1.4267 -0.1917
   91MOL     H934389   0.077   7.191   6.999  0.5395  2.7191  2.0222
   91MOL    H1034390   7.677   7.299   6.859  1.0203 -2.7740 -0.4380
   91MOL    H1134391   7.584   7.257   7.059 -0.0434 -0.5144  1.5319
   91MOL    H1234392   7.688   7.297   7.201  1.4769  2.0867  0.6335
   91MOL    H1334393   7.463   7.456   7.087 -1.3817 -0.9196  0.8615
   91MOL    H1434394   7.595   7.516   7.198  1.1731 -0.6467 -0.0276
   91MOL    H1534395   7.494   7.330   7.359 -0.6331 -0.1928  1.1686
   91MOL    H1634396   7.389   7.284   7.249  0.7501  0.3898 -3.4851
   91MOL    H1734397   7.261   7.491   7.255 -0.1944  3.0843  0.1288
   91MOL    H1834398   7.393   7.571   7.337 -0.0964  0.2116 -2.4010
   91MOL    H1934399   7.294   7.448   7.426 -0.9441 -1.4211 -0.3928
   91MOL    H2034400   0.067   7.185   6.829  1.0818 -1.3312  0.8835
   91MOL    C2134401   7.778   7.475   6.809 -0.8743  0.6721  0.2137
   91MOL    C2234402   7.658   7.567   6.796  0.2948  0.4925  0.5048
   91MOL    O2334403   7.693   7.666   6.704  0.1628 -0.0935 -0.2133
   91MOL    C2434404   7.750   7.784   6.762  0.5680  0.5807  0.3511
   91MOL    C2534405   7.762   0.084   6.651 -0.2225  0.2387 -0.2251
   91MOL    C2634406   7.628   0.129   6.589  0.7136 -0.2422  0.0859
   91MOL    C2734407   7.664   0.254   6.493 -0.0124 -0.3160  0.3340
   91MOL    H2834408   0.001   7.436   6.710 -0.3812 -0.1016  0.6354
   91MOL    H2934409   0.070   7.518   6.844 -0.8534  0.7999 -0.0009
   91MOL    H3034410   7.631   7.608   6.893 -0.8162  1.0721 -0.0352
   91MOL    H3134411   0.046   7.766   6.807  1.8783  1.0759 -2.2174
   91MOL    H3234412   7.685   0.019   6.842 -1.1099 -0.4066 -0.5424
   91MOL    H3334413   0.011   0.171   6.691  0.0895  0.5884 -1.3867
   91MOL    H3434414   0.017   0.044   6.567 -0.4513  0.2861 -0.4009
   91MOL    H3534415   7.576   0.048   6.538  0.9631 -0.8547  0.7948
   91MOL    H3634416   7.557   0.164   6.663 -2.3449 -1.8619 -1.9726
   91MOL    H3734417   7.770   0.255   6.466 -0.2821 -1.1406 -0.7914
   91MOL    H3834418   7.614   0.258   6.396  2.2435  0.2058 -0.8566
   91MOL    H3934419   7.639   0.345   6.547 -1.7469 -0.4413 -0.2323
   91MOL    C4034420   7.531   7.501   6.747  0.0495  0.6497 -0.3555
   91MOL    C4134421   7.424   7.599   6.725  0.3837 -0.2124  0.6623
   91MOL    O4234422   7.394   7.646   6.857  0.4453 -0.0698 -0.1423
   91MOL    C4334423   7.360   7.786   6.860  0.2675 -0.2946 -0.3388
   91MOL    C4434424   7.386   0.048   6.998 -0.3247 -0.0473  0.5149
   91MOL    C4534425   7.388   0.203   6.995  0.7524 -0.3152 -0.6101
   91MOL    C4634426   7.404   0.266   7.135  0.4947  0.6051  0.5700
   91MOL    H4734427   7.498   7.435   6.827  0.0143 -0.6595 -1.4282
   91MOL    H4834428   7.542   7.430   6.665 -0.9361  0.6980 -0.5371
   91MOL    H4934429   7.469   7.677   6.664 -1.9341 -0.6671 -1.7172
   91MOL    H5034430   7.253   0.001   6.845 -0.1904 -3.5875 -1.1833
   91MOL    H5134431   7.408   0.046   6.784  0.3593 -0.8464 -0.7300
   91MOL    H5234432   7.489   0.018   7.018  0.0995 -1.3475 -3.2577
   91MOL    H5334433   7.326   0.014   7.083 -1.4970  0.6363 -0.0248
   91MOL    H5434434   7.291   0.230   6.954 -0.5320 -0.8919  1.9456
   91MOL    H5534435   7.466   0.248   6.933  0.0765 -1.1349 -2.0708
   91MOL    H5634436   7.504   0.254   7.175  0.7225  2.9550  0.7548
   91MOL    H5734437   7.380   0.373   7.132 -0.0651  0.4817  0.4824
   91MOL    H5834438   7.329   0.220   7.200  0.6986 -0.0037  0.3713
   91MOL    C5934439   7.301   7.538   6.662  1.2943  0.6237  0.8504
   91MOL    C6034440   7.289   7.573   6.510 -0.0721 -0.2775  0.2675
   91MOL    O6134441   7.402   7.517   6.444  0.2102 -0.6703 -0.8454
   91MOL    C6234442   7.445   7.586   6.324  0.0013 -0.3677 -0.1630
   91MOL    C6334443   7.550   7.506   6.243  0.0187  0.1918  0.2714
   91MOL    C6434444   7.649   7.593   6.170 -0.3355  0.4594 -0.2742
   91MOL    C6534445   7.752   7.503   6.105  0.3473 -0.5790 -0.2923
   91MOL    H6634446   7.307   7.429   6.672 -1.1164  0.0559 -3.0691
   91MOL    H6734447   7.209   7.571   6.711  0.4215 -1.2091  0.4869
   91MOL    H6834448   7.288   7.682   6.508  2.5022 -0.2060  0.5051
   91MOL    H6934449   7.503   7.676   6.343  0.8519 -1.1452  0.9576
   91MOL    H7034450   7.363   7.605   6.254  0.7602  2.1909 -0.3992
   91MOL    H7134451   7.604   7.440   6.311  2.1516  0.1566 -1.3991
   91MOL    H7234452   7.511   7.427   6.178  1.4389 -0.2060 -0.1238
   91MOL    H7334453   7.601   7.650   6.090 -1.8532  0.5498  0.6917
   91MOL    H7434454   7.697   7.659   6.241  0.0092  0.5313 -0.5716
   91MOL    H7534455   7.716   7.435   6.028  0.6327 -0.4123 -0.5730
   91MOL    H7634456   0.035   7.560   6.066 -1.6857  1.6958 -1.4792
   91MOL    H7734457   0.001   7.446   6.183  0.4961  2.7615  2.1286
   91MOL    C7834458   7.170   7.509   6.450 -1.1616 -0.3078  0.2817
   91MOL    C7934459   7.035   7.592   6.470  0.4587  0.4109 -0.3387
   91MOL    O8034460   6.948   7.501   6.541 -0.1744  0.4554 -0.0999
   91MOL    C8134461   6.876   7.566   6.643  0.5494  0.6715  0.3556
   91MOL    C8234462   6.784   7.463   6.706  0.8340 -0.6943  0.8131
   91MOL    C8334463   6.684   7.521   6.803  0.2488 -0.4762 -0.3705
   91MOL    C8434464   6.585   7.421   6.870  0.6544  0.0683 -0.0097
   91MOL    H8534465   7.147   7.403   6.468  0.5991 -1.2693 -2.8391
   91MOL    H8634466   7.191   7.495   6.344  0.7850 -0.6984  0.6991
   91MOL    H8734467   7.065   7.668   6.542  1.2764  0.0196 -0.2617
   91MOL    H8834468   6.815   7.649   6.608 -1.2436 -1.1909 -1.0437
   91MOL    H8934469   6.945   7.607   6.717  2.5877  0.5362 -1.4385
   91MOL    H9034470   6.731   7.395   6.640  0.0001 -0.5317  1.3057
   91MOL    H9134471   6.846   7.390   6.759  3.5081  0.5402 -0.4991
   91MOL    H9234472   6.621   7.594   6.752 -0.0963  0.3805  1.2378
   91MOL    H9334473   6.742   7.560   6.887  0.3135 -3.2243  0.9161
   91MOL    H9434474   6.626   7.326   6.907 -2.4477 -1.5365 -0.5619
   91MOL    H9534475   6.534   7.460   6.958 -1.7838 -3.2659  0.1520
   91MOL    H9634476   6.502   7.403   6.801  1.9237  2.2654 -2.1824
   91MOL    C9734477   6.979   7.637   6.338  0.0937 -0.3829  0.7091
   91MOL    C9834478   7.059   7.743   6.254  0.2477 -0.3051 -0.2014
   91MOL    O9934479   6.966   0.001   6.158 -0.2814  0.2025 -0.6717
   91MOL   C10034480   6.930   7.732   6.039  0.4916 -0.0539 -0.3583
   91MOL   C10134481   6.842   0.030   5.955 -0.9089  0.1283  0.2975
   91MOL   C10234482   6.927   0.144   5.898 -1.2141 -0.0004  0.0153
   91MOL   C10334483   6.845   0.229   5.801 -0.8286 -0.5396 -0.6102
   91MOL   H10434484   6.880   7.682   6.348 -0.9531 -2.2120 -1.1964
   91MOL   H10534485   6.954   7.551   6.277 -1.4363  1.1444 -0.8752
   91MOL   H10634486   7.117   7.685   6.182  1.6322  1.2342 -0.3331
   91MOL   H10734487   6.881   7.637   6.060 -0.1542  0.6784  1.4878
   91MOL   H10834488   7.014   7.694   5.981 -1.9519 -3.7016 -1.6810
   91MOL   H10934489   6.765   0.082   6.011  0.8626  1.8546  1.1664
   91MOL   H11034490   6.801   7.776   5.870  2.2846 -0.8325 -0.6690
   91MOL   H11134491   7.022   0.106   5.860 -0.1878  0.0816  2.4354
   91MOL   H11234492   6.955   0.206   5.983 -0.3519  0.6912 -0.7557
   91MOL   H11334493   6.741   0.252   5.827 -1.0004 -2.3321  0.3822
   91MOL   H11434494   6.905   0.319   5.787  0.8617 -1.6511 -0.5636
   91MOL   H11534495   6.835   0.194   5.698 -1.7949 -1.5792 -0.1695
   91MOL   C11634496   7.117   0.061   6.323  0.3888 -0.0473 -0.4128
   91MOL   C11734497   7.198   0.162   6.237 -0.1944 -0.0557  0.5359
   91MOL   O11834498   7.249   0.272   6.312 -0.1688 -0.4551 -0.0080
   91MOL   C11934499   7.155   0.381   6.336 -0.1035 -0.0150  0.5175
   91MOL   C12034500   7.202   0.481   6.449  0.0459  0.4638 -0.1452
   91MOL   C12134501   7.193   0.427   6.593 -0.1198  0.7353  0.3970
   91MOL   C12234502   7.247   0.282   6.610 -0.6058  0.4216  0.1800
   91MOL   H12334503   7.035   0.125   6.355  0.1058  0.9524 -2.9645
   91MOL   H12434504   7.168   0.044   6.417 -0.5921  0.6447  0.2604
   91MOL   H12534505   7.130   0.197   6.159  1.6741  2.1101 -0.1801
   91MOL   H12634506   7.061   0.333   6.361  0.3765 -2.7015 -2.4191
   91MOL   H12734507   7.138   0.443   6.248  2.1992  1.3108  0.9624
   91MOL   H12834508   7.166   0.584   6.439 -2.3040 -0.0669  2.4024
   91MOL   H12934509   7.309   0.483   6.429  0.0913  1.6143  0.1676
   91MOL   H13034510   7.243   0.500   6.656  0.0275  1.0514 -0.0812
   91MOL   H13134511   7.094   0.428   6.639 -0.5734  0.0357 -0.5401
   91MOL   H13234512   7.173   0.217   6.563  1.2406 -1.1857 -0.5791
   91MOL   H13334513   7.252   0.254   6.715  1.9332 -1.0887 -0.2924
   91MOL   H13434514   7.344   0.266   6.563 -1.5321  1.4828 -2.1627
   91MOL   C13534515   7.323   0.098   6.171 -0.2309 -0.5549  0.3194
   91MOL   C13634516   7.397   0.184   6.063 -0.3513  0.7963  0.0181
   91MOL   O13734517   7.530   0.121   6.029  0.5899  0.1223  0.3632
   91MOL   C13834518   7.633   0.156   6.118  0.3433  0.9587 -0.3300
   91MOL   C13934519   7.764   0.129   6.045  0.0964  0.9109 -0.1429
   91MOL   C14034520   7.779   0.214   5.923 -0.4429  0.2832  1.0252
   91MOL   C14134521   0.116   0.207   5.855  0.2226 -0.4372 -0.1298
   91MOL   H14234522   7.297   7.798   6.142 -0.7473 -0.1201 -0.7377
   91MOL   H14334523   7.397   0.101   6.252 -1.8187  3.6093  1.7706
   91MOL   H14434524   7.420   0.286   6.093  1.3685  0.2479  0.6280
   91MOL   H14534525   7.621   0.104   6.213  0.3446  1.9528  0.2260
   91MOL   H14634526   7.621   0.261   6.144 -0.7623  0.6900  0.2860
   91MOL   H14734527   7.764   0.022   6.024  0.4943  1.3235 -2.4295
   91MOL   H14834528   0.038   0.158   6.118  0.1480  0.3537  0.0276
   91MOL   H14934529   7.696   0.195   5.856  0.2722 -2.6210  0.8832
   91MOL   H15034530   7.763   0.313   5.965 -0.6907  0.6707  0.0185
   91MOL   H15134531   0.184   0.227   5.937 -1.1597 -3.5030  1.8804
   91MOL   H15234532   0.128   0.102   5.826  0.1676 -1.1848  2.4477
   91MOL   H15334533   0.139   0.276   5.774 -2.1648 -0.5092 -0.9137
   91MOL   C15434534   7.316   0.184   5.929  0.2780 -0.6415  0.1225
   91MOL   C15534535   7.364   0.283   5.816 -0.4797 -0.0197 -0.2694
   91MOL   O15634536   7.357   0.418   5.868  0.4002  0.3263 -0.1223
   91MOL   C15734537   7.485   0.478   5.870 -0.2363  0.2669  0.4808
   91MOL   C15834538   7.470   0.616   5.932  0.4750 -0.9880 -1.0461
   91MOL   C15934539   7.383   0.725   5.860  0.3571  0.0412  0.2578
   91MOL   C16034540   7.398   0.863   5.916 -0.6201 -0.7278 -0.6391
   91MOL   H16134541   7.212   0.205   5.951  0.1468  1.4604 -2.2342
   91MOL   H16234542   7.313   0.080   5.896 -2.1606 -0.1544 -1.3723
   91MOL   H16334543   7.465   0.253   5.786 -0.6829 -1.7457  0.6967
   91MOL   H16434544   7.555   0.419   5.929  0.7999  0.6561 -0.3330
   91MOL   H16534545   7.533   0.493   5.774 -0.3757 -0.9706  0.2130
   91MOL   H16634546   7.566   0.656   5.965 -0.1807 -0.5218  0.3592
   91MOL   H16734547   7.426   0.599   6.030  0.1703  1.1080 -0.7853
   91MOL   H16834548   7.407   0.718   5.754 -1.2250  0.5415 -0.1493
   91MOL   H16934549   7.277   0.700   5.867 -0.0122  1.8211  1.4460
   91MOL   H17034550   7.504   0.891   5.921 -0.7605  0.0915 -2.0668
   91MOL   H17134551   7.351   0.927   5.842  1.0628  2.2324  0.7567
   91MOL   H17234552   7.347   0.882   6.011 -0.9876  0.6327 -1.1035
   91MOL   C17334553   7.267   0.278   5.699 -0.6217 -0.4674  0.7504
   91MOL   C17434554   7.303   0.350   5.572 -0.4693 -0.2566  0.0118
   91MOL   O17534555   7.410   0.273   5.506  0.0552  0.2807  0.0426
   91MOL   C17634556   7.540   0.324   5.521 -0.2447 -0.1593 -0.4425
   91MOL   C17734557   7.627   0.243   5.426 -0.1096 -0.2666 -0.9304
   91MOL   C17834558   7.774   0.288   5.435  0.3809 -0.3873 -0.4139
   91MOL   C17934559   0.066   0.171   5.407 -0.7630 -0.0331 -0.3297
   91MOL   H18034560   7.172   0.325   5.724 -0.2420  0.7508 -0.0850
   91MOL   H18134561   7.249   0.172   5.681  1.7447 -1.0358  1.4956
   91MOL   H18234562   7.329   0.452   5.601 -0.7952  0.0188 -0.6706
   91MOL   H18334563   7.578   0.304   5.621  1.0641 -1.6082 -1.2032
   91MOL   H18434564   7.534   0.428   5.490  0.6769 -0.1519 -0.6109
   91MOL   H18534565   7.589   0.253   5.324  1.8569  1.4625 -1.5224
   91MOL   H18634566   7.614   0.139   5.455  0.2264  0.3231  1.4720
   91MOL   H18734567   7.781   0.371   5.365 -1.5747  1.7548  1.8314
   91MOL   H18834568   0.004   0.331   5.530  1.1565 -1.5711 -0.1187
   91MOL   H18934569   0.073   0.090   5.480  0.0340  2.2193  2.1542
   91MOL   H19034570   0.035   0.116   5.318  0.1839 -4.0435  1.6950
   91MOL   H19134571   0.162   0.219   5.390 -0.6688 -0.0665  0.1083
   91MOL   C19234572   7.171   0.364   5.482 -0.3721  0.4077 -0.9067
   91MOL   C19334573   7.209   0.415   5.341 -0.2768 -0.3432  0.7814
   91MOL   O19434574   7.099   0.403   5.253 -0.5411  0.0332 -0.3832
   91MOL   C19534575   7.075   0.268   5.206 -0.6135  0.2206  0.0102
   91MOL   C19634576   7.017   0.276   5.061 -0.5366  0.0370 -0.8457
   91MOL   C19734577   7.001   0.149   4.978 -0.6235  0.2955 -0.3094
   91MOL   C19834578   6.920   0.049   5.052  0.2803  0.2666 -0.6390
   91MOL   H19934579   7.091   0.427   5.520 -0.4773 -0.7588  0.8285
   91MOL   H20034580   7.125   0.267   5.472  0.9063 -0.4821  1.3966
   91MOL   H20134581   7.290   0.353   5.302 -1.8364 -1.0853 -1.4305
   91MOL   H20234582   7.017   0.222   5.286  0.0943 -0.3003  0.2274
   91MOL   H20334583   7.168   0.212   5.211  0.2309  1.6702  0.6405
   91MOL   H20434584   6.916   0.315   5.071 -0.6583 -1.0932  3.2296
   91MOL   H20534585   7.077   0.349   5.005  2.6259  0.3734  2.7710
   91MOL   H20634586   7.089   0.101   4.936 -0.2212  0.3729  0.4281
   91MOL   H20734587   6.955   0.173   4.883  0.5963 -0.4421 -1.0990
   91MOL   H20834588   6.813   0.062   5.041 -0.2046 -0.3216  2.8042
   91MOL   H20934589   6.958   7.750   5.032  0.2064 -0.1352  1.2038
   91MOL   H21034590   6.943   0.063   5.158 -0.1200 -1.2122 -0.3392
   91MOL   C21134591   7.230   0.570   5.345 -0.4986  0.2273 -0.0856
   91MOL   C21234592   7.316   0.623   5.225  0.5571 -0.0973 -0.3995
   91MOL   O21334593   7.322   0.763   5.259 -0.0485 -0.5420 -0.2313
   91MOL   C21434594   7.251   0.862   5.185  0.1538  0.0426  1.1937
   91MOL   C21534595   7.248   0.989   5.268 -0.1404  0.7580 -0.4476
   91MOL   C21634596   7.155   0.962   5.382  0.4622 -0.4100  0.0645
   91MOL   C21734597   7.138   1.090   5.469  0.5440 -0.3338  0.6615
   91MOL   H21834598   7.284   0.609   5.431  0.6614 -0.9568 -0.2673
   91MOL   H21934599   7.131   0.615   5.354 -1.5196 -1.9673 -0.1258
   91MOL   H22034600   7.260   0.609   5.133  1.2581 -3.9869 -0.3218
   91MOL   H22134601   7.319   0.885   5.103 -0.8285 -2.8770 -0.5364
   91MOL   H22234602   7.156   0.833   5.141  0.9334  0.6852 -0.9374
   91MOL   H22334603   7.348   1.021   5.298 -0.4163 -0.5569  1.9668
   91MOL   H22434604   7.217   1.076   5.211 -1.1488 -1.3845 -3.2523
   91MOL   H22534605   7.186   0.879   5.445  0.2933 -2.1204 -2.0781
   91MOL   H22634606   7.060   0.930   5.340  1.2131 -1.7777 -0.6304
   91MOL   H22734607   7.105   1.170   5.403 -1.6645 -2.1939 -0.6039
   91MOL   H22834608   7.234   1.121   5.510 -0.2460  3.0754  0.1011
   91MOL   H22934609   7.070   1.084   5.554 -0.2390 -0.0679  0.0642
   91MOL   C23034610   7.459   0.575   5.217  0.2552 -0.1221 -0.1591
   91MOL   C23134611   7.505   0.514   5.087  1.2551  0.2295  0.4476
   91MOL   O23234612   7.644   0.501   5.081  0.9854  0.5970  0.0044
   91MOL   C23334613   7.721   0.606   5.031 -0.2107 -0.2306 -0.4706
   91MOL   C23434614   0.058   0.601   5.103  0.1452 -0.8959  0.0280
   91MOL   C23534615   0.061   0.649   5.250  0.0481 -0.2703 -0.2852
   91MOL   C23634616   0.210   0.642   5.300  0.4295 -0.0766 -0.4145
   91MOL   H23734617   7.475   0.498   5.292  2.0046 -0.6485 -1.0275
   91MOL   H23834618   7.517   0.665   5.238 -0.1911  0.5442 -1.7396
   91MOL   H23934619   7.468   0.587   5.015 -1.2028 -1.9963 -0.6390
   91MOL   H24034620   7.732   0.595   4.923  0.6488 -0.3038 -0.3820
   91MOL   H24134621   7.680   0.700   5.069 -1.1025  0.3033 -2.6627
   91MOL   H24234622   0.087   0.496   5.111  2.0826 -0.5984 -2.5571
   91MOL   H24334623   0.124   0.665   5.044  2.4623 -2.9661  0.2806
   91MOL   H24434624   0.001   0.579   5.308  0.4664 -1.1004 -0.8365
   91MOL   H24534625   0.032   0.753   5.262  0.6222 -0.1749  0.2827
   91MOL   H24634626   0.224   0.681   5.400  0.5585 -0.7413 -0.1725
   91MOL   H24734627   0.257   0.695   5.217  1.0325  0.8303  0.4979
   91MOL   H24834628   0.248   0.540   5.297  1.0954  0.1954 -1.2569
   91MOL   C24934629   7.438   0.381   5.063  0.4290 -0.0021  0.3937
   91MOL   C25034630   7.455   0.330   4.919  0.3179  0.6343  0.2604
   91MOL   O25134631   7.355   0.412   4.857  0.0601  0.5763  0.0267
   91MOL   C25234632   7.361   0.444   4.724 -0.3102  0.1779 -0.0400
   91MOL   C25334633   7.239   0.528   4.694  0.0187  0.7525 -0.7248
   91MOL   C25434634   7.248   0.647   4.795 -0.3774 -0.4506  0.5884
   91MOL   C25534635   7.171   0.773   4.742  0.7277  0.0334 -0.1258
   91MOL   H25634636   7.330   0.387   5.075  0.5955  1.2546  1.3062
   91MOL   H25734637   7.489   0.311   5.129 -1.8546 -1.5276  0.6336
   91MOL   H25834638   7.550   0.348   4.868  0.0444  0.2485 -0.3837
   91MOL   H25934639   7.358   0.353   4.664 -1.9328  0.7606 -0.8682
   91MOL   H26034640   7.454   0.496   4.699  1.1524 -2.2933 -0.0090
   91MOL   H26134641   7.249   0.556   4.589  1.7408  0.4636 -0.6565
   91MOL   H26234642   7.141   0.481   4.695  0.3845  0.0031  0.8670
   91MOL   H26334643   7.216   0.614   4.893 -1.0548  2.3159  1.3476
   91MOL   H26434644   7.352   0.679   4.805 -0.7663  0.3153  2.2814
   91MOL   H26534645   7.228   0.815   4.659 -2.5887  1.4869 -1.7749
   91MOL   H26634646   7.153   0.846   4.820  3.6806 -0.5012  1.1294
   91MOL   H26734647   7.071   0.753   4.702  0.3231  0.2117  0.7738
   91MOL   C26834648   7.405   0.179   4.906 -0.8815 -0.4332 -0.4641
   91MOL   C26934649   7.526   0.088   4.950  0.4761  0.3741 -0.7650
   91MOL   O27034650   7.490   7.775   5.017 -0.1261 -0.3332  0.1002
   91MOL   C27134651   7.421   7.785   5.143  0.2298 -0.3243 -0.7570
   91MOL   C27234652   7.401   7.639   5.202 -0.3031  0.0012 -0.7921
   91MOL   C27334653   7.525   7.555   5.221  0.3169 -0.2538  0.3803
   91MOL   C27434654   7.497   7.418   5.280 -0.3452  0.3298 -0.7585
   91MOL   H27534655   7.312   0.158   4.959 -0.8470  0.3692 -0.0726
   91MOL   H27634656   7.378   0.161   4.802  2.2498 -1.0490 -1.2232
   91MOL   H27734657   7.597   0.138   5.016 -0.0270 -0.6202  0.5716
   91MOL   H27834658   7.487   0.042   5.207 -0.7715 -0.4633  0.4246
   91MOL   H27934659   7.329   0.041   5.138 -0.5658 -1.5127 -0.2798
   91MOL   H28034660   7.349   7.644   5.298  1.0172 -0.3584 -0.0361
   91MOL   H28134661   7.326   7.595   5.138 -0.5363  1.0517 -1.2445
   91MOL   H28234662   7.582   7.619   5.288 -0.3545  2.2762 -1.3789
   91MOL   H28334663   7.563   7.541   5.119  1.4044 -1.0873  0.8964
   91MOL   H28434664   7.440   7.360   5.207 -3.1353  3.6759 -1.3586
   91MOL   H28534665   7.446   7.425   5.376 -1.0546  2.1126 -1.2530
   91MOL   H28634666   7.593   7.366   5.285  0.4726  1.8822  0.0191
   91MOL   C28734667   7.615   0.056   4.833 -0.9742  0.1543  0.2630
   91MOL   C28834668   7.755   7.793   4.857  0.3523  0.0175  0.5056
   91MOL   O28934669   0.057   0.085   4.892 -0.1728 -0.2847  0.3834
   91MOL   C29034670   0.104   0.083   5.027 -0.9082  0.7650 -1.0030
   91MOL   C29134671   0.208   7.777   5.028  0.0355  0.3115  0.1344
   91MOL   C29234672   0.295   7.783   5.155 -0.3786 -0.1543  0.1788
   91MOL   C29334673   0.436   7.740   5.135  0.4225 -0.1840  0.3080
   91MOL   H29434674   7.644   0.146   4.779  0.9469 -0.8111 -0.3823
   91MOL   H29534675   7.563   7.787   4.768  1.5291  0.2069 -1.9281
   91MOL   H29634676   7.741   7.717   4.934 -0.2758 -0.7190 -0.3271
   91MOL   H29734677   0.148   0.175   5.064 -2.5536  1.3565 -0.4811
   91MOL   H29834678   0.022   0.047   5.089  0.6246 -0.0341  0.5970
   91MOL   H29934679   0.273   7.787   4.941 -3.4369 -0.0364 -2.6509
   91MOL   H30034680   0.165   7.677   5.022 -0.9262  0.6692  0.9037
   91MOL   H30134681   0.257   7.713   5.229  0.8866 -2.3123 -1.1652
   91MOL   H30234682   0.294   0.085   5.189  1.4874 -0.0969  0.1135
   91MOL   H30334683   0.493   7.753   5.227 -0.2650 -1.8937  1.0072
   91MOL   H30434684   0.462   7.639   5.100 -0.3666  0.8883 -3.6558
   91MOL   H30534685   0.491   0.005   5.068  1.8519 -1.6591 -0.0617
   91MOL   C30634686   0.009   7.718   4.727  0.0484  0.3523 -0.1613
   91MOL   C30734687   7.746   7.580   4.686 -0.7815  0.1133 -0.6372
   91MOL   O30834688   7.799   7.471   4.764 -0.1796  0.1352 -0.6793
   91MOL   C30934689   7.692   7.392   4.824 -0.9805 -0.6609 -0.5103
   91MOL   C31034690   7.751   7.293   4.922  0.1444 -0.1509  0.0383
   91MOL   C31134691   7.650   7.203   4.985  0.0866 -0.9016 -0.4721
   91MOL   C31234692   7.701   7.133   5.118 -0.2325  0.5858  0.7288
   91MOL   H31334693   7.792   7.788   4.645 -0.9547  0.2302 -0.0410
   91MOL   H31434694   0.116   7.698   4.734 -0.1118 -0.2513  0.5406
   91MOL   H31534695   7.638   7.585   4.698 -0.7738  1.3265 -0.9837
   91MOL   H31634696   7.627   7.350   4.747  1.3026 -0.4407 -2.6147
   91MOL   H31734697   7.621   7.455   4.878 -0.3033  0.6783 -1.1377
   91MOL   H31834698   7.801   7.351   5.001 -1.3419 -1.4365  1.9500
   91MOL   H31934699   0.029   7.227   4.888  0.7239  1.2989 -1.4800
   91MOL   H32034700   7.550   7.245   4.996  0.5842  0.3237 -0.5833
   91MOL   H32134701   7.609   7.128   4.918 -1.8275  0.3753 -0.7864
   91MOL   H32234702   0.007   7.112   5.117 -0.4416 -0.5057 -0.5207
   91MOL   H32334703   7.648   7.040   5.138 -2.7554  0.7549 -4.2916
   91MOL   H32434704   7.692   7.198   5.205  1.7240 -0.3128  1.6400
   91MOL   C32534705   7.771   7.529   4.545  0.3721 -0.6371 -0.5455
   91MOL   C32634706   7.674   7.594   4.444  0.1846  0.4718  0.1419
   91MOL   O32734707   7.700   7.736   4.453  0.7028 -0.9572 -0.4181
   91MOL   C32834708   7.579   0.008   4.453 -0.1703 -0.3307 -0.9558
   91MOL   C32934709   7.618   0.160   4.463 -0.3166  0.8795 -0.5865
   91MOL   C33034710   7.668   0.215   4.331  0.0944 -0.6721 -0.0726
   91MOL   C33134711   7.663   0.372   4.319 -0.1662 -0.4043  0.8147
   91MOL   H33234712   7.739   7.425   4.550  0.9916 -0.8337 -0.6318
   91MOL   H33334713   0.075   7.525   4.515  0.5943 -0.4566  0.2026
   91MOL   H33434714   7.570   7.567   4.465  0.3588 -0.8647 -0.7370
   91MOL   H33534715   7.518   7.779   4.537  1.2780 -0.7234 -0.0366
   91MOL   H33634716   7.509   7.800   4.370 -0.8740  2.4474 -0.7390
   91MOL   H33734717   7.530   0.218   4.489 -2.1167 -2.1091  0.2706
   91MOL   H33834718   7.685   0.192   4.544  1.7598  1.1409 -2.3610
   91MOL   H33934719   7.610   0.180   4.246 -2.5174  2.4894  0.3255
   91MOL   H34034720   7.769   0.173   4.325  0.4217 -0.5733  3.5136
   91MOL   H34134721   7.564   0.410   4.343  0.2299  0.8372  0.5605
   91MOL   H34234722   7.705   0.398   4.221 -0.4170 -1.1340  0.5084
   91MOL   H34334723   7.734   0.411   4.392  0.4281  2.3550 -1.1242
   91MOL   C34434724   7.711   7.560   4.297 -0.6128  0.4184 -0.3949
   91MOL   C34534725   7.606   7.606   4.184 -0.2357 -0.4788 -0.2525
   91MOL   O34634726   7.486   7.537   4.232  0.2852 -0.1895 -0.3130
   91MOL   C34734727   7.372   7.551   4.155  0.3449  0.3495  0.1917
   91MOL   C34834728   7.263   7.547   4.265  0.8538  0.1865 -0.1521
   91MOL   C34934729   7.130   7.567   4.195 -0.1046 -0.8129 -0.2421
   91MOL   C35034730   7.019   7.601   4.293 -0.4249 -0.5964 -0.7922
   91MOL   H35134731   0.010   7.599   4.280 -0.7139 -0.1034 -2.4164
   91MOL   H35234732   7.720   7.452   4.288  0.7450  0.1852  3.1319
   91MOL   H35334733   7.603   7.715   4.189  1.8368 -0.3660 -0.8973
   91MOL   H35434734   7.364   7.463   4.091 -2.1309 -0.6186  1.7448
   91MOL   H35534735   7.375   7.648   4.105 -0.4323  0.5195  0.4647
   91MOL   H35634736   7.293   7.633   4.325  0.1550 -0.8394  1.6880
   91MOL   H35734737   7.263   7.452   4.319 -2.3407 -0.5139 -1.2533
   91MOL   H35834738   7.138   7.652   4.127  2.5263  0.3004  1.3912
   91MOL   H35934739   7.112   7.475   4.139  0.0395 -1.6135  0.9937
   91MOL   H36034740   6.916   7.584   4.259 -1.2018 -0.5765  1.5030
   91MOL   H36134741   7.021   7.708   4.313  1.9116 -0.9457  1.1209
   91MOL   H36234742   7.027   7.543   4.385 -0.5952  0.4796 -0.0973
   91MOL   C36334743   7.650   7.566   4.043  0.5415  0.3914 -0.1296
   91MOL   C36434744   7.784   7.619   3.989 -0.2464  0.0458 -0.4318
   91MOL   O36534745   7.783   7.574   3.857  0.3582 -0.0697  0.9542
   91MOL   C36634746   0.107   7.541   3.794 -0.0244  0.0073  0.6441
   91MOL   C36734747   0.205   7.659   3.811  0.2595 -0.0537 -0.2965
   91MOL   C36834748   0.175   7.793   3.741 -0.2616  1.1203  0.1220
   91MOL   C36934749   0.273   0.109   3.768 -0.3655 -0.1069  0.4149
   91MOL   H37034750   7.577   7.588   3.966  0.7224  1.6719  0.0562
   91MOL   H37134751   7.654   7.457   4.049 -0.6219  0.3622  0.3327
   91MOL   H37234752   0.064   7.575   4.046  0.9979  0.7525 -1.6507
   91MOL   H37334753   0.094   7.533   3.686  0.7365 -1.1154  0.6311
   91MOL   H37434754   0.143   7.446   3.834 -0.3575 -1.3811 -2.2538
   91MOL   H37534755   0.301   7.624   3.773  0.3938 -1.8053  1.5643
   91MOL   H37634756   0.228   7.687   3.914  1.0537 -2.4110  0.2028
   91MOL   H37734757   0.069   0.018   3.740  0.0005  2.1833  0.2271
   91MOL   H37834758   0.175   7.771   3.634 -1.9795  0.2658  0.2658
   91MOL   H37934759   0.374   0.069   3.763 -0.0157  0.6538  1.2293
   91MOL   H38034760   0.271   0.196   3.701 -0.0496 -0.0034  0.5412
   91MOL   H38134761   0.273   0.156   3.867 -1.0109 -1.6649  1.1627
   91MOL   H38234762   7.793   7.728   3.995 -1.0061  0.2332 -2.2850
   92MOL     C134763   2.613   5.392   6.870  0.0757  0.0458  0.0517
   92MOL     C234764   2.471   5.413   6.835 -0.0187  0.3874  0.2659
   92MOL     O334765   2.400   5.414   6.957  0.3661 -0.4007 -0.1745
   92MOL     C434766   2.348   5.285   6.993 -0.0474 -0.4994 -0.4067
   92MOL     C534767   2.320   5.276   7.142  0.4473  0.6540  0.3016
   92MOL     C634768   2.246   5.153   7.174 -0.2795 -0.0562  0.5524
   92MOL     C734769   2.313   5.020   7.141 -0.1817  0.8605  0.1843
   92MOL     H834770   2.621   5.299   6.927  1.7934 -0.8025 -1.4932
   92MOL     H934771   2.672   5.377   6.780  0.8261  2.3558  0.1238
   92MOL    H1034772   2.442   5.332   6.769 -1.5540  1.9294 -1.0019
   92MOL    H1134773   2.265   5.264   6.925  1.1757 -1.2766 -1.6936
   92MOL    H1234774   2.419   5.207   6.966  1.3340  0.8498 -0.7855
   92MOL    H1334775   2.265   5.361   7.182  1.1659  0.8786  0.8115
   92MOL    H1434776   2.418   5.268   7.190  0.1169  2.7308  1.3314
   92MOL    H1534777   2.150   5.141   7.122 -0.2193 -0.7292  0.5838
   92MOL    H1634778   2.221   5.136   7.279 -0.2533  1.2122  0.7635
   92MOL    H1734779   2.345   5.017   7.037 -0.0958  1.1307  0.2012
   92MOL    H1834780   2.264   4.925   7.159 -0.3684  0.6594 -1.3053
   92MOL    H1934781   2.408   5.010   7.192 -0.7978 -0.8204  1.0330
   92MOL    H2034782   2.655   5.478   6.923 -0.5172  1.0120 -1.0401
   92MOL    C2134783   2.448   5.541   6.751  0.2151  0.4443 -0.1299
   92MOL    C2234784   2.313   5.573   6.683 -0.2705  0.5860 -0.1703
   92MOL    O2334785   2.336   5.692   6.606  0.0352  0.0514  0.3754
   92MOL    C2434786   2.288   5.816   6.667  0.5047 -0.1235 -0.0398
   92MOL    C2534787   2.333   5.924   6.566 -0.7802  0.0593 -0.6595
   92MOL    C2634788   2.487   5.939   6.579  0.5112 -0.2059  0.4270
   92MOL    C2734789   2.539   6.045   6.486 -0.4140 -0.3021 -0.3918
   92MOL    H2834790   2.523   5.544   6.672  2.2632 -0.7384  1.7031
   92MOL    H2934791   2.475   5.620   6.821  1.8927 -1.6893  1.7364
   92MOL    H3034792   2.240   5.597   6.761  0.1994  0.9698  0.1528
   92MOL    H3134793   2.332   5.835   6.765 -1.1351  1.8354  0.3490
   92MOL    H3234794   2.180   5.827   6.676  0.2818 -0.5889 -1.9068
   92MOL    H3334795   2.313   5.885   6.466 -2.0435 -2.2329  0.4325
   92MOL    H3434796   2.276   6.014   6.590  0.0221  0.1286  1.0063
   92MOL    H3534797   2.521   5.956   6.681 -0.5685 -1.1185  0.9521
   92MOL    H3634798   2.545   5.847   6.577 -0.6275 -0.9241 -1.0646
   92MOL    H3734799   2.647   6.060   6.496 -0.3220 -0.2591 -1.3682
   92MOL    H3834800   2.532   5.998   6.388  1.4693 -0.8634 -0.2731
   92MOL    H3934801   2.485   6.139   6.478  1.8985  0.9855 -1.6218
   92MOL    C4034802   2.263   5.456   6.597 -0.5123 -0.0765 -0.0277
   92MOL    C4134803   2.120   5.481   6.554  0.3218  1.1909  0.0782
   92MOL    O4234804   2.044   5.466   6.674 -0.0187  0.5484  0.0874
   92MOL    C4334805   1.962   5.567   6.717  0.3961 -0.3611 -0.3969
   92MOL    C4434806   1.885   5.511   6.846 -0.9018 -0.2522 -0.3819
   92MOL    C4534807   1.979   5.489   6.966 -1.0141 -0.5908  1.1460
   92MOL    C4634808   1.906   5.442   7.093 -0.1828  0.0787 -0.1683
   92MOL    H4734809   2.267   5.355   6.636  1.4705 -0.7356 -1.8662
   92MOL    H4834810   2.328   5.446   6.510 -2.4987 -0.1274 -1.5582
   92MOL    H4934811   2.112   5.583   6.517 -1.8474  1.2173  0.5751
   92MOL    H5034812   1.891   5.581   6.635 -2.2001 -1.1549  1.6639
   92MOL    H5134813   2.018   5.658   6.738  0.3546 -0.8609  2.0311
   92MOL    H5234814   1.834   5.428   6.797 -0.7123 -1.0629  0.7763
   92MOL    H5334815   1.802   5.576   6.876  0.6082  1.2832  0.5455
   92MOL    H5434816   2.047   5.572   6.987  1.3606 -2.1270 -0.3196
   92MOL    H5534817   2.050   5.414   6.933 -1.4741  0.1549 -1.6610
   92MOL    H5634818   1.848   5.527   7.129  2.1031  0.9471  1.5658
   92MOL    H5734819   1.839   5.357   7.088  1.2790 -1.1721  0.8942
   92MOL    H5834820   1.979   5.411   7.168 -2.2885 -1.8709  1.1263
   92MOL    C5934821   2.062   5.377   6.460 -0.6814  0.1664  0.5082
   92MOL    C6034822   1.914   5.401   6.414 -0.6927  0.5499 -0.5026
   92MOL    O6134823   1.892   5.529   6.353 -0.2859  0.4893  0.0014
   92MOL    C6234824   1.980   5.574   6.246  0.4443  0.2325  0.5409
   92MOL    C6334825   1.950   5.721   6.210  0.3548 -0.6589 -0.2856
   92MOL    C6434826   1.805   5.767   6.222  0.3878 -0.3889  0.5515
   92MOL    C6534827   1.770   5.894   6.143  0.0719 -0.9551 -0.2074
   92MOL    H6634828   2.125   5.370   6.372 -0.6122  0.1853  0.5564
   92MOL    H6734829   2.076   5.281   6.511  1.5079  0.0877 -0.1817
   92MOL    H6834830   1.857   5.389   6.507 -0.5812  1.3903 -0.3210
   92MOL    H6934831   1.959   5.515   6.157  1.5769  1.8639 -0.8297
   92MOL    H7034832   2.086   5.564   6.269  0.6211  1.3907  0.2592
   92MOL    H7134833   2.003   5.796   6.268  0.7611 -0.9508 -0.2738
   92MOL    H7234834   1.983   5.738   6.107 -0.3433  0.0963 -0.3906
   92MOL    H7334835   1.750   5.683   6.179  1.0947 -1.1195  1.0629
   92MOL    H7434836   1.766   5.764   6.323 -4.0111  0.4282 -1.0131
   92MOL    H7534837   1.794   5.886   6.037 -4.5178  1.0636 -1.5454
   92MOL    H7634838   1.662   5.902   6.138  0.1596 -0.6485 -1.9595
   92MOL    H7734839   1.809   5.988   6.184 -1.4873 -0.7316  0.8082
   92MOL    C7834840   1.847   5.302   6.327  0.1740 -0.2411  0.1216
   92MOL    C7934841   1.696   5.323   6.317  0.2396  0.1008 -0.0904
   92MOL    O8034842   1.632   5.197   6.323 -0.2627  0.0719 -0.1132
   92MOL    C8134843   1.627   5.145   6.450  0.1302  0.2952  0.1840
   92MOL    C8234844   1.535   5.024   6.458 -0.1289 -0.4201  0.0548
   92MOL    C8334845   1.529   4.939   6.327 -0.6279  0.6120  0.6424
   92MOL    C8434846   1.444   4.807   6.336  0.6949 -0.1333 -0.2594
   92MOL    H8534847   1.865   5.197   6.350 -2.7514 -0.9130 -0.4689
   92MOL    H8634848   1.891   5.314   6.229  0.5321 -2.0898  0.0438
   92MOL    H8734849   1.660   5.383   6.401 -2.2544 -0.8359 -0.4736
   92MOL    H8834850   1.604   5.222   6.524  0.4421  0.0514  0.5351
   92MOL    H8934851   1.725   5.114   6.487  1.3943 -0.5999 -3.6077
   92MOL    H9034852   1.559   4.963   6.545  2.4381 -0.3211 -0.5330
   92MOL    H9134853   1.435   5.061   6.479 -0.0390 -2.1456  3.9294
   92MOL    H9234854   1.630   4.911   6.295 -0.8311 -1.3604  1.6909
   92MOL    H9334855   1.485   5.004   6.251 -1.2855 -0.6940 -0.1075
   92MOL    H9434856   1.341   4.841   6.345  0.4022 -1.0431 -0.1033
   92MOL    H9534857   1.467   4.739   6.254  0.2274  0.2571 -0.7162
   92MOL    H9634858   1.465   4.757   6.431 -0.2387 -0.7209 -0.3635
   92MOL    C9734859   1.642   5.402   6.200  0.7398 -0.3161  0.0110
   92MOL    C9834860   1.504   5.483   6.221  0.1774  1.0327  0.1037
   92MOL    O9934861   1.442   5.497   6.099  0.0006 -1.0145 -0.0690
   92MOL   C10034862   1.466   5.620   6.030 -0.0680  0.0174 -0.5036
   92MOL   C10134863   1.381   5.624   5.907 -0.0321  0.2109  0.5027
   92MOL   C10234864   1.373   5.759   5.835  0.0489 -0.1001  0.1842
   92MOL   C10334865   1.375   5.753   5.675  0.3019 -0.2044 -0.0855
   92MOL   H10434866   1.645   5.342   6.109  1.7447  1.2555 -1.0078
   92MOL   H10534867   1.719   5.476   6.177 -1.4782  2.5485  1.5211
   92MOL   H10634868   1.519   5.578   6.273 -0.5950  1.5666 -0.6363
   92MOL   H10734869   1.570   5.617   6.001  0.6474  0.2086  1.8937
   92MOL   H10834870   1.453   5.702   6.101  0.1259 -0.9881  0.7023
   92MOL   H10934871   1.279   5.589   5.920 -0.1511 -0.1293 -1.2426
   92MOL   H11034872   1.419   5.549   5.838  0.6995  0.0975  1.0195
   92MOL   H11134873   1.455   5.823   5.867  0.8562 -1.9800  2.0289
   92MOL   H11234874   1.276   5.806   5.850  0.7516  1.3234  0.3849
   92MOL   H11334875   1.349   5.847   5.626  0.7013  1.5752  2.9462
   92MOL   H11434876   1.478   5.732   5.644  0.9946  0.5582  1.6275
   92MOL   H11534877   1.319   5.671   5.631 -1.2217  0.3673  0.7842
   92MOL   C11634878   1.400   5.400   6.300 -0.0870  0.8497 -0.1094
   92MOL   C11734879   1.254   5.455   6.315 -0.2699  0.3991 -0.2397
   92MOL   O11834880   1.172   5.364   6.384 -0.5083  0.2357 -0.0573
   92MOL   C11934881   1.132   5.254   6.309  0.9224  0.2100 -0.2241
   92MOL   C12034882   1.031   5.173   6.397  0.4854  0.0599  0.2416
   92MOL   C12134883   0.913   5.256   6.457  1.5694 -0.3365 -0.0955
   92MOL   C12234884   0.833   5.165   6.547  0.6814  0.2653  0.0600
   92MOL   H12334885   1.387   5.303   6.253 -2.3140 -0.1867  2.5254
   92MOL   H12434886   1.452   5.392   6.395  1.4377 -1.6959 -1.0999
   92MOL   H12534887   1.200   5.469   6.221 -2.4869  1.6287  1.1732
   92MOL   H12634888   1.215   5.192   6.275  0.1979  0.7476 -3.0941
   92MOL   H12734889   1.084   5.293   6.219 -0.3427 -0.0898  0.2977
   92MOL   H12834890   1.088   5.118   6.473 -2.2118  1.3889  3.3289
   92MOL   H12934891   0.994   5.093   6.332 -2.2583  0.9929  0.6073
   92MOL   H13034892   0.946   5.344   6.512 -0.8803  1.3623 -1.2315
   92MOL   H13134893   0.841   5.289   6.382 -1.3129  1.6601  3.3659
   92MOL   H13234894   0.821   5.068   6.498 -0.7060 -0.1023  1.1195
   92MOL   H13334895   0.736   5.208   6.569  1.1261  0.0878  2.5081
   92MOL   H13434896   0.884   5.142   6.640  1.3766 -2.9989 -1.0426
   92MOL   C13534897   1.250   5.592   6.380 -0.1704 -0.1104 -0.1638
   92MOL   C13634898   1.115   5.678   6.388 -0.4473  0.1077 -0.0192
   92MOL   O13734899   1.138   5.791   6.472  0.7275 -0.4303  0.2612
   92MOL   C13834900   1.108   5.751   6.608  0.1714 -0.8399 -0.1512
   92MOL   C13934901   1.166   5.854   6.702  0.2077 -0.2425  0.3713
   92MOL   C14034902   1.098   5.992   6.679  0.6221  1.4052 -0.6750
   92MOL   C14134903   1.168   6.104   6.763 -0.0897  0.7059 -0.7859
   92MOL   H14234904   1.321   5.667   6.344 -1.7415  1.8716  0.7787
   92MOL   H14334905   1.283   5.570   6.481  1.9613  1.4334 -0.4832
   92MOL   H14434906   1.032   5.616   6.421 -1.1973  1.0819 -0.0250
   92MOL   H14534907   1.158   5.660   6.640 -1.2593 -0.8106  2.3700
   92MOL   H14634908   1.002   5.724   6.612 -0.2974  0.6580 -1.7755
   92MOL   H14734909   1.270   5.871   6.672  0.0715  0.1320  0.1144
   92MOL   H14834910   1.166   5.832   6.808  0.9489  2.2226  0.9121
   92MOL   H14934911   1.085   6.012   6.573  0.5835 -0.9092 -1.1302
   92MOL   H15034912   0.993   5.983   6.706  0.7393  0.6539 -0.4623
   92MOL   H15134913   1.156   6.062   6.863 -0.2873 -0.4968 -1.3014
   92MOL   H15234914   1.272   6.110   6.733  0.7691 -2.1353  1.4279
   92MOL   H15334915   1.111   6.197   6.760 -1.6454 -0.1795  0.2308
   92MOL   C15434916   1.071   5.739   6.252 -0.9378 -0.9403 -0.9707
   92MOL   C15534917   0.925   5.794   6.250 -0.6067 -0.2211  0.2713
   92MOL   O15634918   0.826   5.692   6.261 -0.5667  0.8860  0.3141
   92MOL   C15734919   0.756   5.680   6.382 -0.9581 -0.0473 -0.0172
   92MOL   C15834920   0.649   5.569   6.351 -0.4872  0.2697 -0.1361
   92MOL   C15934921   0.550   5.618   6.247 -0.4661  0.0667 -0.3227
   92MOL   C16034922   0.452   5.501   6.212  0.8423 -0.2179 -0.8417
   92MOL   H16134923   1.099   5.673   6.170 -0.2882  0.3222 -1.7855
   92MOL   H16234924   1.144   5.819   6.240 -0.9954 -1.0219 -1.9192
   92MOL   H16334925   0.925   5.862   6.335 -0.5984  1.0254 -0.7123
   92MOL   H16434926   0.809   5.642   6.470 -1.8462 -1.1622  0.0509
   92MOL   H16534927   0.714   5.779   6.396 -0.2923 -0.0977  2.6891
   92MOL   H16634928   0.590   5.534   6.435  0.5296 -2.3100 -0.4648
   92MOL   H16734929   0.710   5.487   6.312  0.6993  1.1510 -0.1917
   92MOL   H16834930   0.493   5.700   6.290  0.5022  0.6012 -0.0542
   92MOL   H16934931   0.610   5.656   6.164 -0.3972 -0.5413 -0.5510
   92MOL   H17034932   0.428   5.454   6.307 -0.7529  0.8923 -0.6707
   92MOL   H17134933   0.363   5.529   6.156 -0.2452 -0.6814  0.6313
   92MOL   H17234934   0.499   5.419   6.157  0.2265 -1.0610 -0.1116
   92MOL   C17334935   0.902   5.872   6.129 -0.2463  0.5516  0.0739
   92MOL   C17434936   0.769   5.944   6.118  0.0506  0.4856 -0.2967
   92MOL   O17534937   0.788   6.081   6.158  0.0773 -1.4169 -0.1770
   92MOL   C17634938   0.769   6.113   6.296  0.5836 -0.1197  0.3072
   92MOL   C17734939   0.769   6.268   6.301 -0.2802 -0.1409  0.1563
   92MOL   C17834940   0.722   6.335   6.427 -0.2693 -0.8976  0.0231
   92MOL   C17934941   0.685   6.484   6.412  0.6145  0.0487  0.4633
   92MOL   H18034942   0.925   5.804   6.046  1.0106  1.6801 -0.5086
   92MOL   H18134943   0.975   5.950   6.112 -1.4106  1.7954  0.7012
   92MOL   H18234944   0.696   5.898   6.185 -1.0309  1.1605 -0.9960
   92MOL   H18334945   0.843   6.066   6.361 -0.1005 -0.2012  1.0411
   92MOL   H18434946   0.669   6.083   6.329  1.5808 -1.4064  2.2452
   92MOL   H18534947   0.704   6.301   6.220  0.7498  0.4552 -0.4382
   92MOL   H18634948   0.871   6.305   6.288 -0.2368 -0.2767  0.0979
   92MOL   H18734949   0.639   6.268   6.450 -0.6171  0.0605  1.6214
   92MOL   H18834950   0.792   6.324   6.510 -0.9962 -1.7533  0.5308
   92MOL   H18934951   0.615   6.512   6.334  0.7710 -0.6166  0.0778
   92MOL   H19034952   0.642   6.532   6.500  0.6776  1.5744 -0.3326
   92MOL   H19134953   0.765   6.551   6.378  0.6307  0.5486  1.4708
   92MOL   C19234954   0.708   5.944   5.978 -0.5194  0.7708 -0.4661
   92MOL   C19334955   0.578   6.032   5.969 -0.6587  0.8256 -0.1484
   92MOL   O19434956   0.538   6.026   5.832  0.2160  0.8055  0.0702
   92MOL   C19534957   0.592   6.132   5.754  0.1957  0.2900 -0.0361
   92MOL   C19634958   0.534   6.112   5.608  0.3932 -0.0173  0.0525
   92MOL   C19734959   0.605   6.197   5.501 -0.1527 -0.0204  0.2349
   92MOL   C19834960   0.532   6.183   5.368 -1.1864  0.0372 -0.0265
   92MOL   H19934961   0.692   5.841   5.944  1.8773  0.4864 -0.7731
   92MOL   H20034962   0.778   5.995   5.912 -1.3197  1.1418 -1.0499
   92MOL   H20134963   0.595   6.136   5.999 -0.1122  0.7976 -0.3523
   92MOL   H20234964   0.701   6.133   5.750  0.1502 -0.4829 -2.1353
   92MOL   H20334965   0.546   6.224   5.789 -1.0734  0.1580 -1.3114
   92MOL   H20434966   0.529   6.008   5.577  1.8437  0.9007 -3.5760
   92MOL   H20534967   0.433   6.148   5.625  0.9955  1.2600  1.0055
   92MOL   H20634968   0.708   6.169   5.479 -0.4355 -0.1811 -0.8997
   92MOL   H20734969   0.604   6.303   5.528 -0.6281  0.4114 -1.4125
   92MOL   H20834970   0.433   6.228   5.370 -0.8304  0.9469 -1.6673
   92MOL   H20934971   0.579   6.238   5.286  1.4254 -0.0728  1.3558
   92MOL   H21034972   0.537   6.076   5.346  2.2486  0.1362 -0.0799
   92MOL   C21134973   0.456   5.976   6.063 -0.3466 -0.7775 -1.2750
   92MOL   C21234974   0.314   6.040   6.059 -0.1153 -0.7297 -0.0864
   92MOL   O21334975   0.231   5.986   6.157  0.3163 -0.6276  0.0842
   92MOL   C21434976   0.142   5.886   6.105 -0.7831  0.3138 -0.4014
   92MOL   C21534977   0.077   5.825   6.222  0.8878 -0.4195 -0.2016
   92MOL   C21634978   0.174   5.722   6.287 -0.5218 -0.3291  0.8967
   92MOL   C21734979   0.123   5.673   6.422  0.2033 -0.1305  0.2929
   92MOL   H21834980   0.489   5.991   6.166 -2.3280  1.2436 -0.9081
   92MOL   H21934981   0.446   5.868   6.059 -0.3451 -0.9523  2.3510
   92MOL   H22034982   0.270   6.027   5.960 -0.9433  0.5278  0.1049
   92MOL   H22134983   0.062   5.935   6.050 -0.5072  2.2352  0.8563
   92MOL   H22234984   0.194   5.804   6.055 -2.1591 -1.4857  1.0522
   92MOL   H22334985   0.050   5.911   6.283  0.1839 -0.4377 -0.4823
   92MOL   H22434986   7.787   5.778   6.187  0.0122  0.6881  0.6012
   92MOL   H22534987   0.280   5.745   6.282 -0.7301  0.3006 -0.7232
   92MOL   H22634988   0.161   5.637   6.220 -0.7608  0.5298 -0.1539
   92MOL   H22734989   0.187   5.597   6.469  2.6196  0.3156 -2.1325
   92MOL   H22834990   0.034   5.616   6.397 -0.3834  1.1850 -0.6385
   92MOL   H22934991   0.090   5.745   6.496 -0.7546 -0.2236 -0.0390
   92MOL   C23034992   0.311   6.198   6.088 -0.0587 -1.2007 -0.0621
   92MOL   C23134993   0.183   6.281   6.057 -0.3634 -0.5858  0.2793
   92MOL   O23234994   0.215   6.422   6.086  0.5081  0.9070 -1.3532
   92MOL   C23334995   0.163   6.464   6.210  0.2162  0.0763  0.3965
   92MOL   C23434996   0.193   6.616   6.217 -0.4168 -0.2558  0.9144
   92MOL   C23534997   0.154   6.691   6.088  0.5917 -0.2439 -0.4998
   92MOL   C23634998   0.163   6.847   6.096  0.1865 -0.2489 -0.9219
   92MOL   H23734999   0.390   6.246   6.031 -0.2117 -1.4083 -0.4516
   92MOL   H23835000   0.335   6.203   6.195 -1.3903 -0.6485  0.2175
   92MOL   H23935001   0.110   6.236   6.124 -1.3447  3.0400  1.7505
   92MOL   H24035002   0.059   6.438   6.225  0.7680 -1.7327  1.2322
   92MOL   H24135003   0.227   6.421   6.287  0.2141  0.2577  0.4987
   92MOL   H24235004   0.142   6.656   6.305  1.4090  3.0501  0.5651
   92MOL   H24335005   0.302   6.618   6.226 -0.3526  1.3263  0.0373
   92MOL   H24435006   0.051   6.673   6.056  0.2567 -0.1516  0.4928
   92MOL   H24535007   0.223   6.668   6.007  0.2631  0.4828 -0.9827
   92MOL   H24635008   0.270   6.871   6.092  0.1972 -0.1172  0.0513
   92MOL   H24735009   0.124   6.886   6.190  0.8557 -1.7547  0.0054
   92MOL   H24835010   0.100   6.892   6.019 -0.8469  2.3154  1.3281
   92MOL   C24935011   0.135   6.278   5.914 -0.0108  0.7183 -0.1265
   92MOL   C25035012   0.018   6.377   5.873  0.3856  0.2394 -0.0025
   92MOL   O25135013   7.709   6.336   5.938 -0.7842  0.7130 -0.0532
   92MOL   C25235014   7.598   6.422   5.948  0.6306 -0.3848  0.5098
   92MOL   C25335015   7.511   6.345   6.041  0.3975  0.1792 -0.6186
   92MOL   C25435016   7.472   6.196   6.005  0.4014 -0.0825 -0.4221
   92MOL   C25535017   7.391   6.131   6.117  0.0499 -0.3887  0.1943
   92MOL   H25635018   0.093   6.179   5.894  0.4417  0.9832 -2.6038
   92MOL   H25735019   0.217   6.300   5.845  1.8271 -0.8424  1.5157
   92MOL   H25835020   0.036   6.479   5.906 -2.0433  1.2521 -1.6468
   92MOL   H25935021   7.548   6.447   5.854 -2.3091 -0.1064  2.0867
   92MOL   H26035022   7.622   6.513   6.003 -1.7517  0.7963 -0.3458
   92MOL   H26135023   7.561   6.345   6.138 -2.4076 -2.5495  0.9376
   92MOL   H26235024   7.416   6.398   6.054 -0.8336 -1.9382 -0.7882
   92MOL   H26335025   7.406   6.192   5.919 -1.1726 -0.4720  0.7898
   92MOL   H26435026   7.565   6.143   5.987  0.0208 -1.0133  0.3208
   92MOL   H26535027   7.391   6.025   6.092  0.1245 -0.1961 -0.6670
   92MOL   H26635028   7.292   6.177   6.120  1.5152  2.9611 -0.4577
   92MOL   H26735029   7.438   6.130   6.215 -0.6497  1.0651  0.5639
   92MOL   C26835030   7.799   6.377   5.718  0.3456  0.2490  0.1004
   92MOL   C26935031   0.071   6.481   5.641 -0.5253 -0.5008  0.2787
   92MOL   O27035032   0.051   6.484   5.494  0.1744  0.2968 -0.1604
   92MOL   C27135033   0.136   6.389   5.433 -0.1322 -0.3924  0.1556
   92MOL   C27235034   0.126   6.399   5.286 -0.3029 -0.3769  0.6185
   92MOL   C27335035   7.791   6.388   5.218  0.1311  0.0883  0.2916
   92MOL   C27435036   0.009   6.369   5.067 -0.9236  0.1863 -0.6539
   92MOL   H27535037   7.796   6.276   5.675 -1.4684  0.3803 -0.1213
   92MOL   H27635038   7.693   6.394   5.703  0.4446  1.1554  0.3914
   92MOL   H27735039   0.173   6.471   5.680 -1.6850 -0.6554  3.4839
   92MOL   H27835040   0.236   6.406   5.472  0.4783 -1.2432 -1.0088
   92MOL   H27935041   0.093   6.295   5.469 -2.5473  0.9122  0.7856
   92MOL   H28035042   0.178   6.488   5.249 -1.5700 -0.1214 -0.6066
   92MOL   H28135043   0.196   6.324   5.249  1.0829  0.1987  2.0075
   92MOL   H28235044   7.736   6.481   5.235 -0.0642  0.0582 -0.1744
   92MOL   H28335045   7.720   6.323   5.269  2.8344 -1.9008  1.6419
   92MOL   H28435046   7.716   6.404   5.023 -1.6790 -2.1746 -0.9822
   92MOL   H28535047   0.024   6.262   5.055 -0.3045  0.2281 -0.2760
   92MOL   H28635048   0.092   6.424   5.023 -2.2276  1.3303 -1.7393
   92MOL   C28735049   0.029   6.621   5.678 -0.4824  0.4666 -0.2128
   92MOL   C28835050   0.132   6.730   5.636 -0.0640 -0.1798 -0.0710
   92MOL   O28935051   0.232   6.737   5.737 -0.1067  0.1377 -0.5569
   92MOL   C29035052   0.364   6.764   5.683 -0.8210  0.1999 -0.5005
   92MOL   C29135053   0.463   6.726   5.787  0.2259 -0.6411 -0.1962
   92MOL   C29235054   0.450   6.579   5.834 -0.0305 -0.0273 -0.0734
   92MOL   C29335055   0.555   6.523   5.931  0.6640 -0.1866 -0.4750
   92MOL   H29435056   0.016   6.631   5.786  2.0425  0.2215  0.1448
   92MOL   H29535057   7.741   6.648   5.623  0.0244  0.3873 -1.0831
   92MOL   H29635058   0.177   6.703   5.540 -1.0651  1.0170 -0.8924
   92MOL   H29735059   0.382   6.713   5.588  1.0813  1.1393 -0.6630
   92MOL   H29835060   0.372   6.871   5.665 -0.0567 -0.0478 -1.6904
   92MOL   H29935061   0.450   6.786   5.878  0.9602 -0.8156  0.0251
   92MOL   H30035062   0.557   6.768   5.752 -0.5417  1.1576 -0.1713
   92MOL   H30135063   0.471   6.514   5.749 -2.7158  0.5279 -1.2151
   92MOL   H30235064   0.343   6.566   5.854 -0.3204  2.4519  0.1942
   92MOL   H30335065   0.652   6.525   5.882  0.4558  0.0602 -0.8796
   92MOL   H30435066   0.554   6.581   6.023  1.9435  0.5411 -0.9041
   92MOL   H30535067   0.534   6.418   5.948 -0.6823 -0.0063 -0.9513
   92MOL   C30635068   0.067   6.868   5.627 -0.4955  0.5344 -0.3648
   92MOL   C30735069   0.004   6.889   5.491 -0.4665 -0.6028  0.2321
   92MOL   O30835070   0.097   6.870   5.389 -0.2221 -0.1604  0.3819
   92MOL   C30935071   0.049   6.804   5.272 -0.3161 -0.3929  0.5784
   92MOL   C31035072   0.155   6.837   5.169 -0.0500 -0.0397  0.2272
   92MOL   C31135073   0.126   6.781   5.026 -0.2464  0.3128  0.6318
   92MOL   C31235074   0.256   6.774   4.936 -0.0701  0.2186  0.4607
   92MOL   H31335075   7.796   6.874   5.708 -0.5859 -2.0116 -0.2282
   92MOL   H31435076   0.136   6.949   5.652  2.2238 -1.1051 -2.2793
   92MOL   H31535077   7.736   6.806   5.483 -3.7887  2.0431  0.4855
   92MOL   H31635078   7.759   6.851   5.237 -1.9074 -2.1195  2.2669
   92MOL   H31735079   0.025   6.697   5.276 -1.6273 -0.1094  0.3541
   92MOL   H31835080   0.242   6.791   5.216  0.4090  2.5925  2.1168
   92MOL   H31935081   0.170   6.945   5.164  0.1059  0.0355  1.8830
   92MOL   H32035082   0.099   6.676   5.034  0.4221  0.1448  0.6792
   92MOL   H32135083   0.051   6.838   4.972  0.7328  1.0595  0.0343
   92MOL   H32235084   0.299   6.872   4.917 -0.5537  0.3219 -0.1278
   92MOL   H32335085   0.232   6.733   4.838 -0.9001 -1.0108  1.1588
   92MOL   H32435086   0.328   6.710   4.987 -0.4248  0.2223  0.9729
   92MOL   C32535087   7.738   7.020   5.456 -0.7947  0.0966 -0.0980
   92MOL   C32635088   7.626   7.071   5.550  0.6389 -0.0282 -0.0502
   92MOL   O32735089   7.609   7.211   5.531  0.0431 -0.0363 -0.0726
   92MOL   C32835090   7.662   7.290   5.630  0.1287  0.3064  0.1124
   92MOL   C32935091   7.607   7.426   5.607 -0.4267  0.1884  0.1545
   92MOL   C33035092   7.632   7.521   5.724 -0.4606 -0.1911 -0.9004
   92MOL   C33135093   7.568   7.660   5.725 -0.2377  0.5578 -0.3532
   92MOL   H33235094   7.695   7.005   5.357  0.9713 -0.3637 -0.8182
   92MOL   H33335095   0.012   7.099   5.454 -0.9878  0.3318  1.3273
   92MOL   H33435096   7.660   7.048   5.651  1.3378  2.4202  0.3046
   92MOL   H33535097   7.769   7.298   5.614  0.3951 -0.7224  1.2976
   92MOL   H33635098   7.623   7.247   5.722  0.8652 -1.3305 -0.3376
   92MOL   H33735099   7.649   7.452   5.510  1.0913 -0.7459  0.5486
   92MOL   H33835100   7.498   7.422   5.596 -0.1413 -1.0705 -2.5872
   92MOL   H33935101   7.736   7.531   5.755 -0.7667  1.0160 -0.2515
   92MOL   H34035102   7.595   7.467   5.811  0.1391  1.9318  0.7056
   92MOL   H34135103   7.597   7.710   5.633 -1.0259 -0.3778 -1.1249
   92MOL   H34235104   7.603   7.722   5.807 -0.9397 -0.7375  0.9510
   92MOL   H34335105   7.459   7.663   5.730 -0.1588  1.7731  0.8782
   92MOL   C34435106   7.496   6.993   5.523 -0.0052 -0.7154 -0.2882
   92MOL   C34535107   7.376   7.047   5.602 -1.2295  0.3594 -0.4956
   92MOL   O34635108   7.356   6.974   5.722 -0.3157  0.1938  0.0607
   92MOL   C34735109   7.336   6.831   5.715 -0.0663  0.8035 -0.4849
   92MOL   C34835110   7.305   6.785   5.857 -0.9180  0.5469 -0.3892
   92MOL   C34935111   7.239   6.644   5.863 -0.3667  0.1220  0.8404
   92MOL   C35035112   7.179   6.600   5.999  0.5629 -0.2721  0.0066
   92MOL   H35135113   7.482   7.001   5.415 -1.2606  0.6646 -0.0385
   92MOL   H35235114   7.506   6.885   5.536 -0.1728 -0.3600  3.4040
   92MOL   H35335115   7.396   7.143   5.648 -2.4250  0.5865 -0.4256
   92MOL   H35435116   7.427   6.779   5.684  0.7136  1.7272  0.2243
   92MOL   H35535117   7.252   6.822   5.647 -1.2226  2.1320  0.7335
   92MOL   H35635118   7.230   6.850   5.902  0.2055  0.5126  1.5653
   92MOL   H35735119   7.387   6.788   5.929  0.2538  0.6098 -1.7070
   92MOL   H35835120   7.169   6.642   5.780  0.1801 -1.7356  0.4017
   92MOL   H35935121   7.308   6.567   5.829 -0.4542 -0.0323  1.0194
   92MOL   H36035122   7.080   6.646   6.005  0.9506  0.8928 -2.1617
   92MOL   H36135123   7.232   6.635   6.088 -1.1175  1.4567  0.3663
   92MOL   H36235124   7.149   6.496   5.984 -2.1258  0.7525 -2.1445
   92MOL   C36335125   7.248   7.060   5.519  0.9399 -0.1407  0.2179
   92MOL   C36435126   7.262   7.158   5.394  0.7016  0.9150  0.2678
   92MOL   O36535127   7.135   7.164   5.336  0.6205  0.1165  0.1226
   92MOL   C36635128   7.145   7.266   5.235 -0.2993 -0.6672  1.2124
   92MOL   C36735129   7.024   7.272   5.152  0.1263 -0.0159 -0.1412
   92MOL   C36835130   7.046   7.375   5.038 -0.0403  0.3120 -0.3749
   92MOL   C36935131   6.957   7.364   4.917  1.0323 -0.4001  0.4328
   92MOL   H37035132   7.168   7.106   5.577 -0.4134 -2.8842  0.5810
   92MOL   H37135133   7.223   6.960   5.484  1.2179  0.7012 -2.4816
   92MOL   H37235134   7.329   7.116   5.319 -0.4086 -1.2233  0.4426
   92MOL   H37335135   7.233   7.250   5.172 -1.3204  0.5796 -0.5608
   92MOL   H37435136   7.153   7.359   5.291 -1.1902  0.3156 -0.2596
   92MOL   H37535137   6.929   7.304   5.195  0.2038  1.6928 -1.1924
   92MOL   H37635138   7.010   7.172   5.111 -0.4936 -0.2516  0.6336
   92MOL   H37735139   7.148   7.360   5.004  0.0388 -1.2690  0.5168
   92MOL   H37835140   7.048   7.479   5.072 -1.3494  1.1060 -2.5906
   92MOL   H37935141   6.856   7.331   4.940  0.7583 -0.6773 -1.0972
   92MOL   H38035142   6.951   7.456   4.860  0.2224 -0.1293  0.9548
   92MOL   H38135143   6.997   7.293   4.845  3.5143  2.1353 -0.8062
   92MOL   H38235144   7.305   7.253   5.426 -0.3933  1.7312 -0.6698
   93MOL     C135145   7.697   5.725   0.990  0.3392  0.2311  0.4758
   93MOL     C235146   0.038   5.666   0.966 -0.3265 -0.0302  0.1507
   93MOL     O335147   0.118   5.716   1.069  0.1121 -0.4542 -0.4469
   93MOL     C435148   0.259   5.710   1.040 -0.2582  0.3297  0.1194
   93MOL     C535149   0.317   5.835   1.113  0.9162  0.1844 -0.2402
   93MOL     C635150   0.451   5.858   1.055  0.7689  0.5033  0.5009
   93MOL     C735151   0.505   5.989   1.111  0.0621  0.4955 -0.0282
   93MOL     H835152   7.632   5.678   0.915 -1.2065 -1.4225  2.7929
   93MOL     H935153   7.653   5.704   1.087  0.4797  0.3074  0.5553
   93MOL    H1035154   0.081   5.704   0.873  0.6559 -2.6410 -0.4942
   93MOL    H1135155   0.299   5.622   1.090  1.0976  0.2340 -1.1281
   93MOL    H1235156   0.289   5.706   0.936 -0.6593  0.0226  0.0162
   93MOL    H1335157   0.324   5.831   1.222 -3.1546  0.5188  0.1278
   93MOL    H1435158   0.248   5.918   1.098  0.3124 -0.5669 -1.6594
   93MOL    H1535159   0.436   5.868   0.947 -2.6440  1.6580  1.0148
   93MOL    H1635160   0.506   5.764   1.062  1.1491  0.6725 -0.1729
   93MOL    H1735161   0.493   5.976   1.219 -0.4797  2.3865  0.1519
   93MOL    H1835162   0.442   6.073   1.084 -1.9006 -2.0775 -3.9698
   93MOL    H1935163   0.612   6.002   1.097 -0.0841  0.8211 -0.8611
   93MOL    H2035164   7.698   5.834   0.989 -1.6910  0.2839  0.3185
   93MOL    C2135165   0.046   5.511   0.956  0.1625 -0.4879  0.0639
   93MOL    C2235166   7.781   5.429   1.070  0.0963  0.2862 -0.5191
   93MOL    O2335167   7.737   5.309   1.004  0.1611 -0.0770  0.0433
   93MOL    C2435168   7.618   5.300   0.936 -0.1210 -0.1123  0.3818
   93MOL    C2535169   7.617   5.156   0.883 -0.1174 -0.0710  0.6978
   93MOL    C2635170   7.696   5.143   0.751  0.6838 -0.2329 -0.7466
   93MOL    C2735171   7.691   4.998   0.707 -0.4643 -0.3247  0.1202
   93MOL    H2835172   0.152   5.488   0.954  1.0194  3.3060 -2.3350
   93MOL    H2935173   0.018   5.468   0.860 -1.9774 -0.8382  0.8153
   93MOL    H3035174   7.689   5.476   1.104 -1.7129 -2.5558 -1.3165
   93MOL    H3135175   7.625   5.377   0.859  0.8471  0.5125  1.0844
   93MOL    H3235176   7.531   5.310   1.001 -1.4685  0.3748 -1.4812
   93MOL    H3335177   7.639   5.085   0.962  1.0425  1.1342  1.4768
   93MOL    H3435178   7.515   5.128   0.858 -0.0303  0.2099 -0.0041
   93MOL    H3535179   7.649   5.210   0.679  1.2287  0.1649 -0.7418
   93MOL    H3635180   7.799   5.172   0.775  0.4963 -1.0468  1.2029
   93MOL    H3735181   7.770   4.987   0.632  1.5617 -0.9622  2.2980
   93MOL    H3835182   7.724   4.925   0.781  0.3479 -0.4866 -0.3944
   93MOL    H3935183   7.597   4.967   0.662 -0.4517  1.8386 -1.4773
   93MOL    C4035184   0.079   5.382   1.183 -0.4184  0.3087  0.3244
   93MOL    C4135185   0.000   5.310   1.297 -0.2603 -0.1987  0.6146
   93MOL    O4235186   7.761   5.402   1.396  0.2020 -0.4443  0.1942
   93MOL    C4335187   7.632   5.454   1.380 -0.6612 -0.4229  0.3485
   93MOL    C4435188   7.617   5.535   1.504 -0.2926  0.1283  0.4398
   93MOL    C4535189   7.714   5.664   1.514  0.5477 -0.1117  0.3440
   93MOL    C4635190   7.723   5.754   1.396  0.3552  0.3316  0.4840
   93MOL    H4735191   0.134   5.472   1.211 -0.6576  0.3325  0.7238
   93MOL    H4835192   0.151   5.316   1.134  0.2002  0.5705  0.8773
   93MOL    H4935193   7.713   5.263   1.253 -0.9723 -0.2236  2.0511
   93MOL    H5035194   7.555   5.376   1.379 -1.8840  0.7385  0.9024
   93MOL    H5135195   7.612   5.510   1.289  0.5385 -0.2354  0.2006
   93MOL    H5235196   7.638   5.479   1.595 -1.4539  0.3006  0.8232
   93MOL    H5335197   7.519   5.583   1.509  0.5059  1.7468  0.9739
   93MOL    H5435198   0.011   5.625   1.539  0.8192  0.2249 -0.2076
   93MOL    H5535199   7.679   5.718   1.602 -0.2279  1.0302 -0.6566
   93MOL    H5635200   7.750   5.855   1.428 -2.3072  1.0459  0.5690
   93MOL    H5735201   7.790   5.719   1.317  1.0795  1.2779  0.6610
   93MOL    H5835202   7.625   5.761   1.350  1.4323  0.8857 -1.8104
   93MOL    C5935203   0.081   5.204   1.380 -0.0070  0.1204  0.6357
   93MOL    C6035204   0.137   5.083   1.305  0.3010  0.6728  0.0776
   93MOL    O6135205   0.159   4.994   1.417  0.6352 -0.0695  0.2123
   93MOL    C6235206   0.295   4.962   1.431  0.0794 -0.3436  0.5373
   93MOL    C6335207   0.297   4.887   1.563 -0.5761 -0.0775 -0.1062
   93MOL    C6435208   0.432   4.819   1.600 -0.1439 -0.2853  0.6906
   93MOL    C6535209   0.420   4.747   1.735  0.1821 -0.9761 -0.1049
   93MOL    H6635210   0.168   5.248   1.429  1.6246 -2.5148  0.2183
   93MOL    H6735211   0.017   5.164   1.459  0.9266 -1.8716  0.4285
   93MOL    H6835212   0.228   5.099   1.247  0.0632  0.5745 -0.3217
   93MOL    H6935213   0.363   5.046   1.436  1.1447 -1.2280  1.1962
   93MOL    H7035214   0.339   4.901   1.351 -2.7862 -0.7049 -0.8616
   93MOL    H7135215   0.261   4.959   1.638 -0.6723  0.5315 -0.7295
   93MOL    H7235216   0.221   4.810   1.563 -1.2253  0.5545 -0.7928
   93MOL    H7335217   0.470   4.749   1.526  0.9703  2.2643 -1.2265
   93MOL    H7435218   0.521   4.882   1.602  0.6937 -1.4783  2.0392
   93MOL    H7535219   0.509   4.685   1.746  0.4850 -0.0714  2.9776
   93MOL    H7635220   0.427   4.811   1.823  3.2200  0.2783 -1.1860
   93MOL    H7735221   0.335   4.679   1.732 -2.5437  2.3369 -1.4217
   93MOL    C7835222   0.032   5.013   1.224  0.0221 -0.1509  0.5396
   93MOL    C7935223   0.078   4.884   1.153 -0.0675  0.3301  1.0542
   93MOL    O8035224   0.200   4.912   1.080 -0.4180  0.1896 -0.2154
   93MOL    C8135225   0.194   5.014   0.984 -0.6335  0.1847  0.7437
   93MOL    C8235226   0.344   5.020   0.924  0.0349 -0.1586 -0.3032
   93MOL    C8335227   0.357   5.069   0.775  0.2419 -0.2145 -0.7151
   93MOL    C8435228   0.312   5.216   0.761 -0.3292 -0.4731 -0.2312
   93MOL    H8535229   0.007   5.088   1.149  0.9936  0.7716  1.1323
   93MOL    H8635230   7.749   4.977   1.284 -1.5017  0.5914 -1.1291
   93MOL    H8735231   0.101   4.803   1.222  1.3234 -0.8225 -0.7125
   93MOL    H8835232   0.183   5.115   1.023  1.4790  0.8834 -0.4090
   93MOL    H8935233   0.118   4.995   0.909 -0.2334 -0.3597  0.4746
   93MOL    H9035234   0.402   5.082   0.992  0.8155 -0.5589 -0.6010
   93MOL    H9135235   0.395   4.924   0.927 -1.6180 -1.0201  4.3362
   93MOL    H9235236   0.293   5.015   0.705 -4.8840  0.4165  3.1210
   93MOL    H9335237   0.455   5.053   0.731  1.1801  1.9872  0.4822
   93MOL    H9435238   0.203   5.226   0.760 -0.3926 -1.1952 -1.1319
   93MOL    H9535239   0.351   5.264   0.851 -0.0158 -0.7307 -0.2304
   93MOL    H9635240   0.341   5.274   0.674 -0.4452 -0.6747 -0.4059
   93MOL    C9735241   7.780   4.820   1.058  0.4266  0.0217 -0.1287
   93MOL    C9835242   7.645   4.757   1.112 -0.6160 -0.4596 -0.1555
   93MOL    O9935243   7.566   4.870   1.146  0.1139  0.3674 -0.1790
   93MOL   C10035244   7.507   4.859   1.272  0.3795  0.1698  0.5816
   93MOL   C10135245   7.416   4.981   1.296 -0.1772 -0.9468 -0.1216
   93MOL   C10235246   7.325   5.021   1.179  0.1376  0.1262  0.2028
   93MOL   C10335247   7.235   5.139   1.214  0.4951 -0.2031 -0.1819
   93MOL   H10435248   0.023   4.747   0.990  0.4083  1.5998 -1.8732
   93MOL   H10535249   7.754   4.901   0.990  3.2622  0.4558 -0.7690
   93MOL   H10635250   7.673   4.685   1.189 -0.0297 -1.6217 -1.4175
   93MOL   H10735251   7.574   4.831   1.353 -0.5522  0.5747  1.5099
   93MOL   H10835252   7.431   4.781   1.264  0.7476 -0.1972  0.6584
   93MOL   H10935253   7.480   5.069   1.290  0.0324 -1.2341 -2.4165
   93MOL   H11035254   7.365   4.982   1.392  3.2069 -1.0467  1.7598
   93MOL   H11135255   7.263   4.940   1.142 -1.0168  1.7743 -1.5306
   93MOL   H11235256   7.389   5.049   1.096 -0.0562 -1.2367 -0.4222
   93MOL   H11335257   7.284   5.235   1.228 -0.6468  0.7122 -2.2297
   93MOL   H11435258   7.170   5.149   1.127  1.6182 -1.7493 -1.2329
   93MOL   H11535259   7.179   5.115   1.304  0.0228 -1.7001 -0.8527
   93MOL   C11635260   7.568   4.681   1.005 -0.1138 -0.4356 -0.5079
   93MOL   C11735261   7.621   4.542   0.965 -0.5390 -0.2743 -0.1810
   93MOL   O11835262   7.609   4.460   1.082 -0.2377  0.4604 -0.6255
   93MOL   C11935263   7.711   4.351   1.079  0.4938 -0.3342  0.1858
   93MOL   C12035264   7.720   4.268   1.211  0.4369 -0.1978  0.6943
   93MOL   C12135265   7.590   4.193   1.234 -0.4936  0.3161 -0.0972
   93MOL   C12235266   7.613   4.103   1.363 -0.0353 -0.3644 -0.1402
   93MOL   H12335267   7.468   4.674   1.048 -0.4340  3.7785 -0.3473
   93MOL   H12435268   7.560   4.747   0.919 -0.5278 -2.0686 -1.7521
   93MOL   H12535269   7.721   4.555   0.923 -0.5842  2.9914  0.5966
   93MOL   H12635270   7.794   4.415   1.052  0.0558  0.1703  0.0341
   93MOL   H12735271   7.693   4.280   0.999  1.1716 -1.5699  1.1009
   93MOL   H12835272   7.748   4.337   1.290 -1.0886  1.1451  0.0702
   93MOL   H12935273   0.000   4.196   1.202  0.3505 -0.4260  1.5973
   93MOL   H13035274   7.514   4.267   1.259 -0.3449 -0.6892  3.7400
   93MOL   H13135275   7.556   4.139   1.146 -3.3630 -1.2155  1.8547
   93MOL   H13235276   7.675   4.147   1.441 -0.0212 -0.8286  0.1073
   93MOL   H13335277   7.642   4.008   1.318  0.3373 -0.1954 -0.2633
   93MOL   H13435278   7.519   4.086   1.415  1.3160 -0.0284  2.4994
   93MOL   C13535279   7.536   4.478   0.854 -1.0263  0.0255  0.3630
   93MOL   C13635280   7.582   4.528   0.711 -0.7756  0.3267  0.0927
   93MOL   O13735281   7.716   4.473   0.687 -0.4154 -0.3090 -0.3120
   93MOL   C13835282   7.798   4.551   0.606 -0.4772  0.9838  0.0064
   93MOL   C13935283   0.144   4.500   0.589 -0.2442 -0.3859 -0.3833
   93MOL   C14035284   0.217   4.477   0.714 -0.0926  0.6460 -0.0266
   93MOL   C14135285   0.363   4.472   0.677  0.0351  0.4418 -0.0970
   93MOL   H14235286   7.431   4.504   0.865 -0.9264 -0.0078  1.4163
   93MOL   H14335287   7.552   4.370   0.855 -1.4064 -0.1091 -2.8918
   93MOL   H14435288   7.590   4.637   0.715  2.2007  0.1885 -0.8308
   93MOL   H14535289   7.797   4.651   0.648 -1.5850  0.6613  0.7550
   93MOL   H14635290   7.769   4.577   0.504 -0.6280 -0.1672 -0.2503
   93MOL   H14735291   0.196   4.578   0.533 -2.3234  1.9691  0.9019
   93MOL   H14835292   0.138   4.405   0.536  1.2220 -0.3703 -0.5970
   93MOL   H14935293   0.213   4.558   0.787  0.4319  0.1516  0.5562
   93MOL   H15035294   0.188   4.380   0.754  0.5925 -0.2552 -1.6495
   93MOL   H15135295   0.426   4.479   0.765  1.1282  0.4692 -0.8759
   93MOL   H15235296   0.394   4.381   0.626  1.2707  0.9948 -0.3513
   93MOL   H15335297   0.388   4.556   0.612 -0.0240 -0.2619 -1.0371
   93MOL   C15435298   7.491   4.494   0.585 -0.1499  0.1269 -0.9136
   93MOL   C15535299   7.341   4.542   0.601  0.1633 -0.0537 -0.5487
   93MOL   O15635300   7.263   4.489   0.490 -0.4469 -0.3081 -0.2113
   93MOL   C15735301   7.213   4.367   0.517  0.2667 -0.2720 -0.2329
   93MOL   C15835302   7.097   4.359   0.416  0.2900 -0.3864 -0.1237
   93MOL   C15935303   7.017   4.226   0.423 -0.3840  0.0077 -0.5661
   93MOL   C16035304   6.904   4.209   0.334 -0.0447  0.2550  0.0499
   93MOL   H16135305   7.500   4.388   0.563 -0.0432  0.0549 -0.5418
   93MOL   H16235306   7.542   4.540   0.501  1.4607  0.1869  0.0681
   93MOL   H16335307   7.302   4.493   0.690 -0.8508  0.6405 -0.5942
   93MOL   H16435308   7.287   4.294   0.486 -0.4319 -1.4858  0.8867
   93MOL   H16535309   7.178   4.346   0.619 -0.4805  1.5115 -0.1002
   93MOL   H16635310   7.136   4.359   0.314 -2.8423 -1.1856 -1.3906
   93MOL   H16735311   7.034   4.447   0.428  1.1828  0.3747 -0.9636
   93MOL   H16835312   7.087   4.144   0.413 -0.2795 -0.1609  1.2881
   93MOL   H16935313   6.971   4.223   0.522 -0.9767  2.5891 -0.7320
   93MOL   H17035314   6.839   4.126   0.361  1.2986 -0.7800  0.1790
   93MOL   H17135315   6.835   4.289   0.359 -1.2818 -1.2436  1.5900
   93MOL   H17235316   6.928   4.232   0.230  1.8223  1.4560  0.7166
   93MOL   C17335317   7.349   4.691   0.602  0.0666  0.4026  0.1167
   93MOL   C17435318   7.213   4.758   0.630 -0.6012  0.3441  0.6509
   93MOL   O17535319   7.184   4.728   0.761 -0.5171 -0.6072 -0.0613
   93MOL   C17635320   7.050   4.747   0.793 -0.7970  0.4160 -0.5295
   93MOL   C17735321   7.045   4.766   0.947 -0.2630 -0.3030 -0.1938
   93MOL   C17835322   7.097   4.642   1.027  0.2485 -0.0613  0.6839
   93MOL   C17935323   7.074   4.675   1.178 -0.1110 -0.1987  0.2178
   93MOL   H18035324   7.374   4.725   0.501 -0.6845  1.2983  0.2290
   93MOL   H18135325   7.419   4.740   0.670 -0.5123 -0.2024  1.1540
   93MOL   H18235326   7.140   4.707   0.567  0.6850  1.3842 -1.7338
   93MOL   H18335327   6.990   4.663   0.758  0.6880 -1.7687  1.8993
   93MOL   H18435328   7.025   4.842   0.747  2.0835  1.5518  0.1476
   93MOL   H18535329   6.941   4.791   0.968 -0.1017 -0.8635  1.2671
   93MOL   H18635330   7.108   4.848   0.980  0.5250 -1.0458  0.1601
   93MOL   H18735331   7.050   4.551   0.989  2.9146 -1.3485  0.2886
   93MOL   H18835332   7.200   4.623   0.994 -0.2011  2.2364 -2.2626
   93MOL   H18935333   6.974   4.647   1.209 -0.7721  1.4533 -0.3503
   93MOL   H19035334   7.146   4.618   1.237  1.3649  1.1470 -0.2398
   93MOL   H19135335   7.089   4.779   1.208 -0.1470 -0.3934  0.9158
   93MOL   C19235336   7.218   4.914   0.601 -0.8666  0.5881  0.3634
   93MOL   C19335337   7.155   4.961   0.470  0.3601  0.1663  0.9188
   93MOL   O19435338   7.015   4.925   0.459 -0.1186 -0.9347  0.3910
   93MOL   C19535339   6.973   4.865   0.332 -0.2407  0.6591 -0.3821
   93MOL   C19635340   6.827   4.878   0.322 -1.1466  0.5786  0.1021
   93MOL   C19735341   6.748   4.775   0.408  0.5596  0.6671 -0.1515
   93MOL   C19835342   6.744   4.627   0.354  0.9453  0.6930 -0.1746
   93MOL   H19935343   7.323   4.943   0.600 -0.5653 -0.4776  0.4143
   93MOL   H20035344   7.183   4.969   0.688 -0.5847  0.3213  0.6448
   93MOL   H20135345   7.207   4.913   0.388  0.0647 -1.6917  1.7981
   93MOL   H20235346   7.000   4.760   0.325 -1.2595  0.4044 -0.5635
   93MOL   H20335347   7.029   4.908   0.249 -0.9422  0.8561 -0.7565
   93MOL   H20435348   6.798   4.983   0.332 -1.5412  0.4181  0.7198
   93MOL   H20535349   6.808   4.857   0.217  3.5680  1.1210 -0.9539
   93MOL   H20635350   6.647   4.813   0.424  0.1097 -1.5898  2.7793
   93MOL   H20735351   6.789   4.774   0.509 -2.6232  1.9713  1.2256
   93MOL   H20835352   6.848   4.599   0.342  0.3992 -1.6203  0.2557
   93MOL   H20935353   6.691   4.558   0.420  0.5483 -0.8041 -2.0148
   93MOL   H21035354   6.706   4.612   0.253  0.8720 -3.2982  0.3662
   93MOL   C21135355   7.159   5.117   0.444  0.0375  0.3266  0.1977
   93MOL   C21235356   7.297   5.182   0.437  0.3148  0.7399 -0.0557
   93MOL   O21335357   7.367   5.138   0.318 -0.3249  0.3531 -0.5526
   93MOL   C21435358   7.485   5.053   0.336 -0.1723 -0.1461  0.2064
   93MOL   C21535359   7.508   4.971   0.209  0.5196  0.3828  0.7797
   93MOL   C21635360   7.622   4.870   0.225  0.5189 -0.5253  0.3098
   93MOL   C21735361   7.754   4.929   0.257 -0.2448 -0.5740 -0.6645
   93MOL   H21835362   7.106   5.154   0.532 -0.7694 -2.3562  0.9014
   93MOL   H21935363   7.093   5.152   0.365  0.8351 -0.3321 -0.7679
   93MOL   H22035364   7.360   5.148   0.520  1.4748 -2.4748 -2.1295
   93MOL   H22135365   7.567   5.121   0.360  0.4246 -0.7428 -0.1184
   93MOL   H22235366   7.473   4.983   0.419 -3.4138  1.6011  1.2973
   93MOL   H22335367   7.418   4.911   0.197  0.2125  0.8346  0.8041
   93MOL   H22435368   7.510   5.050   0.133  2.2636 -1.1656 -0.8361
   93MOL   H22535369   7.621   4.802   0.139 -2.2114  2.4116 -2.1283
   93MOL   H22635370   7.594   4.803   0.306 -2.9671 -2.8223 -2.5876
   93MOL   H22735371   7.783   4.997   0.177 -1.5219  0.4262 -0.2972
   93MOL   H22835372   0.029   4.858   0.288  0.6552  0.7811  0.2856
   93MOL   H22935373   7.742   4.996   0.342  0.4984 -0.5851 -0.5444
   93MOL   C23035374   7.291   5.335   0.414  0.4261 -0.8195  0.4765
   93MOL   C23135375   7.431   5.404   0.414  0.2080 -0.1205 -0.8806
   93MOL   O23235376   7.414   5.519   0.326  0.5200 -0.4687 -0.1702
   93MOL   C23335377   7.441   5.506   0.190  1.0241  0.3783 -0.5329
   93MOL   C23435378   7.410   5.636   0.113 -0.4934 -1.0497  0.5783
   93MOL   C23535379   7.511   5.747   0.134 -0.4953  0.4240  0.2223
   93MOL   C23635380   7.473   5.873   0.064  0.6809 -0.2461 -0.0474
   93MOL   H23735381   7.225   5.365   0.495 -0.4966 -0.8724 -0.2501
   93MOL   H23835382   7.248   5.355   0.316  0.5057 -1.6207  0.2790
   93MOL   H23935383   7.509   5.345   0.365  0.5900 -0.0291 -0.3846
   93MOL   H24035384   7.547   5.491   0.170  1.2688  0.1249  0.8587
   93MOL   H24135385   7.383   5.427   0.144  0.6473  0.5925 -0.4270
   93MOL   H24235386   7.403   5.620   0.005  0.8311  0.2622  0.2805
   93MOL   H24335387   7.314   5.677   0.144  0.3103  0.4384  1.1256
   93MOL   H24435388   7.612   5.714   0.111 -0.9687 -1.4733  0.7111
   93MOL   H24535389   7.523   5.778   0.237 -2.2237  0.1429  0.5294
   93MOL   H24635390   7.533   5.959   0.095  0.8568 -0.6785  0.8322
   93MOL   H24735391   7.377   5.908   0.104 -0.6319 -3.6139 -0.0714
   93MOL   H24835392   7.473   5.861   7.758  0.7992  4.3215 -0.6493
   93MOL   C24935393   7.473   5.460   0.547  0.4290 -0.4493 -0.4109
   93MOL   C25035394   7.600   5.540   0.533  0.3876  0.1491 -1.3348
   93MOL   O25135395   7.704   5.443   0.529  0.3375 -0.3488 -0.0961
   93MOL   C25235396   7.778   5.431   0.408 -0.6056  0.3689  0.2649
   93MOL   C25335397   0.083   5.326   0.434  1.0482  0.5659 -0.0468
   93MOL   C25435398   0.165   5.318   0.311  0.1471  0.3240 -0.2053
   93MOL   C25535399   0.270   5.214   0.315  0.5393 -0.3888  0.1243
   93MOL   H25635400   7.483   5.389   0.629 -0.0601  0.7575  0.7105
   93MOL   H25735401   7.396   5.528   0.582 -1.8006 -2.7290 -0.7613
   93MOL   H25835402   7.603   5.598   0.441  0.1013  1.1939 -0.6933
   93MOL   H25935403   0.019   5.528   0.381  2.7533 -0.5702  1.9210
   93MOL   H26035404   7.726   5.401   0.317  0.2683  1.5846 -0.6446
   93MOL   H26135405   0.145   5.348   0.521  2.1323 -1.2543 -0.3355
   93MOL   H26235406   0.036   5.230   0.457 -1.8689  1.5953 -1.4994
   93MOL   H26335407   0.111   5.292   0.219  0.6186  0.4260 -0.5093
   93MOL   H26435408   0.204   5.419   0.300 -0.3829  0.5548  0.0357
   93MOL   H26535409   0.327   5.218   0.222 -2.8116  2.1005 -1.9209
   93MOL   H26635410   0.234   5.111   0.318  0.4875 -0.4308 -1.5849
   93MOL   H26735411   0.327   5.243   0.403  1.4019 -1.3837 -0.0896
   93MOL   C26835412   7.623   5.630   0.656 -0.3899 -0.0977  0.6719
   93MOL   C26935413   7.586   5.786   0.646  0.3005  0.3151 -1.0611
   93MOL   O27035414   7.640   5.831   0.519 -0.4677 -0.2291  0.2244
   93MOL   C27135415   7.757   5.906   0.539 -0.3353 -0.1760  0.0702
   93MOL   C27235416   7.791   5.966   0.410  0.2999  0.3250  0.6971
   93MOL   C27335417   0.020   5.864   0.300 -0.3465 -1.2536  0.6464
   93MOL   C27435418   0.056   5.924   0.167  0.1468  0.0654 -0.5813
   93MOL   H27535419   7.576   5.575   0.737  1.2094 -2.1081  0.2824
   93MOL   H27635420   7.730   5.617   0.673 -0.4365 -1.5467 -0.0821
   93MOL   H27735421   7.624   5.849   0.727  1.0476 -0.5836 -0.7074
   93MOL   H27835422   7.742   5.986   0.612  0.1682  1.3742 -1.4855
   93MOL   H27935423   0.033   5.837   0.574 -1.5464 -0.4197  2.3233
   93MOL   H28035424   7.702   6.026   0.391 -1.3802 -1.8188  1.5406
   93MOL   H28135425   0.067   6.043   0.415 -1.2603  2.1133 -1.4576
   93MOL   H28235426   7.736   5.803   0.276 -0.1883 -1.3757  0.3949
   93MOL   H28335427   0.087   5.783   0.327  1.0117  0.1012  1.4730
   93MOL   H28435428   0.159   5.959   0.153  0.2159 -0.2020 -0.7498
   93MOL   H28535429   7.799   6.011   0.138 -1.2636 -0.8148 -0.4300
   93MOL   H28635430   0.041   5.858   0.081  1.3615  1.2596 -1.7414
   93MOL   C28735431   7.437   5.814   0.658  0.5673 -0.4404  0.7744
   93MOL   C28835432   7.409   5.966   0.641  0.6574 -0.0478 -0.6229
   93MOL   O28935433   7.421   6.016   0.776  0.0406 -0.1665 -0.4920
   93MOL   C29035434   7.440   6.154   0.783  0.1393 -0.3184  0.3450
   93MOL   C29135435   7.471   6.196   0.921  0.0637  0.6092 -0.3404
   93MOL   C29235436   7.574   6.108   0.994  0.1473  0.1955 -0.1088
   93MOL   C29335437   7.645   6.187   1.103 -0.2960 -0.2650  0.3241
   93MOL   H29435438   7.389   5.794   0.753 -1.6173 -0.1233 -0.2340
   93MOL   H29535439   7.387   5.751   0.585 -2.0710  0.0328  2.1471
   93MOL   H29635440   7.481   6.010   0.573  0.4806  1.1483 -0.0653
   93MOL   H29735441   7.533   6.170   0.728 -0.5871  1.4431 -0.4138
   93MOL   H29835442   7.365   6.215   0.733  1.5270  0.6011 -0.6840
   93MOL   H29935443   7.383   6.182   0.985  1.7727  1.6393  2.2968
   93MOL   H30035444   7.502   6.300   0.914  2.3548 -0.1742 -2.8873
   93MOL   H30135445   7.650   6.079   0.922  0.5450 -0.4873  0.5769
   93MOL   H30235446   7.518   6.024   1.036  0.3920 -0.3745 -0.9309
   93MOL   H30335447   7.716   6.123   1.155 -0.5846  1.7378  3.3161
   93MOL   H30435448   7.688   6.281   1.067 -2.3535  0.6739  0.2674
   93MOL   H30535449   7.578   6.211   1.185  1.1982  1.2473  1.1392
   93MOL   C30635450   7.271   5.997   0.586  0.0835  0.1049 -0.0236
   93MOL   C30735451   7.260   6.021   0.436  0.0110 -0.0808  0.5490
   93MOL   O30835452   7.300   6.151   0.420 -0.2727  0.2608 -0.2138
   93MOL   C30935453   7.383   6.168   0.302 -0.6927  0.4905 -0.2761
   93MOL   C31035454   7.432   6.314   0.300 -0.4819 -0.4523 -0.0194
   93MOL   C31135455   7.549   6.316   0.398 -0.4541 -0.3220  0.3491
   93MOL   C31235456   7.591   6.457   0.420  0.1972  0.4052  0.2070
   93MOL   H31335457   7.198   5.920   0.607 -1.1145  1.2104 -0.0722
   93MOL   H31435458   7.224   6.083   0.634  0.1395 -0.6978  1.4906
   93MOL   H31535459   7.316   5.945   0.382 -0.2553 -0.2091  0.4546
   93MOL   H31635460   7.320   6.157   0.215 -0.4721  1.8056 -0.6155
   93MOL   H31735461   7.463   6.094   0.304 -1.3345 -0.1818  0.8890
   93MOL   H31835462   7.354   6.383   0.333  0.3778 -0.1757  1.4721
   93MOL   H31935463   7.458   6.355   0.202  1.0678  3.3559  1.9144
   93MOL   H32035464   7.518   6.276   0.495  0.9487  0.6102  1.1955
   93MOL   H32135465   7.639   6.267   0.362 -2.4878 -1.6315 -3.2612
   93MOL   H32235466   7.624   6.505   0.328  0.4014  2.4376  1.3102
   93MOL   H32335467   7.679   6.448   0.484 -1.2345 -0.7112  2.0821
   93MOL   H32435468   7.510   6.510   0.472  1.3347  1.8315  0.5712
   93MOL   C32535469   7.116   6.014   0.389 -0.5776 -0.4504 -0.2096
   93MOL   C32635470   7.080   5.884   0.321 -0.1776  0.7080 -0.1173
   93MOL   O32735471   7.055   5.796   0.432 -0.0081  0.2488 -0.1781
   93MOL   C32835472   7.107   5.662   0.425  0.4826  1.0213 -0.5367
   93MOL   C32935473   7.014   5.575   0.511 -0.0226  0.2376 -0.7172
   93MOL   C33035474   7.027   5.600   0.668 -0.6103 -0.8091 -0.2110
   93MOL   C33135475   6.959   5.501   0.758  0.1730  0.4226  0.0152
   93MOL   H33235476   7.098   6.094   0.317  0.8517 -0.7064 -0.8680
   93MOL   H33335477   7.038   6.043   0.460 -2.0277  0.0878 -1.9832
   93MOL   H33435478   7.162   5.845   0.259  0.4259  1.8139 -0.0171
   93MOL   H33535479   7.212   5.668   0.453 -0.0788  1.9998  1.4694
   93MOL   H33635480   7.106   5.619   0.325  3.2352 -1.2418  0.3355
   93MOL   H33735481   6.913   5.592   0.476  0.5086  1.3996 -1.7282
   93MOL   H33835482   7.032   5.468   0.499  2.5772  0.6958 -1.2024
   93MOL   H33935483   7.005   5.705   0.687  0.7076 -1.0201  2.8398
   93MOL   H34035484   7.133   5.595   0.694 -0.6282 -1.0767 -0.1892
   93MOL   H34135485   6.925   5.410   0.709 -0.6037  0.2091  0.9567
   93MOL   H34235486   6.870   5.545   0.803 -0.6659 -0.0091 -1.2026
   93MOL   H34335487   7.015   5.479   0.849 -1.1470  0.1096  0.7614
   93MOL   C34435488   6.959   5.895   0.234  0.1954  0.8664  0.5827
   93MOL   C34535489   6.918   5.784   0.135 -0.1090 -0.3988 -0.4642
   93MOL   O34635490   7.023   5.790   0.037  0.2177  0.4592  0.8586
   93MOL   C34735491   7.075   5.664   7.794 -0.8050  0.3416  0.1005
   93MOL   C34835492   7.169   5.689   7.672 -0.2221  0.3935 -0.7321
   93MOL   C34935493   7.218   5.566   7.589 -0.2926  0.5396 -0.0922
   93MOL   C35035494   7.287   5.612   7.459  0.1239 -0.2130 -0.4705
   93MOL   H35135495   6.886   5.931   0.307 -0.7227 -2.4452  1.3840
   93MOL   H35235496   6.956   5.981   0.167  1.0101  0.9624  0.6710
   93MOL   H35335497   6.917   5.688   0.186  1.4456 -0.8944 -1.3373
   93MOL   H35435498   6.986   5.607   7.766 -0.6985 -0.1132  0.6829
   93MOL   H35535499   7.126   5.606   0.069  1.8971  1.5290 -0.7477
   93MOL   H35635500   7.253   5.748   7.708 -1.4882  0.8925  1.5046
   93MOL   H35735501   7.112   5.750   7.602  0.6564  1.1633 -0.7889
   93MOL   H35835502   7.283   5.501   7.648  0.4994 -0.8109 -2.3828
   93MOL   H35935503   7.135   5.504   7.555 -2.3345  0.8536  3.8867
   93MOL   H36035504   7.320   5.523   7.406 -0.1780 -0.3779 -0.3804
   93MOL   H36135505   7.376   5.674   7.467 -1.2757  2.1027 -2.1478
   93MOL   H36235506   7.221   5.671   7.396  0.7608 -0.9904 -1.8815
   93MOL   C36335507   6.790   5.819   0.061  0.4626 -0.7384  0.2267
   93MOL   C36435508   6.669   5.837   0.153 -0.1778 -0.1512  0.1529
   93MOL   O36535509   6.547   5.813   0.084  0.2701  0.0516 -0.2246
   93MOL   C36635510   6.444   5.764   0.163  0.4197  0.7670 -0.0692
   93MOL   C36735511   6.374   5.882   0.236 -0.0945  0.5658  0.1958
   93MOL   C36835512   6.272   5.832   0.339  0.0970 -0.3200  0.6329
   93MOL   C36935513   6.181   5.953   0.386  0.2665  0.3597 -0.1846
   93MOL   H37035514   6.771   5.730   0.002  0.0972 -0.9445  0.6513
   93MOL   H37135515   6.816   5.908   0.004  2.7825  0.7599  3.4561
   93MOL   H37235516   6.672   5.939   0.191 -0.6838 -0.1351  0.1552
   93MOL   H37335517   6.473   5.684   0.231 -0.7570  0.5175  0.1491
   93MOL   H37435518   6.365   5.713   0.108 -1.4089  1.8234  1.5239
   93MOL   H37535519   6.328   5.950   0.164  0.4114  0.8094  0.0974
   93MOL   H37635520   6.458   5.937   0.279  1.1502 -0.1443 -1.2763
   93MOL   H37735521   6.327   5.792   0.424 -0.5169  2.8355  2.6274
   93MOL   H37835522   6.208   5.754   0.299  0.0540  1.0112 -1.9947
   93MOL   H37935523   6.133   6.005   0.303 -1.4299  0.9077  1.1191
   93MOL   H38035524   6.110   5.920   0.461  1.9370 -2.0317  0.3830
   93MOL   H38135525   6.242   6.030   0.434 -2.0675  0.7713  2.2705
   93MOL   H38235526   6.685   5.764   0.233 -0.1376 -2.3975 -1.8633
   94MOL     C135527   0.001   2.048   0.719 -0.7745  0.6670  0.0452
   94MOL     C235528   0.008   1.901   0.676  0.2349 -0.3017  0.1815
   94MOL     O335529   7.751   1.878   0.551  0.1233 -0.1642  0.3678
   94MOL     C435530   7.614   1.849   0.551  0.8323 -0.0314 -0.6028
   94MOL     C535531   7.600   1.691   0.563 -0.0478 -0.2740 -0.1271
   94MOL     C635532   7.660   1.617   0.441  0.4988  0.2409 -0.7614
   94MOL     C735533   7.674   1.468   0.473 -0.5361  0.3627 -0.8470
   94MOL     H835534   0.050   2.111   0.645 -0.5738 -1.1800 -1.4234
   94MOL     H935535   7.698   2.077   0.723 -1.1188 -0.8622  2.7570
   94MOL    H1035536   7.761   1.839   0.752  1.0077  0.1428  1.0601
   94MOL    H1135537   7.557   1.900   0.629 -1.1914  0.4448 -2.3554
   94MOL    H1235538   7.585   1.891   0.455  1.4158 -0.6991 -1.0730
   94MOL    H1335539   7.496   1.658   0.564  0.1496 -0.8852  1.2828
   94MOL    H1435540   7.647   1.654   0.654  1.4712 -2.9753 -1.9429
   94MOL    H1535541   7.758   1.659   0.416  0.8345  0.1246  0.3369
   94MOL    H1635542   7.589   1.630   0.359 -1.1298  1.7647  0.8380
   94MOL    H1735543   7.736   1.417   0.399  0.3505 -0.7395  0.6461
   94MOL    H1835544   7.575   1.422   0.477 -0.9105  1.2375  0.4156
   94MOL    H1935545   7.725   1.450   0.567 -0.2483  1.9510 -0.6739
   94MOL    H2035546   0.033   2.063   0.822 -1.3163  3.4626 -0.1396
   94MOL    C2135547   0.150   1.850   0.671 -0.0434  0.1869 -0.9508
   94MOL    C2235548   0.163   1.694   0.677  0.2918 -0.0925  0.4814
   94MOL    O2335549   0.291   1.669   0.625 -0.3179 -0.3386  0.0400
   94MOL    C2435550   0.287   1.635   0.487  0.4363 -0.3599  0.8737
   94MOL    C2535551   0.430   1.580   0.464  0.2662 -0.8516 -0.0147
   94MOL    C2635552   0.471   1.547   0.327  0.5420 -0.0484 -0.0513
   94MOL    C2735553   0.613   1.487   0.307  0.6624 -0.8462 -0.1612
   94MOL    H2835554   0.219   1.885   0.748  0.9596 -2.7121 -0.4558
   94MOL    H2935555   0.192   1.893   0.581  0.6461  0.8118 -0.3305
   94MOL    H3035556   0.081   1.657   0.616  1.0405 -0.0324 -0.5667
   94MOL    H3135557   0.263   1.719   0.422  1.5175 -1.7221 -1.3662
   94MOL    H3235558   0.205   1.567   0.462 -0.3077  1.3601 -1.5494
   94MOL    H3335559   0.493   1.661   0.501 -0.2642  0.0630 -1.0786
   94MOL    H3435560   0.440   1.492   0.528  1.0429 -0.9168 -0.2265
   94MOL    H3535561   0.390   1.484   0.288  0.0951 -0.9490  2.2545
   94MOL    H3635562   0.466   1.633   0.260  0.9118 -1.1656 -1.5697
   94MOL    H3735563   0.621   1.382   0.334  1.2440 -0.7381  0.1058
   94MOL    H3835564   0.617   1.492   0.198  1.8918 -1.0061 -0.1316
   94MOL    H3935565   0.691   1.548   0.354 -1.2631  0.1317  1.8267
   94MOL    C4035566   0.149   1.631   0.817 -0.5338  0.0959 -0.2142
   94MOL    C4135567   0.155   1.478   0.799 -0.0354  0.3307 -0.5455
   94MOL    O4235568   0.062   1.426   0.898  0.3142 -0.1283  0.3658
   94MOL    C4335569   7.738   1.380   0.857  0.0686  0.0155 -0.3090
   94MOL    C4435570   7.682   1.290   0.978 -0.0237 -0.2916  0.2190
   94MOL    C4535571   7.746   1.151   0.977 -0.3076  0.4244  0.0697
   94MOL    C4635572   7.702   1.072   1.094  0.1755 -0.0385 -0.1363
   94MOL    H4735573   0.060   1.666   0.869  0.9994  2.3442  1.0050
   94MOL    H4835574   0.229   1.663   0.884 -1.1161  0.2381  0.4191
   94MOL    H4935575   0.126   1.452   0.697  1.6348 -0.9958 -0.6984
   94MOL    H5035576   7.740   1.320   0.766  0.6325  0.1824 -0.4069
   94MOL    H5135577   7.678   1.469   0.838 -1.3446 -0.9523 -0.4309
   94MOL    H5235578   7.577   1.269   0.956 -0.4746  0.8511  1.2047
   94MOL    H5335579   7.691   1.331   1.079 -2.5229 -0.4244  0.5333
   94MOL    H5435580   0.053   1.159   0.979 -0.1664 -1.1890 -0.2913
   94MOL    H5535581   7.728   1.100   0.882 -0.1635  0.8730 -0.2058
   94MOL    H5635582   7.594   1.060   1.105  0.2148  0.1938  0.5244
   94MOL    H5735583   7.742   0.971   1.100  1.4172  0.4182 -0.7132
   94MOL    H5835584   7.742   1.118   1.185 -0.6133 -1.4119  0.9260
   94MOL    C5935585   0.291   1.428   0.829 -0.4288 -0.3388 -0.5188
   94MOL    C6035586   0.313   1.278   0.792 -0.0519 -0.9424 -0.4270
   94MOL    O6135587   0.335   1.282   0.649  0.1069  0.2366 -0.3085
   94MOL    C6235588   0.240   1.208   0.579 -0.3125 -0.1528  0.1567
   94MOL    C6335589   0.255   1.186   0.423 -0.8304  0.6708  0.1817
   94MOL    C6435590   0.347   1.062   0.397  0.2393 -0.2507  1.2444
   94MOL    C6535591   0.402   1.074   0.259  0.0456  0.2108  0.3195
   94MOL    H6635592   0.374   1.488   0.794 -1.9807  0.9225 -2.0999
   94MOL    H6735593   0.300   1.440   0.937 -0.9498  1.2832 -0.6394
   94MOL    H6835594   0.227   1.217   0.821 -1.2030  1.6847  1.9132
   94MOL    H6935595   0.146   1.254   0.607 -1.0424 -1.9122  0.6489
   94MOL    H7035596   0.233   1.111   0.629  0.9495 -1.8788 -2.8751
   94MOL    H7135597   0.158   1.176   0.375 -0.3408  1.7937 -1.0628
   94MOL    H7235598   0.294   1.278   0.379 -2.3412  0.3153 -1.9979
   94MOL    H7335599   0.430   1.060   0.468  0.2192 -0.2706  1.2675
   94MOL    H7435600   0.289   0.970   0.406  0.3033 -0.4772 -0.5876
   94MOL    H7535601   0.321   1.087   0.187 -0.7785 -0.0649  1.1855
   94MOL    H7635602   0.463   1.163   0.246  1.7676 -0.9312  0.4149
   94MOL    H7735603   0.463   0.988   0.232  0.9880  0.6901  0.8844
   94MOL    C7835604   0.436   1.216   0.855  0.1056 -0.2033  1.3490
   94MOL    C7935605   0.440   1.063   0.834  1.0312  0.4416 -0.0777
   94MOL    O8035606   0.343   1.009   0.926  0.1689  0.0873  0.5355
   94MOL    C8135607   0.227   0.938   0.877 -0.0631  0.5610  0.3164
   94MOL    C8235608   0.176   0.838   0.976 -0.2322  0.2833 -0.3269
   94MOL    C8335609   0.065   0.741   0.916  0.4780 -0.2594  0.3865
   94MOL    C8435610   0.001   0.651   1.018 -0.0241  0.2635 -0.8423
   94MOL    H8535611   0.445   1.237   0.962 -1.3188  1.7882  1.1139
   94MOL    H8635612   0.526   1.260   0.811  0.7385 -1.3358  1.5036
   94MOL    H8735613   0.411   1.040   0.731 -0.0339 -2.5873  0.8538
   94MOL    H8835614   0.253   0.870   0.795  0.3015  1.4070 -0.2808
   94MOL    H8935615   0.151   1.007   0.838 -3.0294 -2.9638 -0.4570
   94MOL    H9035616   0.249   0.778   1.030 -2.1198 -0.8527  1.0399
   94MOL    H9135617   0.133   0.896   1.058 -0.3725  1.9526 -1.5478
   94MOL    H9235618   0.105   0.676   0.837 -1.9636 -0.4810 -0.7041
   94MOL    H9335619   7.789   0.801   0.869  1.7788  1.0282 -0.1270
   94MOL    H9435620   7.726   0.599   0.962 -0.2877 -0.3571  0.0850
   94MOL    H9535621   0.061   0.571   1.062 -1.0174 -0.2247 -0.3806
   94MOL    H9635622   7.754   0.719   1.087 -0.1091  0.7213 -1.3455
   94MOL    C9735623   0.578   0.998   0.867 -0.1978  0.3315 -0.2401
   94MOL    C9835624   0.580   0.846   0.841  0.3689 -0.3646  0.0904
   94MOL    O9935625   0.529   0.833   0.705  0.3372  0.3069  0.2481
   94MOL   C10035626   0.469   0.707   0.670 -0.1552  0.1086 -0.4048
   94MOL   C10135627   0.397   0.716   0.536  0.1666 -0.1850 -0.3318
   94MOL   C10235628   0.495   0.735   0.411  0.8379 -0.0149 -0.3108
   94MOL   C10335629   0.431   0.699   0.280  0.1270 -0.3242  0.2708
   94MOL   H10435630   0.617   1.025   0.965  2.7672 -1.6911 -0.8001
   94MOL   H10535631   0.653   1.034   0.797  2.2605  0.1792  2.1947
   94MOL   H10635632   0.498   0.812   0.904 -0.8445  0.0315 -1.2503
   94MOL   H10735633   0.379   0.684   0.727  0.9703  0.2710  1.4825
   94MOL   H10835634   0.533   0.620   0.667 -1.4858 -0.9075  0.0409
   94MOL   H10935635   0.312   0.784   0.535 -0.1978 -0.6445 -0.9377
   94MOL   H11035636   0.347   0.621   0.515  2.6854 -1.6591  0.1294
   94MOL   H11135637   0.583   0.675   0.437  1.7662  1.6925  0.6088
   94MOL   H11235638   0.532   0.836   0.392 -1.0272  1.0651  1.5870
   94MOL   H11335639   0.512   0.705   0.208  1.5929  3.1333  2.0740
   94MOL   H11435640   0.408   0.595   0.257  1.1812 -0.8606  1.5873
   94MOL   H11535641   0.357   0.771   0.244  1.2255  0.4809 -0.4083
   94MOL   C11635642   0.712   0.770   0.862 -0.3313 -0.5000  0.2661
   94MOL   C11735643   0.737   0.696   0.993  1.0342 -0.2683 -0.0705
   94MOL   O11835644   0.640   0.595   0.996 -0.4364 -0.3629  0.0376
   94MOL   C11935645   0.622   0.523   1.119  0.4719 -0.1831  0.3052
   94MOL   C12035646   0.504   0.423   1.102  0.4147  0.1798  0.6966
   94MOL   C12135647   0.527   0.315   0.998 -0.6383  0.4076  0.6219
   94MOL   C12235648   0.412   0.217   1.000 -0.5157 -1.1325  0.5305
   94MOL   H12335649   0.719   0.698   0.780  0.9754  0.6227 -0.6202
   94MOL   H12435650   0.795   0.839   0.850 -0.3920 -0.6847 -1.3101
   94MOL   H12535651   0.737   0.754   1.085  1.1135  0.8534 -0.7620
   94MOL   H12635652   0.607   0.597   1.197  0.4260 -0.3012  0.4077
   94MOL   H12735653   0.715   0.472   1.145 -1.0136 -2.1262  1.9660
   94MOL   H12835654   0.408   0.471   1.087 -0.6469 -1.8713  0.6824
   94MOL   H12935655   0.492   0.371   1.198 -2.0934  0.3820  0.5352
   94MOL   H13035656   0.531   0.361   0.900 -0.8872 -0.0800  0.3793
   94MOL   H13135657   0.619   0.262   1.021 -1.7323 -1.8667 -0.0493
   94MOL   H13235658   0.410   0.140   0.922 -2.3326 -0.1496 -0.4260
   94MOL   H13335659   0.326   0.278   0.975  0.4198  0.4436  1.1329
   94MOL   H13435660   0.395   0.171   1.097  0.6602 -2.2372  0.2322
   94MOL   C13535661   0.886   0.637   0.993  1.3125  0.1773  0.5167
   94MOL   C13635662   0.993   0.724   1.047 -0.6642 -1.1412 -0.0252
   94MOL   O13735663   0.967   0.734   1.184  0.2322  0.0494 -0.1003
   94MOL   C13835664   0.969   0.871   1.224  0.1677  1.0467  0.1586
   94MOL   C13935665   0.964   0.874   1.372 -0.0118  0.5949 -0.2658
   94MOL   C14035666   0.955   1.022   1.425 -0.2678  0.3923 -0.4818
   94MOL   C14135667   0.949   1.036   1.578 -0.0323 -0.8405  0.8223
   94MOL   H14235668   0.921   0.604   0.895  0.9047 -1.7908  1.0053
   94MOL   H14335669   0.894   0.544   1.049  0.0184 -0.5729 -0.5200
   94MOL   H14435670   0.990   0.820   0.995  1.1561 -0.4881  1.0322
   94MOL   H14535671   0.887   0.920   1.172 -0.4063 -0.9514 -0.8613
   94MOL   H14635672   1.057   0.931   1.199  0.5683  0.2574 -0.3431
   94MOL   H14735673   1.055   0.828   1.408  0.0581  0.4624 -0.6119
   94MOL   H14835674   0.882   0.811   1.407  0.6573  0.2990  0.7884
   94MOL   H14935675   1.053   1.066   1.404 -1.3564  2.6583 -1.0190
   94MOL   H15035676   0.874   1.085   1.390  0.0353  2.6279  2.5547
   94MOL   H15135677   0.846   1.014   1.608  0.1979 -0.6742  1.7567
   94MOL   H15235678   1.018   0.968   1.628  0.9272  0.0829  0.7635
   94MOL   H15335679   0.971   1.136   1.615 -2.7271 -0.2871  1.0487
   94MOL   C15435680   1.128   0.654   1.018  0.7631 -0.2766  0.1780
   94MOL   C15535681   1.257   0.725   1.085 -0.0957  0.2996 -0.1114
   94MOL   O15635682   1.368   0.682   1.011 -0.0367 -0.6428  0.4108
   94MOL   C15735683   1.439   0.790   0.947  0.2771 -0.3180 -0.0609
   94MOL   C15835684   1.556   0.727   0.885  0.3922  0.0564  0.0533
   94MOL   C15935685   1.627   0.835   0.805 -0.9481  0.5149  0.2906
   94MOL   C16035686   1.726   0.777   0.709 -0.6744  0.1122  0.5097
   94MOL   H16135687   1.146   0.658   0.910 -0.0559  1.7000  0.1038
   94MOL   H16235688   1.125   0.549   1.046  3.7668 -0.7057 -0.9301
   94MOL   H16335689   1.233   0.831   1.079  0.3820  0.3216 -1.8219
   94MOL   H16435690   1.369   0.835   0.878  1.8967 -1.4396 -2.5381
   94MOL   H16535691   1.469   0.868   1.017 -1.9436 -0.6049  1.2243
   94MOL   H16635692   1.514   0.653   0.816  0.9724 -0.5435  0.3413
   94MOL   H16735693   1.623   0.673   0.952 -1.2759  0.8239  2.3915
   94MOL   H16835694   1.546   0.891   0.758 -2.7194 -1.7966  0.4924
   94MOL   H16935695   1.675   0.906   0.872  1.9348 -1.5701  0.5407
   94MOL   H17035696   1.794   0.708   0.759 -0.3289 -0.4081 -0.6440
   94MOL   H17135697   1.678   0.723   0.627 -0.6995 -0.1710  0.7106
   94MOL   H17235698   1.786   0.857   0.666 -0.4262  0.7147  1.9634
   94MOL   C17335699   1.278   0.691   1.235 -0.3463  0.0196  0.4322
   94MOL   C17435700   1.387   0.777   1.303  0.7408  0.1243  0.8312
   94MOL   O17535701   1.332   0.906   1.309  0.5084  0.1104  0.0523
   94MOL   C17635702   1.432   1.003   1.310  0.1398 -0.4415  0.5315
   94MOL   C17735703   1.385   1.111   1.213 -0.2433 -0.2408 -0.3736
   94MOL   C17835704   1.465   1.245   1.226  0.2683  0.2919 -0.8339
   94MOL   C17935705   1.383   1.359   1.162 -0.6223  0.0814  0.6072
   94MOL   H18035706   1.320   0.592   1.225  0.9855  0.6844 -0.6588
   94MOL   H18135707   1.179   0.681   1.280 -0.6736  0.7456 -0.1240
   94MOL   H18235708   1.472   0.775   1.236  0.4135  1.1042  0.3901
   94MOL   H18335709   1.533   0.963   1.297  0.7819  1.2327  0.2253
   94MOL   H18435710   1.438   1.037   1.413  0.0246 -1.2105  0.7903
   94MOL   H18535711   1.279   1.127   1.233 -0.4217 -0.7470 -0.9171
   94MOL   H18635712   1.379   1.088   1.107 -0.5427 -0.6383 -0.2700
   94MOL   H18735713   1.499   1.275   1.326  1.0936 -1.1519 -0.6634
   94MOL   H18835714   1.564   1.226   1.183  0.6661 -1.7619  0.8783
   94MOL   H18935715   1.444   1.448   1.143  0.2412 -0.6647 -0.1591
   94MOL   H19035716   1.341   1.329   1.066 -0.0518  1.8319 -0.2213
   94MOL   H19135717   1.297   1.388   1.221 -2.7009 -3.2203 -0.6708
   94MOL   C19235718   1.418   0.735   1.441 -0.7906  0.4663 -0.3233
   94MOL   C19335719   1.471   0.588   1.455  0.2754 -1.1360  0.1286
   94MOL   O19435720   1.585   0.560   1.369  0.6893  0.7996 -0.2587
   94MOL   C19535721   1.593   0.429   1.313 -0.6872  0.3025  0.7246
   94MOL   C19635722   1.735   0.413   1.273  0.7452 -0.2869 -0.2508
   94MOL   C19735723   1.777   0.489   1.155  0.1311 -0.0658  1.2444
   94MOL   C19835724   1.933   0.503   1.147  0.2391 -0.1424  0.6150
   94MOL   H19935725   1.325   0.744   1.497 -1.5200 -0.4113 -1.3543
   94MOL   H20035726   1.494   0.797   1.487 -0.5732  0.4960 -0.7191
   94MOL   H20135727   1.386   0.524   1.430 -1.2395 -0.2254  2.7494
   94MOL   H20235728   1.547   0.423   1.214 -0.2651 -0.4087  0.5697
   94MOL   H20335729   1.551   0.350   1.375 -0.1058 -0.4822  0.1358
   94MOL   H20435730   1.795   0.440   1.360  1.4705  2.2046 -1.4951
   94MOL   H20535731   1.742   0.305   1.256  1.9276 -0.3776  0.7273
   94MOL   H20635732   1.735   0.589   1.147  1.0864  0.5035  3.0749
   94MOL   H20735733   1.747   0.437   1.064  0.5379  0.4885  0.7919
   94MOL   H20835734   1.973   0.557   1.061  0.3222 -0.7273  0.2820
   94MOL   H20935735   1.971   0.558   1.233 -1.8492 -0.0788  1.5110
   94MOL   H21035736   1.982   0.406   1.139 -2.7819 -1.4305 -3.8001
   94MOL   C21135737   1.503   0.541   1.595 -0.4283 -0.1485  0.4796
   94MOL   C21235738   1.640   0.575   1.659 -0.3836  0.2503 -0.3020
   94MOL   O21335739   1.643   0.717   1.689  0.2039  0.4545 -0.5205
   94MOL   C21435740   1.762   0.792   1.673 -1.0138 -0.0643 -0.5567
   94MOL   C21535741   1.761   0.829   1.521 -0.0976 -0.3475  0.4007
   94MOL   C21635742   1.903   0.866   1.469 -0.0892  0.1874  0.0294
   94MOL   C21735743   1.901   0.879   1.319  0.1300  0.2895 -0.4511
   94MOL   H21835744   1.488   0.433   1.594 -0.0444 -0.2026  0.0314
   94MOL   H21935745   1.421   0.581   1.653 -2.5864 -2.5426 -0.8154
   94MOL   H22035746   1.722   0.545   1.594 -0.9854  0.4636 -1.1619
   94MOL   H22135747   1.766   0.875   1.743 -0.1280  1.1936 -2.0531
   94MOL   H22235748   1.843   0.721   1.693 -0.8543  0.7769  1.8495
   94MOL   H22335749   1.730   0.741   1.465 -2.1911  0.6723 -0.0792
   94MOL   H22435750   1.691   0.908   1.496 -0.1430 -0.4768  0.1059
   94MOL   H22535751   1.980   0.794   1.496  0.2065  0.2532 -0.6259
   94MOL   H22635752   1.935   0.958   1.517 -3.8775  2.4768 -1.5913
   94MOL   H22735753   1.995   0.905   1.271  0.7079 -1.0721 -0.1020
   94MOL   H22835754   1.831   0.959   1.295  2.7767  2.4109 -1.3357
   94MOL   H22935755   1.847   0.796   1.272 -2.7828  2.3618 -0.8775
   94MOL   C23035756   1.657   0.507   1.799  0.0546  0.7181  0.8399
   94MOL   C23135757   1.652   0.344   1.797 -0.1393  0.3975  0.0633
   94MOL   O23235758   1.768   0.308   1.724  0.0115  0.5778 -0.5858
   94MOL   C23335759   1.762   0.174   1.671  0.2952  0.3237 -0.0977
   94MOL   C23435760   1.866   0.165   1.555 -0.2821  0.1245 -0.2148
   94MOL   C23535761   1.864   0.033   1.479  0.7151 -0.1829 -0.4308
   94MOL   C23635762   1.964   0.044   1.371 -0.0842 -0.2318  0.1021
   94MOL   H23735763   1.572   0.543   1.857 -1.2045 -0.2063 -0.3822
   94MOL   H23835764   1.745   0.537   1.855  0.6345  1.7807 -0.5939
   94MOL   H23935765   1.562   0.314   1.743 -2.0743  2.9744  1.7327
   94MOL   H24035766   1.778   0.102   1.751 -0.6165  0.5859  0.3286
   94MOL   H24135767   1.665   0.144   1.630  0.9594 -2.4003  0.2090
   94MOL   H24235768   1.850   0.244   1.482  2.5821 -1.9985 -3.3213
   94MOL   H24335769   1.967   0.183   1.594 -0.6409 -2.4056  2.0479
   94MOL   H24435770   1.767   0.006   1.438  1.3494 -0.7481 -1.5824
   94MOL   H24535771   1.895   7.758   1.550  1.6200  0.6890  0.1447
   94MOL   H24635772   1.985   7.750   1.324 -4.5583 -0.0723 -2.5494
   94MOL   H24735773   2.061   0.087   1.398 -0.5399  0.0691  1.3058
   94MOL   H24835774   1.909   0.101   1.296 -1.9670 -1.8010  0.2562
   94MOL   C24935775   1.639   0.276   1.938 -0.0561  0.3020  0.6587
   94MOL   C25035776   1.524   0.315   2.028  0.2076 -0.4406  0.1259
   94MOL   O25135777   1.522   0.237   2.149  0.6457  0.1869 -0.6559
   94MOL   C25235778   1.637   0.263   2.237 -0.2002  0.3686  0.1923
   94MOL   C25335779   1.594   0.231   2.386 -0.3022 -0.2796  0.4689
   94MOL   C25435780   1.700   0.266   2.494  0.6004  0.1960 -0.8345
   94MOL   C25535781   1.649   0.222   2.636  0.4721 -0.3867 -0.9829
   94MOL   H25635782   1.736   0.276   1.988  0.2263  1.2681  0.1232
   94MOL   H25735783   1.632   0.169   1.921  0.7183  0.1147  1.4383
   94MOL   H25835784   1.527   0.421   2.054 -0.5008 -0.0980 -1.1208
   94MOL   H25935785   1.659   0.369   2.231 -1.6314  0.6019 -1.2543
   94MOL   H26035786   1.719   0.195   2.216  1.8008  2.6907  0.2587
   94MOL   H26135787   1.501   0.287   2.398  1.0225  1.7259  1.5410
   94MOL   H26235788   1.564   0.126   2.390  0.2844 -0.4271  0.9291
   94MOL   H26335789   1.793   0.218   2.467  0.7574  0.1403 -0.2032
   94MOL   H26435790   1.715   0.374   2.498  0.5433  0.1649  0.4136
   94MOL   H26535791   1.564   0.277   2.677  0.5122 -1.2317  0.2410
   94MOL   H26635792   1.728   0.228   2.710 -0.8183 -1.5477  0.5274
   94MOL   H26735793   1.607   0.122   2.640 -0.6692  0.1460  1.6392
   94MOL   C26835794   1.389   0.294   1.961  0.2023  0.1962 -0.0210
   94MOL   C26935795   1.269   0.349   2.043 -0.2029 -0.2761  0.8457
   94MOL   O27035796   1.174   0.385   1.943 -0.4629  0.3475  0.9407
   94MOL   C27135797   1.159   0.517   1.906  0.0736 -0.4476  0.1519
   94MOL   C27235798   1.054   0.521   1.788 -0.1454 -0.2077 -0.3934
   94MOL   C27335799   1.106   0.464   1.659 -0.7362  0.7547  0.6898
   94MOL   C27435800   1.068   0.529   1.530 -0.5170  0.3152 -0.3217
   94MOL   H27535801   1.395   0.363   1.876  0.2266  1.4542  0.9776
   94MOL   H27635802   1.383   0.197   1.912  0.1166  0.1557  0.0691
   94MOL   H27735803   1.295   0.440   2.097  1.2289 -0.4825  0.5204
   94MOL   H27835804   1.131   0.563   2.000 -2.3481 -1.9053  0.2029
   94MOL   H27935805   1.255   0.557   1.874 -1.3217  2.2428 -0.8336
   94MOL   H28035806   0.952   0.494   1.815  0.1529  0.1990  1.1846
   94MOL   H28135807   1.036   0.624   1.757 -2.1846 -0.5871 -0.5172
   94MOL   H28235808   1.070   0.361   1.653  1.1667  0.1139 -0.0805
   94MOL   H28335809   1.214   0.451   1.668 -0.8044  0.4701  1.1034
   94MOL   H28435810   1.114   0.626   1.513  0.7000 -0.2063 -0.0731
   94MOL   H28535811   0.960   0.536   1.541 -0.5165 -1.2324  0.8432
   94MOL   H28635812   1.093   0.467   1.443  1.5672  0.9563 -0.2213
   94MOL   C28735813   1.198   0.250   2.149 -0.1025  0.4143 -0.1040
   94MOL   C28835814   1.082   0.303   2.220 -0.4302 -0.6730 -1.0126
   94MOL   O28935815   1.091   0.289   2.367 -0.3622  0.6164 -0.6956
   94MOL   C29035816   1.158   0.392   2.431 -0.6595 -0.7951 -0.8647
   94MOL   C29135817   1.167   0.355   2.584 -0.2844  0.3062  0.6586
   94MOL   C29235818   1.235   0.225   2.614  0.5113 -0.5949  0.0039
   94MOL   C29335819   1.221   0.157   2.753  0.7972 -0.5471 -0.0159
   94MOL   H29435820   1.281   0.218   2.213  1.1088 -0.0619 -1.8743
   94MOL   H29535821   1.169   0.158   2.097 -0.5362 -0.4835  1.6627
   94MOL   H29635822   1.076   0.407   2.187  1.2678 -0.9121 -2.1016
   94MOL   H29735823   1.260   0.413   2.399 -0.8876  0.2771 -0.8742
   94MOL   H29835824   1.098   0.483   2.433 -1.6154 -1.4041 -1.6864
   94MOL   H29935825   1.068   0.339   2.627 -0.0452 -2.0304  0.4365
   94MOL   H30035826   1.222   0.427   2.645  0.9685  0.7607 -0.9627
   94MOL   H30135827   1.341   0.233   2.588  1.3006 -3.2254  2.1203
   94MOL   H30235828   1.201   0.152   2.540 -0.4921 -0.1234  0.0004
   94MOL   H30335829   1.265   0.229   2.822 -1.0302 -1.7696  2.5222
   94MOL   H30435830   1.114   0.138   2.766  0.9679 -1.4271  0.1341
   94MOL   H30535831   1.274   0.063   2.750  0.4811 -0.7517  0.7138
   94MOL   C30635832   0.945   0.254   2.188 -0.0938  0.5857  0.2835
   94MOL   C30735833   0.821   0.332   2.238  0.5538 -0.2123  0.3411
   94MOL   O30835834   0.704   0.252   2.208  0.1299 -0.3687 -0.1974
   94MOL   C30935835   0.673   0.147   2.297 -0.3035 -0.0503  0.3602
   94MOL   C31035836   0.593   0.041   2.215 -0.1849 -0.1779 -0.0756
   94MOL   C31135837   0.448   0.084   2.181 -0.3799  0.0750 -0.8951
   94MOL   C31235838   0.399   0.035   2.045 -0.5410 -1.4925 -0.0327
   94MOL   H31335839   0.950   0.247   2.080  1.1146  1.0273  0.2988
   94MOL   H31435840   0.935   0.153   2.227  0.1268  0.3180 -0.3498
   94MOL   H31535841   0.824   0.342   2.347 -2.9444  0.1418  0.4648
   94MOL   H31635842   0.613   0.192   2.375  0.5233  0.4196  0.7263
   94MOL   H31735843   0.761   0.102   2.343  1.4268 -0.9470 -3.6224
   94MOL   H31835844   0.585   7.751   2.273  0.8138  0.2662  0.7826
   94MOL   H31935845   0.648   0.007   2.128 -0.5193 -0.2728 -0.2489
   94MOL   H32035846   0.379   0.062   2.261 -0.7049 -1.0822 -1.4734
   94MOL   H32135847   0.452   0.191   2.164 -0.8530 -0.4259 -4.6313
   94MOL   H32235848   0.403   7.728   2.046 -0.8181 -1.5005  1.2655
   94MOL   H32335849   0.452   0.077   1.960 -1.5836 -0.3567 -0.1415
   94MOL   H32435850   0.293   0.060   2.037 -0.0754  0.2382 -1.1294
   94MOL   C32535851   0.800   0.466   2.172 -0.2532  0.7625  0.2867
   94MOL   C32635852   0.673   0.549   2.207 -0.3332  0.4194  0.3372
   94MOL   O32735853   0.691   0.650   2.302  0.2535 -0.0164 -0.1637
   94MOL   C32835854   0.718   0.600   2.440  0.4203 -0.6099 -0.0600
   94MOL   C32935855   0.709   0.716   2.539 -0.1417  0.2397  0.4866
   94MOL   C33035856   0.567   0.766   2.556 -1.6220  0.7013  0.1976
   94MOL   C33135857   0.468   0.675   2.631 -0.2727 -0.1708  0.3256
   94MOL   H33235858   0.815   0.443   2.067  1.3505 -1.9037  1.0512
   94MOL   H33335859   0.877   0.540   2.191  0.2745  0.1489  0.5629
   94MOL   H33435860   0.597   0.487   2.254  0.7897 -1.7800 -0.6579
   94MOL   H33535861   0.817   0.555   2.452  1.0476  1.2827  2.3508
   94MOL   H33635862   0.638   0.531   2.469  1.4708 -1.7297  0.2102
   94MOL   H33735863   0.742   0.682   2.637 -1.7702 -0.0778  0.9344
   94MOL   H33835864   0.766   0.803   2.507 -1.3910  2.1073  3.1440
   94MOL   H33935865   0.526   0.802   2.462  1.6184 -1.3119 -2.0852
   94MOL   H34035866   0.571   0.864   2.603 -0.7774  0.8977 -0.2794
   94MOL   H34135867   0.470   0.576   2.585  1.1987  0.4418 -1.0054
   94MOL   H34235868   0.365   0.709   2.637 -0.5279 -0.6731 -0.9700
   94MOL   H34335869   0.495   0.658   2.735 -2.1870 -1.5475  0.6238
   94MOL   C34435870   0.615   0.610   2.082  0.0776  0.5358  0.8753
   94MOL   C34535871   0.492   0.721   2.096 -0.7378  0.5679  0.0175
   94MOL   O34635872   0.368   0.656   2.115 -0.1834  0.4241 -0.2288
   94MOL   C34735873   0.302   0.725   2.221  0.3934 -0.0468 -0.1853
   94MOL   C34835874   0.181   0.646   2.264  0.2129 -0.0648 -0.2132
   94MOL   C34935875   0.217   0.510   2.324  0.3225  0.2145  0.2731
   94MOL   C35035876   0.102   0.427   2.388  0.8221  0.0831  0.5930
   94MOL   H35135877   0.690   0.660   2.021 -0.2815  0.5159  0.4092
   94MOL   H35235878   0.568   0.528   2.027 -0.4022  1.0784  0.4714
   94MOL   H35335879   0.524   0.801   2.164 -1.6014  0.6856  0.2983
   94MOL   H35435880   0.269   0.824   2.189 -3.5756 -0.7419  1.4617
   94MOL   H35535881   0.356   0.731   2.316 -0.7272  1.5296  0.3853
   94MOL   H35635882   0.111   0.629   2.182  0.3487 -1.2397 -0.0926
   94MOL   H35735883   0.138   0.714   2.338 -2.9927 -1.1636 -0.9622
   94MOL   H35835884   0.282   0.456   2.256 -2.3526 -1.4911 -1.0302
   94MOL   H35935885   0.287   0.534   2.404  0.3636 -1.5184  0.7773
   94MOL   H36035886   0.045   0.491   2.456 -1.3443  2.0052 -2.8614
   94MOL   H36135887   0.145   0.346   2.446  0.0158 -1.1653 -0.5234
   94MOL   H36235888   0.028   0.386   2.320  1.2241  1.3804 -0.6498
   94MOL   C36335889   0.492   0.807   1.965  0.3174 -1.6310  0.3890
   94MOL   C36435890   0.459   0.730   1.835 -0.4289  0.9746  0.6727
   94MOL   O36535891   0.441   0.824   1.725 -0.0808  0.3605  0.9186
   94MOL   C36635892   0.567   0.880   1.684 -0.0455  0.0430  0.0412
   94MOL   C36735893   0.544   0.952   1.547  0.1497  0.6411 -0.1480
   94MOL   C36835894   0.556   0.851   1.437  0.0099  0.2686  0.9303
   94MOL   C36935895   0.523   0.898   1.294  0.4364 -0.0241 -0.8508
   94MOL   H37035896   0.586   0.861   1.956 -0.8902  0.6160  0.7857
   94MOL   H37135897   0.417   0.886   1.974  2.3199  0.4519 -0.7519
   94MOL   H37235898   0.362   0.685   1.855 -1.0488  0.9643 -2.1611
   94MOL   H37335899   0.636   0.797   1.669 -1.8648 -1.1774 -1.9689
   94MOL   H37435900   0.606   0.949   1.758 -1.5500 -0.0783  0.9644
   94MOL   H37535901   0.607   1.040   1.532  0.4112  0.1901 -1.8234
   94MOL   H37635902   0.448   1.004   1.546 -0.8364 -1.1348 -1.7585
   94MOL   H37735903   0.490   0.768   1.462  1.8004 -1.0506  1.3737
   94MOL   H37835904   0.649   0.794   1.438 -1.1495 -1.8345 -2.3406
   94MOL   H37935905   0.418   0.927   1.298  0.6940  0.9820 -1.1634
   94MOL   H38035906   0.595   0.974   1.264  1.6857  0.4709  3.0906
   94MOL   H38135907   0.530   0.821   1.218 -1.5525 -0.3520 -0.7106
   94MOL   H38235908   0.536   0.654   1.821 -0.4687  0.6705  2.0328
   95MOL     C135909   6.173   7.037   3.994 -0.0599  0.4462  0.5986
   95MOL     C235910   6.301   7.027   3.905  0.6757 -0.3742  0.3490
   95MOL     O335911   6.336   7.149   3.841  0.6789  0.6555  0.0183
   95MOL     C435912   6.262   7.184   3.726 -0.2226 -0.3355  0.1005
   95MOL     C535913   6.296   7.330   3.692  0.0344 -1.0684  0.2211
   95MOL     C635914   6.420   7.337   3.608  0.2576 -0.0754  0.4184
   95MOL     C735915   6.440   7.484   3.559  0.7733 -0.0909 -0.0424
   95MOL     H835916   6.169   7.135   4.043  0.8763  1.0851 -0.5757
   95MOL     H935917   6.085   7.040   3.931  0.3186  2.2697  0.1265
   95MOL    H1035918   6.282   6.945   3.835  2.1024  0.3276 -0.8907
   95MOL    H1135919   6.283   7.116   3.644  1.9373 -1.5763  1.6388
   95MOL    H1235920   6.156   7.159   3.742  0.2901 -1.5877  1.7420
   95MOL    H1335921   6.317   7.386   3.783  1.3789  0.0820 -0.7822
   95MOL    H1435922   6.220   7.370   3.625  0.8119 -0.1036 -0.1018
   95MOL    H1535923   6.413   7.276   3.517 -0.5091 -0.6303  0.8458
   95MOL    H1635924   6.503   7.299   3.668 -0.2165 -0.4737  0.8250
   95MOL    H1735925   6.457   7.549   3.646  0.3853 -1.2304  0.9041
   95MOL    H1835926   6.341   7.509   3.521  0.3386 -2.5974 -0.5978
   95MOL    H1935927   6.525   7.487   3.492  0.4383  0.1575 -0.4600
   95MOL    H2035928   6.161   6.961   4.071  1.5695 -0.7951 -0.3385
   95MOL    C2135929   6.418   6.989   3.993  0.3782 -0.4451 -0.5460
   95MOL    C2235930   6.557   6.977   3.922  0.2458 -0.8092  0.4584
   95MOL    O2335931   6.669   6.980   4.005  0.4367  0.2177  0.2630
   95MOL    C2435932   6.699   7.099   4.070  0.5041  0.4341  0.7218
   95MOL    C2535933   6.849   7.088   4.112 -0.4923  0.0130  0.6897
   95MOL    C2635934   6.907   7.193   4.206  0.1255 -0.4386  0.3779
   95MOL    C2735935   7.053   7.165   4.220  0.2528 -0.1584  1.1138
   95MOL    H2835936   6.396   6.896   4.045 -1.2133  1.0296  1.4898
   95MOL    H2935937   6.419   7.059   4.076  0.6732 -1.0983  0.0068
   95MOL    H3035938   6.564   7.063   3.856  0.8858  0.3480  1.9893
   95MOL    H3135939   6.628   7.117   4.151  1.0037 -1.2466  1.5566
   95MOL    H3235940   6.693   7.177   3.994 -0.6068  1.3820  1.7416
   95MOL    H3335941   6.864   6.989   4.154  1.9356 -0.1485 -0.5214
   95MOL    H3435942   6.907   7.081   4.021 -2.0366  2.9293 -0.5855
   95MOL    H3535943   6.888   7.293   4.167  0.8382 -0.2378  0.5373
   95MOL    H3635944   6.859   7.186   4.303  3.7574  0.8161  2.3629
   95MOL    H3735945   7.057   7.083   4.292 -1.6290 -0.8193  0.4850
   95MOL    H3835946   7.095   7.147   4.121  1.3176  0.2534  1.4781
   95MOL    H3935947   7.114   7.244   4.266  0.6093  0.5235 -0.4930
   95MOL    C4035948   6.563   6.858   3.829  0.0530 -0.3878 -0.3395
   95MOL    C4135949   6.663   6.864   3.710  0.2448 -0.4103  0.2991
   95MOL    O4235950   6.617   6.793   3.604 -0.0727  0.0395  0.0145
   95MOL    C4335951   6.528   6.874   3.520  0.3473  0.8361  0.2722
   95MOL    C4435952   6.467   6.774   3.418  0.6649 -0.6741  0.4167
   95MOL    C4535953   6.397   6.660   3.487 -0.2004 -0.1984 -0.1996
   95MOL    C4635954   6.333   6.556   3.396  0.1382 -0.4324  0.7957
   95MOL    H4735955   6.470   6.817   3.788 -1.4305  1.6357  0.9394
   95MOL    H4835956   6.588   6.774   3.894 -2.3746 -1.3256 -0.5386
   95MOL    H4935957   6.665   6.968   3.676 -0.6593 -0.6912 -0.6144
   95MOL    H5035958   6.584   6.957   3.479 -0.2813  1.6985  1.1272
   95MOL    H5135959   6.452   6.909   3.591  1.3415 -0.5421  2.0801
   95MOL    H5235960   6.539   6.712   3.364 -0.9631 -0.4315 -2.1041
   95MOL    H5335961   6.415   6.812   3.330 -1.3689 -1.7765  1.1145
   95MOL    H5435962   6.319   6.713   3.541 -0.3830  1.7675 -2.3442
   95MOL    H5535963   6.462   6.612   3.560  1.0963 -0.3315 -1.4218
   95MOL    H5635964   6.268   6.612   3.328 -0.7661 -1.7948  0.5387
   95MOL    H5735965   6.409   6.496   3.346 -1.8974 -1.8937 -0.5777
   95MOL    H5835966   6.267   6.483   3.441  0.3933 -1.1939 -0.0447
   95MOL    C5935967   6.801   6.809   3.737 -0.2585  0.6033 -0.0052
   95MOL    C6035968   6.910   6.850   3.640  0.0855 -0.5448  0.3732
   95MOL    O6135969   6.956   6.974   3.685 -0.3944  0.7499  0.4437
   95MOL    C6235970   6.931   7.080   3.602 -0.4424 -0.9732  0.1198
   95MOL    C6335971   7.041   7.184   3.637  0.4646 -1.1419 -0.4705
   95MOL    C6435972   7.043   7.235   3.787 -0.1886 -0.1043 -0.6537
   95MOL    C6535973   7.160   7.330   3.811 -0.0186  0.1914 -0.4904
   95MOL    H6635974   6.845   6.842   3.831 -1.0040  0.2492  0.4774
   95MOL    H6735975   6.777   6.703   3.736  0.2168  0.5048 -0.5143
   95MOL    H6835976   6.865   6.859   3.541  0.0441 -0.0405  0.4374
   95MOL    H6935977   6.832   7.120   3.625  0.9071  1.0717  2.6574
   95MOL    H7035978   6.944   7.053   3.497 -0.2422  0.8359 -0.3542
   95MOL    H7135979   7.142   7.147   3.624  1.4859  0.0601  3.3237
   95MOL    H7235980   7.033   7.272   3.574 -1.8164 -1.2101 -0.3313
   95MOL    H7335981   6.946   7.265   3.827  1.0379  2.8034  0.2507
   95MOL    H7435982   7.068   7.145   3.844 -1.3998 -0.3175 -0.4403
   95MOL    H7535983   7.261   7.295   3.790  0.6108  0.7089  1.6403
   95MOL    H7635984   7.143   7.414   3.744  0.8033 -0.2174 -1.2198
   95MOL    H7735985   7.144   7.358   3.915 -3.5005 -4.3515  0.3803
   95MOL    C7835986   7.027   6.746   3.639  0.0315 -0.1342  0.2421
   95MOL    C7935987   7.144   6.792   3.560 -0.1803 -0.7041 -0.1040
   95MOL    O8035988   7.100   6.754   3.426 -0.4457 -0.1578 -0.1441
   95MOL    C8135989   7.157   6.836   3.322  0.0619  0.0598  0.0778
   95MOL    C8235990   7.095   6.781   3.191 -0.2666 -0.6040  0.0895
   95MOL    C8335991   7.181   6.798   3.070 -0.4826 -0.0767 -0.3811
   95MOL    C8435992   7.117   6.712   2.960 -0.6926 -0.3390 -0.4032
   95MOL    H8535993   6.993   6.646   3.611  0.8984 -0.5893  0.8038
   95MOL    H8635994   7.061   6.732   3.741  0.7952  1.2404  0.1902
   95MOL    H8735995   7.159   6.900   3.572 -1.2403 -0.6552  0.9240
   95MOL    H8835996   7.264   6.828   3.304  0.0581 -0.0223  0.0882
   95MOL    H8935997   7.137   6.942   3.337  2.8542  0.6915 -0.4442
   95MOL    H9035998   7.068   6.677   3.205 -1.2239 -0.6093 -1.6811
   95MOL    H9135999   6.999   6.829   3.171  0.5035 -0.0005 -2.3290
   95MOL    H9236000   7.279   6.755   3.088  0.0772  1.5314  0.4752
   95MOL    H9336001   7.188   6.898   3.028 -1.7352  0.3792  0.4594
   95MOL    H9436002   7.157   6.735   2.862 -0.7878  1.6280  0.0006
   95MOL    H9536003   7.125   6.608   2.991  0.1064  0.1971  1.2963
   95MOL    H9636004   7.011   6.735   2.958 -0.7138 -0.5219 -1.9503
   95MOL    C9736005   7.278   6.729   3.590  0.9713 -0.5416  0.2799
   95MOL    C9836006   7.373   6.804   3.687 -0.0279  0.3788  0.3531
   95MOL    O9936007   7.310   6.791   3.813 -0.0292  0.2777 -0.1126
   95MOL   C10036008   7.311   6.917   3.886  0.3404  0.1118 -0.7118
   95MOL   C10136009   7.302   6.867   4.026  0.0798 -0.0235 -0.1809
   95MOL   C10236010   7.180   6.784   4.057 -0.3892 -0.3267  0.1739
   95MOL   C10336011   7.180   6.738   4.205 -0.1354 -0.1287  0.3326
   95MOL   H10436012   7.327   6.736   3.494 -0.0074 -0.9399 -0.2560
   95MOL   H10536013   7.281   6.626   3.626  0.8529 -0.0548  1.7164
   95MOL   H10636014   7.381   6.908   3.655  0.8511 -0.0275 -0.8184
   95MOL   H10736015   7.222   6.971   3.852  1.1509  1.2298 -1.0688
   95MOL   H10836016   7.392   6.988   3.870  0.5356 -0.3856 -1.9263
   95MOL   H10936017   7.316   6.950   4.096  0.1318  0.6809 -1.0146
   95MOL   H11036018   7.398   6.818   4.043 -0.1798 -1.3391 -2.3214
   95MOL   H11136019   7.188   6.701   3.987 -1.4061 -1.3679  1.2868
   95MOL   H11236020   7.098   6.841   4.014  0.5321  2.0323  1.4430
   95MOL   H11336021   7.278   6.695   4.223  0.6737  0.5276 -2.2674
   95MOL   H11436022   7.156   6.820   4.272  1.4576  1.0599 -0.5136
   95MOL   H11536023   7.098   6.671   4.229 -0.9219  0.4892 -0.5922
   95MOL   C11636024   7.521   6.749   3.701  0.9046 -0.9779  0.3988
   95MOL   C11736025   7.608   6.749   3.572 -0.2628  0.3956 -0.5631
   95MOL   O11836026   7.580   6.874   3.508  0.1282 -0.0195  0.0497
   95MOL   C11936027   7.592   6.873   3.364 -0.7911  0.3492 -0.3303
   95MOL   C12036028   7.535   6.999   3.306  0.2339  0.1651  0.0137
   95MOL   C12136029   7.533   7.005   3.156  0.2511  0.0377  0.5695
   95MOL   C12236030   7.483   7.140   3.102  0.5349 -0.1249  0.6346
   95MOL   H12336031   7.585   6.807   3.768  1.0928 -1.0775  0.3052
   95MOL   H12436032   7.518   6.648   3.741  1.0091 -1.3672 -0.5670
   95MOL   H12536033   7.569   6.669   3.509  2.7043  0.3962 -2.4764
   95MOL   H12636034   7.533   6.788   3.331 -0.9181  0.5974 -0.7482
   95MOL   H12736035   7.698   6.856   3.348 -0.9400 -0.1240 -0.8223
   95MOL   H12836036   7.585   7.085   3.350 -0.7646 -0.4506  2.4901
   95MOL   H12936037   7.435   7.021   3.343  1.1259  1.4243  1.7482
   95MOL   H13036038   7.637   6.980   3.135  0.1144  1.3286 -1.8028
   95MOL   H13136039   7.479   6.920   3.115  0.8399  0.4851 -1.1807
   95MOL   H13236040   7.451   7.140   2.998 -1.5562  0.6025  1.2599
   95MOL   H13336041   7.566   7.210   3.104 -0.1898  0.8826 -2.2674
   95MOL   H13436042   7.413   7.198   3.162  0.0760 -0.0129  0.0037
   95MOL   C13536043   7.755   6.732   3.602  0.0246 -0.4487 -0.0602
   95MOL   C13636044   7.792   6.584   3.643  0.3587  0.4197 -0.5418
   95MOL   O13736045   7.753   6.550   3.772  0.1658  0.5742 -0.1807
   95MOL   C13836046   0.029   6.609   3.876  0.4298  0.6964  0.0966
   95MOL   C13936047   7.792   6.537   4.005  0.0361  0.4855  0.1846
   95MOL   C14036048   7.641   6.564   4.050 -0.0842 -1.0015 -1.0207
   95MOL   C14136049   7.628   6.566   4.205  0.4866 -0.1936 -0.6715
   95MOL   H14236050   7.787   6.803   3.678  2.7455  0.5298 -2.0463
   95MOL   H14336051   0.024   6.752   3.522 -2.1650  1.4690 -1.5950
   95MOL   H14436052   0.099   6.581   3.634  0.4442  0.9916  0.2808
   95MOL   H14536053   0.007   6.714   3.892  5.6496  1.7860  1.0377
   95MOL   H14636054   0.135   6.594   3.853  0.4572 -2.3909  1.9441
   95MOL   H14736055   0.056   6.586   4.077  0.8108 -0.0774 -0.1293
   95MOL   H14836056   0.011   6.431   4.012 -1.3440  0.0965 -1.2290
   95MOL   H14936057   7.621   6.668   4.027 -2.6253 -0.7461  1.9995
   95MOL   H15036058   7.571   6.502   3.993 -0.8406 -1.1710  0.0827
   95MOL   H15136059   7.530   6.603   4.237  1.1456  0.3705  0.7257
   95MOL   H15236060   7.648   6.471   4.255  0.2570 -1.2063 -2.4724
   95MOL   H15336061   7.702   6.632   4.249  0.9615 -0.6117 -0.8319
   95MOL   C15436062   7.720   6.482   3.553 -0.0530 -0.7486 -0.1177
   95MOL   C15536063   7.777   6.342   3.587  0.0566  0.5582 -0.6916
   95MOL   O15636064   0.116   6.351   3.565 -0.1328 -0.0145  0.5364
   95MOL   C15736065   0.200   6.298   3.656 -0.3850  0.4517 -0.5143
   95MOL   C15836066   0.352   6.315   3.649  0.2056 -0.8426  1.0222
   95MOL   C15936067   0.389   6.460   3.671 -0.3072 -0.5236  0.0863
   95MOL   C16036068   0.544   6.483   3.652  0.2172 -0.1220 -0.0407
   95MOL   H16136069   7.747   6.499   3.448  1.1358 -0.3372  0.2519
   95MOL   H16236070   7.611   6.478   3.557 -0.2842  2.0798 -2.0391
   95MOL   H16336071   7.748   6.315   3.689  1.1081  0.6141 -0.3685
   95MOL   H16436072   0.182   6.329   3.759  2.6551  0.1492  0.1612
   95MOL   H16536073   0.183   6.190   3.658  0.8396  0.2460 -0.8884
   95MOL   H16636074   0.386   6.284   3.551 -0.9120  0.9121  0.0441
   95MOL   H16736075   0.392   6.250   3.727 -0.7085  0.4577  2.6161
   95MOL   H16836076   0.352   6.527   3.593  0.8805 -1.6549 -1.4798
   95MOL   H16936077   0.354   6.490   3.770  2.8277  0.2294  1.0472
   95MOL   H17036078   0.589   6.418   3.577 -0.6406  1.9153 -2.3774
   95MOL   H17136079   0.550   6.586   3.619  1.4874  0.5471  2.1869
   95MOL   H17236080   0.607   6.463   3.739  0.6785 -0.3457 -0.4244
   95MOL   C17336081   7.726   6.234   3.492 -0.0577 -0.5229  0.1343
   95MOL   C17436082   7.585   6.178   3.526 -0.4469  0.2849 -0.4252
   95MOL   O17536083   7.540   6.136   3.402  0.4626 -0.4633 -0.0659
   95MOL   C17636084   7.400   6.117   3.387 -0.2407 -0.4912  0.4366
   95MOL   C17736085   7.333   6.254   3.395 -0.9745  0.2990 -0.4730
   95MOL   C17836086   7.393   6.367   3.305  0.0363 -0.1442  0.7298
   95MOL   C17936087   7.292   6.467   3.247 -0.4256  0.1992 -0.3472
   95MOL   H18036088   7.789   6.145   3.488 -0.2080 -0.5605 -2.3202
   95MOL   H18136089   7.726   6.265   3.387  0.0313 -0.0851  0.2649
   95MOL   H18236090   7.527   6.258   3.572 -0.0673 -1.3767  3.0963
   95MOL   H18336091   7.358   6.056   3.467  2.4968 -0.2794  2.1010
   95MOL   H18436092   7.375   6.069   3.293 -0.6806 -0.2223  0.4167
   95MOL   H18536093   7.326   6.288   3.499  0.4607  2.8837 -1.1810
   95MOL   H18636094   7.232   6.228   3.362 -0.9525 -0.3767 -0.0224
   95MOL   H18736095   7.481   6.406   3.355 -0.1103 -0.5933  1.3530
   95MOL   H18836096   7.421   6.316   3.212 -2.5170  2.1134 -1.3844
   95MOL   H18936097   7.213   6.415   3.192 -2.2361  2.2577  0.2427
   95MOL   H19036098   7.244   6.519   3.330 -0.0761  1.0338 -0.6635
   95MOL   H19136099   7.354   6.534   3.188  0.8655 -1.7889 -1.3174
   95MOL   C19236100   7.586   6.058   3.620 -0.5687 -0.0959 -0.6560
   95MOL   C19336101   7.584   6.088   3.773  0.2478 -0.4578  0.1244
   95MOL   O19436102   7.453   6.150   3.802 -0.3939  0.4784  0.4885
   95MOL   C19536103   7.452   6.260   3.893 -0.2316 -0.8746  0.3369
   95MOL   C19636104   7.323   6.314   3.910 -0.6997  0.0468 -0.8274
   95MOL   C19736105   7.277   6.388   3.788  0.0615  0.8629  0.0004
   95MOL   C19836106   7.117   6.393   3.787  0.6102  0.1363  0.1331
   95MOL   H19936107   7.681   6.007   3.609  0.3469  1.0310  1.6178
   95MOL   H20036108   7.512   5.982   3.595  0.3600 -0.9536 -0.8327
   95MOL   H20136109   7.664   6.157   3.797 -0.7294  0.5429  0.5461
   95MOL   H20236110   7.508   6.350   3.868 -0.3956 -0.3280  1.9111
   95MOL   H20336111   7.494   6.215   3.982 -1.0411 -3.2314 -0.4491
   95MOL   H20436112   7.254   6.231   3.927  1.3970 -1.2528  1.6118
   95MOL   H20536113   7.326   6.377   3.999  0.0050  0.2471 -0.9890
   95MOL   H20636114   7.320   6.351   3.695  2.2144  2.5198  0.2777
   95MOL   H20736115   7.307   6.493   3.790  0.3815  0.7554  1.8342
   95MOL   H20836116   7.085   6.448   3.876 -0.4797  2.2803 -1.5405
   95MOL   H20936117   7.090   6.444   3.694 -0.2164 -0.5616 -0.0128
   95MOL   H21036118   7.074   6.294   3.801 -0.4740  0.7064  0.9688
   95MOL   C21136119   7.611   5.956   3.847 -0.2964 -0.1421 -1.0898
   95MOL   C21236120   7.676   5.975   3.981  0.2911 -0.1919  0.2658
   95MOL   O21336121   7.630   5.870   4.065  0.2954 -0.4313 -0.3840
   95MOL   C21436122   7.507   5.877   4.123  0.4724  0.5229 -0.3724
   95MOL   C21536123   7.488   5.753   4.215  0.2354 -0.1998  0.6920
   95MOL   C21636124   7.503   5.615   4.143  0.3868  0.4051 -0.6283
   95MOL   C21736125   7.426   5.597   4.014 -0.5722  0.2402 -0.1774
   95MOL   H21836126   7.671   5.885   3.790  0.5551 -0.0302 -0.3405
   95MOL   H21936127   7.514   5.905   3.850 -1.4509  1.8808 -2.2854
   95MOL   H22036128   7.651   6.069   4.030 -1.0788 -0.4469  0.0684
   95MOL   H22136129   7.505   5.970   4.180 -1.1411  0.9265 -1.0572
   95MOL   H22236130   7.427   5.891   4.051 -1.7363 -0.7141  1.7491
   95MOL   H22336131   7.565   5.765   4.291 -0.1669 -2.3423  1.4711
   95MOL   H22436132   7.390   5.761   4.260 -0.5172 -3.4476 -0.2211
   95MOL   H22536133   7.484   5.534   4.213  1.0702  3.0523  2.7634
   95MOL   H22636134   7.609   5.612   4.120 -0.0833  0.4008 -2.9311
   95MOL   H22736135   7.319   5.599   4.035 -0.5932 -0.9182 -0.1518
   95MOL   H22836136   7.460   5.500   3.976 -1.2345  0.1149 -0.4525
   95MOL   H22936137   7.447   5.656   3.925 -1.6968 -2.1659 -2.0853
   95MOL   C23036138   0.026   5.962   3.987  0.4636 -0.1227  0.1571
   95MOL   C23136139   0.082   5.991   4.126  0.6043  0.5511  0.2167
   95MOL   O23236140   0.200   5.920   4.168 -0.8586  0.2848  0.5837
   95MOL   C23336141   0.174   5.785   4.191  0.0019 -0.5845 -0.0932
   95MOL   C23436142   0.296   5.711   4.146 -0.3363  0.0776 -0.6964
   95MOL   C23536143   0.324   5.718   4.000 -0.1631 -0.0373  0.8141
   95MOL   C23636144   0.448   5.640   3.954  0.4073  0.0266 -0.0932
   95MOL   H23736145   0.073   6.018   3.907  2.0952  0.7594  1.7030
   95MOL   H23836146   0.056   5.859   3.967  0.0649 -0.2569  0.2374
   95MOL   H23936147   7.798   5.983   4.194  0.4025  2.6993  0.2559
   95MOL   H24036148   0.157   5.755   4.294  2.1800 -0.9045  0.1876
   95MOL   H24136149   0.087   5.744   4.139  0.6008 -1.3846 -0.4632
   95MOL   H24236150   0.383   5.736   4.207 -0.4183 -2.6449  0.6035
   95MOL   H24336151   0.287   5.607   4.178  1.5727  0.1570  0.1924
   95MOL   H24436152   0.334   5.819   3.958  0.5309 -0.3497  0.2251
   95MOL   H24536153   0.241   5.672   3.946  1.8801 -0.4194 -2.1647
   95MOL   H24636154   0.436   5.533   3.937 -1.8115  0.0322  1.3527
   95MOL   H24736155   0.527   5.656   4.027 -0.2750 -1.7241  1.0483
   95MOL   H24836156   0.486   5.683   3.861  1.2927 -0.1226  0.1961
   95MOL   C24936157   0.122   6.146   4.127  0.0685  0.0560 -0.4719
   95MOL   C25036158   0.190   6.188   4.261 -0.5069 -0.3367  0.0737
   95MOL   O25136159   0.092   6.166   4.365 -0.1705  0.4526  0.2259
   95MOL   C25236160   0.143   6.088   4.473 -0.3428  0.5404  0.2943
   95MOL   C25336161   0.046   6.102   4.588  0.3386 -0.3161 -0.2385
   95MOL   C25436162   0.111   6.056   4.718  0.4228  0.1321  0.4163
   95MOL   C25536163   0.022   6.007   4.835 -0.2174 -0.2298 -0.0145
   95MOL   H25636164   0.033   6.207   4.114 -0.2469  0.0491  1.4079
   95MOL   H25736165   0.187   6.157   4.041  2.3138 -0.7370  1.0777
   95MOL   H25836166   0.280   6.128   4.276 -1.3473 -1.1010  2.2511
   95MOL   H25936167   0.239   6.131   4.502 -0.2653  1.2649 -1.0018
   95MOL   H26036168   0.171   5.984   4.456  1.4786  1.0896 -0.1702
   95MOL   H26136169   0.002   6.202   4.591 -0.6551 -0.7537 -0.0212
   95MOL   H26236170   7.767   6.030   4.577 -0.0720  0.1220 -0.0795
   95MOL   H26336171   0.177   5.972   4.697  0.1346 -0.2046  0.8389
   95MOL   H26436172   0.190   6.121   4.753  0.9366  0.2011 -0.8575
   95MOL   H26536173   0.007   5.899   4.831 -0.6583 -0.1845  0.4709
   95MOL   H26636174   7.727   6.055   4.845 -0.8727 -1.1321 -1.8339
   95MOL   H26736175   0.082   6.024   4.924  1.9145  2.5646 -1.8824
   95MOL   C26836176   0.220   6.339   4.254  0.4241 -0.1033 -0.0850
   95MOL   C26936177   0.257   6.404   4.390  0.6863  1.4898 -0.4164
   95MOL   O27036178   0.350   6.513   4.363  0.3005  0.5400 -0.3398
   95MOL   C27136179   0.306   6.624   4.293 -0.7832 -0.4005 -0.3922
   95MOL   C27236180   0.409   6.620   4.182  0.0544 -0.1777  0.2135
   95MOL   C27336181   0.420   6.741   4.087 -0.3995  0.0383  0.1396
   95MOL   C27436182   0.542   6.728   3.987  0.1273 -0.1667  0.2925
   95MOL   H27536183   0.301   6.351   4.182  1.6303 -2.3588  0.8599
   95MOL   H27636184   0.144   6.396   4.200  3.3134  1.7420 -2.3758
   95MOL   H27736185   0.315   6.330   4.447 -0.2652  1.2415  0.2430
   95MOL   H27836186   0.211   6.621   4.241  0.3747 -0.4692 -2.5601
   95MOL   H27936187   0.315   6.719   4.345  1.1916 -2.1186  2.6099
   95MOL   H28036188   0.508   6.613   4.227 -0.8289 -1.4872  2.0304
   95MOL   H28136189   0.405   6.527   4.126  0.7688  1.0955 -1.9974
   95MOL   H28236190   0.427   6.823   4.159  0.6832 -1.7473  2.1504
   95MOL   H28336191   0.324   6.753   4.036 -1.4797 -1.4144  1.7497
   95MOL   H28436192   0.537   6.643   3.920  1.3077  1.4758 -1.9767
   95MOL   H28536193   0.633   6.722   4.047  1.1862  6.5861 -0.1627
   95MOL   H28636194   0.550   6.817   3.924 -2.6200  1.9640  2.8021
   95MOL   C28736195   0.135   6.461   4.469  0.5798 -0.1024 -0.6257
   95MOL   C28836196   0.160   6.500   4.616  0.0285 -0.3293  0.0531
   95MOL   O28936197   0.217   6.389   4.690  0.2076 -0.4185  0.2125
   95MOL   C29036198   0.301   6.438   4.787  0.4323 -0.4244 -1.1004
   95MOL   C29136199   0.341   6.331   4.891 -0.3569 -0.3512  0.0561
   95MOL   C29236200   0.410   6.392   5.018 -0.1236 -0.5781 -0.5791
   95MOL   C29336201   0.553   6.439   4.980  0.1965 -0.4533 -0.8123
   95MOL   H29436202   0.056   6.386   4.464 -0.6018  1.0613  0.4425
   95MOL   H29536203   0.093   6.543   4.412 -2.5233 -1.5469 -0.5222
   95MOL   H29636204   0.233   6.579   4.596  0.9136 -1.3509 -0.7908
   95MOL   H29736205   0.386   6.484   4.738 -0.2654  1.9081 -0.1981
   95MOL   H29836206   0.256   6.518   4.845  0.4615 -0.7196 -0.6686
   95MOL   H29936207   0.400   6.256   4.839  0.4659  0.6209 -0.4436
   95MOL   H30036208   0.252   6.286   4.933  2.1664 -3.9869  1.8244
   95MOL   H30136209   0.415   6.320   5.100 -1.5983  0.1264  0.1434
   95MOL   H30236210   0.356   6.480   5.052  1.2136 -0.2238  0.7159
   95MOL   H30336211   0.605   6.383   4.902  2.3457 -1.3977  1.2552
   95MOL   H30436212   0.548   6.548   4.972 -0.9240 -0.5153 -1.0435
   95MOL   H30536213   0.619   6.420   5.064 -0.2236 -1.6103 -0.7303
   95MOL   C30636214   0.032   6.542   4.693  0.4497 -0.5678  0.2137
   95MOL   C30736215   7.745   6.656   4.637  0.8283 -0.4270 -0.3923
   95MOL   O30836216   0.025   6.778   4.655 -0.6624  0.2705  0.2715
   95MOL   C30936217   0.075   6.815   4.526  0.2005  0.7619  0.4390
   95MOL   C31036218   0.168   6.936   4.555 -0.8564 -0.2953  0.0786
   95MOL   C31136219   0.098   7.076   4.588 -0.1614 -0.1741  0.0658
   95MOL   C31236220   0.185   7.188   4.608  0.8937  0.0176  0.1777
   95MOL   H31336221   7.777   6.449   4.700 -1.4091  0.4549 -0.9892
   95MOL   H31436222   0.054   6.563   4.798  1.9860 -1.2849  0.0539
   95MOL   H31536223   7.723   6.623   4.535  2.9605  0.2046 -1.0747
   95MOL   H31636224   7.799   6.842   4.454 -1.8484  0.4709  2.4489
   95MOL   H31736225   0.147   6.739   4.498 -1.6338 -0.9106  0.1873
   95MOL   H31836226   0.230   6.953   4.467 -1.0511  1.4874  0.2594
   95MOL   H31936227   0.234   6.907   4.637 -1.0964  0.7367  0.6528
   95MOL   H32036228   0.021   7.108   4.518 -0.5494 -0.2833  0.4469
   95MOL   H32136229   0.042   7.055   4.678 -1.5959 -0.2120 -0.8131
   95MOL   H32236230   0.242   7.207   4.517  1.0822 -0.7054  0.1427
   95MOL   H32336231   0.254   7.177   4.691 -1.4545 -4.2966  1.6746
   95MOL   H32436232   0.125   7.279   4.610 -1.0696 -1.2818  1.2556
   95MOL   C32536233   7.601   6.678   4.696  0.5901 -0.2169  1.2933
   95MOL   C32636234   7.512   6.772   4.613 -0.3109 -0.1408  0.7863
   95MOL   O32736235   7.378   6.744   4.643 -0.0122  1.0097 -0.0509
   95MOL   C32836236   7.323   6.632   4.572  0.8971 -0.1909  0.2472
   95MOL   C32936237   7.185   6.609   4.624 -0.5097  0.0799  0.4716
   95MOL   C33036238   7.156   6.582   4.773  0.0462 -0.1595  0.3036
   95MOL   C33136239   7.005   6.574   4.797  0.4227 -0.0141  0.3301
   95MOL   H33236240   7.611   6.730   4.792  0.2462 -1.3256  1.9367
   95MOL   H33336241   7.560   6.579   4.717  0.6116 -0.4011  0.4680
   95MOL   H33436242   7.538   6.750   4.510 -0.0074  1.0460  0.6043
   95MOL   H33536243   7.379   6.539   4.584  0.1810 -0.6861 -0.2059
   95MOL   H33636244   7.313   6.660   4.468 -0.2929 -4.7054 -0.9320
   95MOL   H33736245   7.127   6.697   4.595  0.8191  0.9787  0.4806
   95MOL   H33836246   7.136   6.535   4.561  0.4248  1.5922 -2.0942
   95MOL   H33936247   7.208   6.654   4.836  0.0722  0.9938 -1.0043
   95MOL   H34036248   7.206   6.487   4.791  0.6364  0.1944  0.5445
   95MOL   H34136249   6.963   6.523   4.710  2.0557  0.1912 -0.5933
   95MOL   H34236250   6.953   6.669   4.800  0.3831 -0.0565  0.9486
   95MOL   H34336251   6.971   6.518   4.884  0.4303 -0.9914 -0.2808
   95MOL   C34436252   7.543   6.923   4.643  0.7733  0.5618 -0.0120
   95MOL   C34536253   7.516   7.013   4.523 -0.2032  0.3293  0.2768
   95MOL   O34636254   7.616   6.977   4.425  0.5636 -0.1841 -0.3083
   95MOL   C34736255   7.568   6.983   4.292  0.2922 -0.2491 -0.5203
   95MOL   C34836256   7.685   7.032   4.205  0.4677  0.5901  0.0113
   95MOL   C34936257   7.711   7.175   4.212  0.4074 -0.5234 -0.9648
   95MOL   C35036258   0.039   7.227   4.163 -0.0342 -0.1922 -0.0677
   95MOL   H35136259   7.478   6.957   4.724 -1.5756  1.4264 -2.2046
   95MOL   H35236260   7.645   6.942   4.677  0.3179  0.5588  1.4156
   95MOL   H35336261   7.421   6.981   4.481  1.1542 -3.6966  0.0514
   95MOL   H35436262   7.476   7.039   4.279 -0.5832 -0.9261  2.2615
   95MOL   H35536263   7.543   6.883   4.254 -1.3509  0.5319 -1.5538
   95MOL   H35636264   7.663   6.996   4.104 -1.9760 -1.5310  1.2307
   95MOL   H35736265   7.776   6.988   4.246  0.3149  0.6920  0.4647
   95MOL   H35836266   7.626   7.232   4.175 -0.9394 -0.8588  1.5250
   95MOL   H35936267   7.708   7.200   4.318 -2.4486 -2.2601 -0.5963
   95MOL   H36036268   0.113   7.158   4.203  1.0165 -0.5428 -2.5225
   95MOL   H36136269   0.054   7.325   4.207 -0.5854 -1.3057  2.6965
   95MOL   H36236270   0.054   7.220   4.055  1.5033 -2.1970  0.2336
   95MOL   C36336271   7.522   7.162   4.543  0.4667  0.0251 -0.2817
   95MOL   C36436272   7.395   7.203   4.627  0.0185  0.9039  0.7050
   95MOL   O36536273   7.399   7.346   4.640 -0.7040 -0.3443  0.6604
   95MOL   C36636274   7.276   7.406   4.672 -0.3243  0.2027 -0.5347
   95MOL   C36736275   7.304   7.559   4.679  0.1265  0.0099 -0.1343
   95MOL   C36836276   7.218   7.641   4.777 -0.0037 -0.3030  1.1239
   95MOL   C36936277   7.097   7.692   4.706 -0.4783 -0.5694 -0.3406
   95MOL   H37036278   7.526   7.217   4.449  1.3605  3.0409  1.4596
   95MOL   H37136279   7.621   7.185   4.581  0.4264  1.4010 -0.9690
   95MOL   H37236280   7.385   7.161   4.727  1.7493  0.4545  0.7102
   95MOL   H37336281   7.249   7.379   4.774  0.7199 -0.9028 -0.5380
   95MOL   H37436282   7.197   7.386   4.600 -1.3454 -0.0674  0.6527
   95MOL   H37536283   7.297   7.609   4.582 -1.0246 -2.3445 -1.3213
   95MOL   H37636284   7.407   7.571   4.714  0.3988  0.2325 -0.9890
   95MOL   H37736285   7.273   7.729   4.811 -0.2464  0.2605  0.0793
   95MOL   H37836286   7.197   7.581   4.866 -0.5844  2.2338  2.7274
   95MOL   H37936287   7.025   7.712   4.785 -0.6121  0.1511 -0.6471
   95MOL   H38036288   7.120   7.777   4.642  0.5652 -0.8584 -0.3627
   95MOL   H38136289   7.054   7.620   4.637 -0.1825  0.8749 -2.0698
   95MOL   H38236290   7.311   7.179   4.562 -0.1363  1.8930  0.5274
   96MOL     C136291   7.275   1.745   6.131  1.0488  0.1688  0.5460
   96MOL     C236292   7.153   1.714   6.044  0.5563  0.1907  0.3426
   96MOL     O336293   7.032   1.711   6.115  0.1897 -0.2813 -0.1465
   96MOL     C436294   6.982   1.583   6.145 -0.2445  0.8034 -0.1712
   96MOL     C536295   6.877   1.594   6.247 -0.2693 -0.3675  0.4286
   96MOL     C636296   6.848   1.453   6.303  0.6041 -0.3056 -0.3537
   96MOL     C736297   6.761   1.450   6.426 -0.5836  0.0920  0.3471
   96MOL     H836298   7.360   1.732   6.065  0.8660 -1.4165  0.5890
   96MOL     H936299   7.271   1.846   6.172 -2.1161 -0.2907  1.5341
   96MOL    H1036300   7.166   1.613   6.004  1.2243  0.4576 -0.1093
   96MOL    H1136301   6.941   1.528   6.059  1.3125  1.0703 -1.1084
   96MOL    H1236302   7.064   1.527   6.191  0.8308  1.9679 -0.6444
   96MOL    H1336303   6.791   1.636   6.194 -0.2147 -1.5231 -0.6173
   96MOL    H1436304   6.907   1.664   6.324 -0.4149  1.0838 -0.8187
   96MOL    H1536305   6.941   1.406   6.335  0.5850  0.2366  0.5336
   96MOL    H1636306   6.811   1.384   6.228  0.0891  1.4807 -1.7691
   96MOL    H1736307   6.801   1.493   6.517  2.3244 -1.0016 -0.3570
   96MOL    H1836308   6.735   1.347   6.449 -1.0198  0.4043  1.2502
   96MOL    H1936309   6.668   1.502   6.405 -0.1730  0.5764 -0.3126
   96MOL    H2036310   7.281   1.667   6.208 -1.1291 -0.5442  0.0333
   96MOL    C2136311   7.131   1.818   5.930  0.6968 -0.2269 -0.4813
   96MOL    C2236312   7.240   1.829   5.819 -0.5292 -0.3962 -0.5835
   96MOL    O2336313   7.254   1.696   5.760  0.6629  0.3922 -0.7806
   96MOL    C2436314   7.147   1.653   5.671  0.1979  0.1829  0.6179
   96MOL    C2536315   7.203   1.581   5.547 -0.3419 -0.3728  0.1210
   96MOL    C2636316   7.321   1.652   5.481 -0.0564  1.0684  0.8973
   96MOL    C2736317   7.378   1.568   5.368 -0.5997  0.6664  0.5242
   96MOL    H2836318   7.123   1.919   5.970  3.8490  0.9495 -2.6045
   96MOL    H2936319   7.035   1.799   5.882  0.5816 -0.7036 -0.0760
   96MOL    H3036320   7.338   1.837   5.867 -0.6532  0.0785 -0.4107
   96MOL    H3136321   7.091   1.741   5.640 -0.6336 -1.1606 -1.7917
   96MOL    H3236322   7.073   1.586   5.714 -0.4435 -0.9565 -2.2045
   96MOL    H3336323   7.229   1.478   5.568 -1.2190 -0.6509 -0.1797
   96MOL    H3436324   7.132   1.581   5.465 -1.6829  1.4086  1.2516
   96MOL    H3536325   7.299   1.757   5.463 -0.0035  1.1993  1.5820
   96MOL    H3636326   7.403   1.651   5.552 -1.1582  0.3395  2.1842
   96MOL    H3736327   7.392   1.469   5.412  0.2651  0.7916  0.5363
   96MOL    H3836328   7.313   1.575   5.281  1.0843  2.9265 -0.5989
   96MOL    H3936329   7.469   1.612   5.329 -1.0515  1.8028  0.7408
   96MOL    C4036330   7.239   1.949   5.728  0.6774 -0.2809 -0.4599
   96MOL    C4136331   7.244   2.090   5.792  0.1964 -0.2285  0.6613
   96MOL    O4236332   7.277   2.184   5.688 -0.3212 -0.3344 -0.1394
   96MOL    C4336333   7.177   2.202   5.591 -0.0367  0.5556 -0.7215
   96MOL    C4436334   7.219   2.319   5.497  0.1972 -0.1956  0.0227
   96MOL    C4536335   7.113   2.341   5.387  0.0011  0.1798 -0.1352
   96MOL    C4636336   7.139   2.440   5.269 -0.4421 -0.6137  1.3887
   96MOL    H4736337   7.143   1.938   5.676 -0.1844 -0.5352  1.1414
   96MOL    H4836338   7.310   1.930   5.648  1.6197 -0.6474  0.4450
   96MOL    H4936339   7.143   2.121   5.818  0.6326  0.5112  1.5307
   96MOL    H5036340   7.089   2.223   5.652 -1.1868 -3.7659 -0.7116
   96MOL    H5136341   7.165   2.106   5.541 -0.9445 -1.4885  3.1869
   96MOL    H5236342   7.322   2.308   5.461  0.3720  0.9031  0.1893
   96MOL    H5336343   7.221   2.402   5.568  1.8865  0.9529 -1.3253
   96MOL    H5436344   7.021   2.380   5.432 -0.3902 -0.9665  0.0616
   96MOL    H5536345   7.090   2.250   5.333  1.1144 -0.8633  1.1320
   96MOL    H5636346   7.214   2.402   5.200 -0.1317  0.1879  1.2736
   96MOL    H5736347   7.048   2.436   5.209  0.8632  1.5490 -0.8103
   96MOL    H5836348   7.177   2.539   5.295 -0.6569 -0.7161  2.1016
   96MOL    C5936349   7.348   2.108   5.898 -0.5570 -0.3290  0.8356
   96MOL    C6036350   7.344   2.250   5.965  0.3658 -0.5366 -0.2690
   96MOL    O6136351   7.218   2.260   6.034 -0.5764 -0.0646  0.6243
   96MOL    C6236352   7.120   2.353   5.978 -0.4244  0.2637  0.2298
   96MOL    C6336353   6.985   2.320   6.047  0.2454  0.4033  0.4768
   96MOL    C6436354   6.866   2.405   6.022  0.7070  0.0603 -0.5802
   96MOL    C6536355   6.743   2.332   6.069 -0.2426  0.0794 -0.2318
   96MOL    H6636356   7.334   2.027   5.969 -1.2758 -0.9519 -0.0138
   96MOL    H6736357   7.445   2.085   5.853  0.0396  2.2333  0.6885
   96MOL    H6836358   7.346   2.323   5.884 -1.5545 -0.6337 -0.4412
   96MOL    H6936359   7.138   2.339   5.872 -1.9503 -0.6519  0.0795
   96MOL    H7036360   7.144   2.456   6.002  1.5244 -0.5218  1.7878
   96MOL    H7136361   6.973   2.218   6.009 -0.6464  0.3221  0.9764
   96MOL    H7236362   7.002   2.332   6.154  0.9386 -0.6724  0.4950
   96MOL    H7336363   6.884   2.493   6.083 -2.8018 -0.5654  1.4525
   96MOL    H7436364   6.852   2.440   5.919 -0.8988  0.7819 -0.1322
   96MOL    H7536365   6.741   2.295   6.171  0.2195 -1.1784 -0.6624
   96MOL    H7636366   6.659   2.401   6.072 -0.7427 -0.5549  0.5172
   96MOL    H7736367   6.713   2.241   6.016 -0.0204 -0.2450  0.1949
   96MOL    C7836368   7.461   2.269   6.068 -1.0511 -0.3795  0.7163
   96MOL    C7936369   7.604   2.278   6.025  0.9087  0.2179  1.3188
   96MOL    O8036370   7.677   2.306   6.140 -0.3271 -0.0827 -0.0182
   96MOL    C8136371   7.714   2.190   6.209  0.1369 -0.6008 -0.5074
   96MOL    C8236372   0.027   2.215   6.308  0.4135  0.5767 -0.0232
   96MOL    C8336373   0.150   2.294   6.263  0.0551 -0.4258 -0.2788
   96MOL    C8436374   0.235   2.319   6.392  0.0583 -0.3298  0.5082
   96MOL    H8536375   7.445   2.202   6.153  2.8656 -2.5040 -0.1297
   96MOL    H8636376   7.427   2.366   6.104 -1.4104 -0.3736  0.3626
   96MOL    H8736377   7.642   2.187   5.980 -0.6335  0.0959  0.2246
   96MOL    H8836378   7.750   2.115   6.138  0.8762 -0.6877 -0.0452
   96MOL    H8936379   7.627   2.156   6.266 -1.3821  0.9574 -1.8494
   96MOL    H9036380   7.784   2.268   6.393  1.2572 -0.0135  0.7970
   96MOL    H9136381   0.059   2.126   6.362  0.5625  1.5814  1.5867
   96MOL    H9236382   0.111   2.385   6.217  1.8463 -0.2259 -1.4518
   96MOL    H9336383   0.212   2.251   6.185 -0.0440  0.3634 -0.7940
   96MOL    H9436384   0.323   2.378   6.368  0.1015 -0.2918  0.7580
   96MOL    H9536385   0.174   2.371   6.466  0.9691  1.3589  0.0852
   96MOL    H9636386   0.273   2.226   6.435  1.4033  0.0547  0.1535
   96MOL    C9736387   7.618   2.394   5.923  0.0932 -0.4393  0.1174
   96MOL    C9836388   7.767   2.421   5.887  0.3573 -0.3637  0.2632
   96MOL    O9936389   0.023   2.320   5.809  0.1735 -0.1971  0.3555
   96MOL   C10036390   0.146   2.273   5.858 -0.2256 -0.6010  0.2630
   96MOL   C10136391   0.206   2.166   5.760  0.1543 -0.2863  0.4687
   96MOL   C10236392   0.231   2.217   5.613  0.1781 -0.1696  0.1051
   96MOL   C10336393   0.293   2.112   5.520  0.4453  0.4572  0.8112
   96MOL   H10436394   7.589   2.482   5.979  1.6891 -0.1639  0.5235
   96MOL   H10536395   7.558   2.387   5.832  0.2216  2.7926 -0.2449
   96MOL   H10636396   0.018   2.449   5.978  0.5391 -4.3164  1.4525
   96MOL   H10736397   0.130   2.229   5.956 -1.1443 -0.1314  0.3288
   96MOL   H10836398   0.216   2.357   5.866 -0.6912 -0.2554  0.6775
   96MOL   H10936399   0.141   2.078   5.753  0.9168 -0.7475 -0.9676
   96MOL   H11036400   0.299   2.139   5.810  1.1054 -0.4155 -1.3428
   96MOL   H11136401   0.294   2.305   5.625 -1.4132  0.5885  3.4494
   96MOL   H11236402   0.137   2.244   5.564 -0.2456  0.4406  1.2365
   96MOL   H11336403   0.251   2.011   5.514 -0.2077  0.8500 -1.7526
   96MOL   H11436404   0.289   2.159   5.422 -2.9361 -1.5804 -0.1303
   96MOL   H11536405   0.395   2.091   5.553  0.2350 -2.1329 -0.0397
   96MOL   C11636406   7.777   2.553   5.806  0.6945  0.6188 -0.2293
   96MOL   C11736407   7.752   2.687   5.876 -0.2849 -0.5310 -0.7928
   96MOL   O11836408   0.030   2.676   5.997 -0.0992  0.5063  0.7243
   96MOL   C11936409   7.793   2.764   6.103  0.0816  0.3367  0.1129
   96MOL   C12036410   0.015   2.680   6.225  0.2930 -0.7066  0.4837
   96MOL   C12136411   7.780   2.752   6.352 -0.4434  0.1021  0.0369
   96MOL   C12236412   0.020   2.666   6.475 -0.6578  0.1356 -1.6100
   96MOL   H12336413   0.069   2.544   5.752  1.0003  0.3108  0.3491
   96MOL   H12436414   7.690   2.548   5.740  0.9269  0.6952 -0.5420
   96MOL   H12536415   7.645   2.691   5.896  0.2370 -0.4238  2.1762
   96MOL   H12636416   7.688   2.795   6.102  0.1569  0.6247  1.1567
   96MOL   H12736417   0.058   2.850   6.097  0.3337  0.2040  0.9537
   96MOL   H12836418   0.118   2.646   6.237 -0.1033 -2.3780 -0.6956
   96MOL   H12936419   7.754   2.592   6.214  1.1981 -0.9679 -3.3228
   96MOL   H13036420   0.027   2.848   6.339  1.7250 -1.2321 -2.2334
   96MOL   H13136421   7.675   2.781   6.359 -0.2085  1.3541 -1.3598
   96MOL   H13236422   7.782   2.694   6.572  1.3031  0.7558 -0.9589
   96MOL   H13336423   0.126   2.668   6.500 -1.0293 -0.8431  0.1021
   96MOL   H13436424   7.793   2.563   6.456  0.8118 -0.9055  1.4761
   96MOL   C13536425   7.791   2.818   5.793  1.2691  0.0861 -0.3460
   96MOL   C13636426   7.690   2.835   5.671  0.7612 -0.0486 -0.1395
   96MOL   O13736427   7.556   2.843   5.720 -0.2300  0.3252  0.1440
   96MOL   C13836428   7.464   2.762   5.644  0.0018 -0.3051 -0.5169
   96MOL   C13936429   7.315   2.789   5.688 -0.0517  0.4435 -0.3920
   96MOL   C14036430   7.250   2.670   5.771  0.6447  0.4738  0.3251
   96MOL   C14136431   7.096   2.657   5.746  0.1978  0.1601  0.3182
   96MOL   H14236432   0.096   2.823   5.772  1.7031 -1.5858  1.3545
   96MOL   H14336433   7.758   2.902   5.855 -1.9005  0.7757 -2.8280
   96MOL   H14436434   7.691   2.746   5.608  2.4299 -1.0966  1.3068
   96MOL   H14536435   7.485   2.656   5.660  0.9464  0.0912  1.0268
   96MOL   H14636436   7.479   2.779   5.538  1.1601 -2.1379 -0.6779
   96MOL   H14736437   7.261   2.811   5.596  0.6008  0.2953 -0.8163
   96MOL   H14836438   7.312   2.880   5.748 -0.7643  0.2744 -0.1739
   96MOL   H14936439   7.297   2.572   5.755 -2.0832 -0.8646  0.2013
   96MOL   H15036440   7.274   2.692   5.875 -0.6025  1.0678  0.4917
   96MOL   H15136441   7.041   2.750   5.759  2.1619  1.6334 -1.3297
   96MOL   H15236442   7.067   2.623   5.646  1.8472  0.9690 -0.4614
   96MOL   H15336443   7.061   2.588   5.822  2.6798  0.1220  1.4801
   96MOL   C15436444   7.708   2.958   5.568 -0.2176  0.0185 -0.3854
   96MOL   C15536445   0.009   2.931   5.459  0.6045  0.2120 -1.1824
   96MOL   O15636446   0.048   3.060   5.407  0.4924 -0.7344 -0.2913
   96MOL   C15736447   0.179   3.108   5.442  0.9017  0.2062 -0.0409
   96MOL   C15836448   0.219   3.237   5.362  0.7027 -0.1203  0.6506
   96MOL   C15936449   0.300   3.195   5.242 -0.5696  0.1446 -0.2563
   96MOL   C16036450   0.310   3.299   5.127  0.3565 -0.4619  0.3493
   96MOL   H16136451   7.744   3.044   5.624  0.9858  0.0908 -1.2394
   96MOL   H16236452   7.611   2.987   5.528  0.0106  0.6642 -0.4624
   96MOL   H16336453   0.096   2.876   5.494  1.3439  0.6312 -2.3370
   96MOL   H16436454   0.183   3.135   5.548 -0.5470 -2.2342  0.6667
   96MOL   H16536455   0.248   3.028   5.416 -1.5430 -1.8557 -0.2964
   96MOL   H16636456   0.281   3.309   5.416 -0.4240 -0.4498  2.3922
   96MOL   H16736457   0.140   3.302   5.325  0.8689  1.0571  2.2812
   96MOL   H16836458   0.402   3.174   5.275 -0.1256 -1.8700 -2.7571
   96MOL   H16936459   0.249   3.107   5.204 -2.6669  0.8388  0.8733
   96MOL   H17036460   0.349   3.391   5.170  2.2078 -1.0346 -0.1000
   96MOL   H17136461   0.362   3.256   5.042 -1.2925  1.8849 -1.8991
   96MOL   H17236462   0.212   3.323   5.086  0.3379  0.7788  1.0720
   96MOL   C17336463   7.756   2.852   5.345 -0.3418 -0.6716  0.2836
   96MOL   C17436464   0.057   2.781   5.255 -0.1169  0.7651  0.4174
   96MOL   O17536465   0.130   2.693   5.338 -0.3878 -0.1718 -0.3699
   96MOL   C17636466   0.263   2.672   5.291  0.4271  1.2605  0.8311
   96MOL   C17736467   0.343   2.590   5.398  0.1953  0.5271  0.2540
   96MOL   C17836468   0.469   2.534   5.344  0.5293 -1.1737 -0.4058
   96MOL   C17936469   0.466   2.393   5.276  0.6986  0.0484 -0.8594
   96MOL   H18036470   7.681   2.913   5.293 -0.9821 -0.7478  1.0918
   96MOL   H18136471   7.693   2.774   5.388 -1.2545 -1.2569 -2.0594
   96MOL   H18236472   0.123   2.861   5.220  1.8323 -0.7485  0.4987
   96MOL   H18336473   0.311   2.769   5.276 -0.4521  1.2717 -2.0754
   96MOL   H18436474   0.272   2.620   5.196  0.7428  0.0529  1.5116
   96MOL   H18536475   0.283   2.505   5.433 -3.4648  2.0678 -1.9621
   96MOL   H18636476   0.363   2.658   5.481  0.1815 -0.1480  0.8187
   96MOL   H18736477   0.508   2.619   5.288 -0.0640 -0.6191  0.0001
   96MOL   H18836478   0.551   2.518   5.414 -0.0118  0.7667  0.7314
   96MOL   H18936479   0.564   2.370   5.235  1.7613 -1.6418  2.4198
   96MOL   H19036480   0.455   2.319   5.355  1.3645 -1.3563 -2.0682
   96MOL   H19136481   0.395   2.396   5.194  0.4731  1.3535 -0.6366
   96MOL   C19236482   7.796   2.698   5.142  0.3972  0.0723 -0.3957
   96MOL   C19336483   7.744   2.775   5.019  0.8552 -0.2730  0.2751
   96MOL   O19436484   0.059   2.824   4.951 -1.0698 -0.1243 -0.1112
   96MOL   C19536485   0.031   2.944   4.888 -0.4321  0.4941  0.0120
   96MOL   C19636486   0.157   2.986   4.806 -0.8784 -0.1061 -0.3660
   96MOL   C19736487   0.201   2.909   4.687  0.2630  1.0826  1.0504
   96MOL   C19836488   0.308   2.984   4.607  0.0047  0.2619 -0.0016
   96MOL   H19936489   7.728   2.630   5.192  0.5006 -0.5200 -1.0551
   96MOL   H20036490   0.065   2.624   5.104 -0.2845  0.0182 -1.5941
   96MOL   H20136491   7.691   2.852   5.076 -1.1439 -0.0356 -1.8582
   96MOL   H20236492   0.007   3.024   4.958 -3.6770 -1.9068  1.7655
   96MOL   H20336493   7.743   2.935   4.826 -0.3905  0.9485 -0.1251
   96MOL   H20436494   0.130   3.088   4.780 -0.8380 -0.0596 -0.2273
   96MOL   H20536495   0.245   2.996   4.871  0.8839  0.0385 -2.7033
   96MOL   H20636496   0.112   2.883   4.630 -0.3580  0.5999  2.2137
   96MOL   H20736497   0.236   2.809   4.711 -2.4058  0.0897  1.0379
   96MOL   H20836498   0.388   3.010   4.676  0.6628 -1.4452 -0.1012
   96MOL   H20936499   0.352   2.932   4.522 -0.6131  0.6137 -0.5416
   96MOL   H21036500   0.266   3.081   4.579  0.9663  1.1767  1.6152
   96MOL   C21136501   7.653   2.680   4.928 -0.4827 -0.4706  0.7417
   96MOL   C21236502   7.715   2.552   4.861  0.0046 -0.0352 -0.1362
   96MOL   O21336503   7.607   2.479   4.799 -0.4856 -0.3870  0.3629
   96MOL   C21436504   7.539   2.379   4.885 -0.5365 -0.0535 -0.1787
   96MOL   C21536505   7.415   2.312   4.822 -0.3986 -0.7561 -0.4985
   96MOL   C21636506   7.306   2.416   4.795  0.1503 -0.1295  0.0165
   96MOL   C21736507   7.191   2.368   4.709 -0.1711  0.6266 -0.5413
   96MOL   H21836508   7.611   2.744   4.851 -0.4288 -1.8542 -0.4480
   96MOL   H21936509   7.570   2.654   4.994 -0.4472  1.7833  1.7465
   96MOL   H22036510   7.750   2.489   4.943  1.0590  0.3654 -0.2780
   96MOL   H22136511   7.609   2.298   4.903 -0.4461 -0.1090 -0.7763
   96MOL   H22236512   7.519   2.429   4.980 -1.9394 -0.6492 -0.1446
   96MOL   H22336513   7.444   2.263   4.729  1.7315  2.5840 -1.7084
   96MOL   H22436514   7.382   2.227   4.882 -1.1989 -0.6706 -0.8089
   96MOL   H22536515   7.353   2.494   4.735 -0.6009  0.8501  0.6976
   96MOL   H22636516   7.263   2.453   4.888 -1.1482 -1.8405  0.1115
   96MOL   H22736517   7.234   2.325   4.618  1.6342  0.8486  0.2015
   96MOL   H22836518   7.124   2.447   4.673 -1.2629  0.2821  0.7080
   96MOL   H22936519   7.133   2.293   4.762 -1.8494  0.5675 -2.3631
   96MOL   C23036520   0.026   2.583   4.763 -0.1740  0.8532 -0.1849
   96MOL   C23136521   0.083   2.456   4.694 -0.3982  0.0508  0.0102
   96MOL   O23236522   0.183   2.497   4.597 -0.0736  0.0127 -0.1456
   96MOL   C23336523   0.134   2.551   4.479  0.2887  0.4273  0.1976
   96MOL   C23436524   0.242   2.551   4.365 -0.2492  0.4808 -0.0428
   96MOL   C23536525   0.305   2.682   4.344  0.2410  0.1873  0.0590
   96MOL   C23636526   0.394   2.692   4.213  0.2806 -0.1803 -0.8057
   96MOL   H23736527   0.111   2.633   4.810 -0.3602 -0.8359  2.0735
   96MOL   H23836528   7.786   2.654   4.692  0.3539 -0.2889 -1.6638
   96MOL   H23936529   0.010   2.395   4.641  2.0049 -2.2364 -0.7365
   96MOL   H24036530   0.051   2.489   4.445  1.8447  0.1371 -3.3684
   96MOL   H24136531   0.089   2.645   4.511 -0.1592  0.4458 -0.4675
   96MOL   H24236532   0.315   2.472   4.378 -1.5014 -0.3521  2.1319
   96MOL   H24336533   0.185   2.521   4.277 -0.4351 -0.4139  0.3818
   96MOL   H24436534   0.364   2.713   4.430 -0.2358  2.0653 -0.2665
   96MOL   H24536535   0.224   2.753   4.327  0.7586  0.8914  0.4627
   96MOL   H24636536   0.453   2.600   4.213 -0.2214 -0.5019 -1.8863
   96MOL   H24736537   0.459   2.779   4.220 -1.1558  0.8974 -0.5962
   96MOL   H24836538   0.323   2.705   4.132  0.5360  0.4791 -0.9259
   96MOL   C24936539   0.159   2.365   4.786 -1.1343  0.1067 -0.0054
   96MOL   C25036540   0.218   2.239   4.724 -0.0453 -0.2645 -0.2918
   96MOL   O25136541   0.107   2.149   4.705  0.0943 -0.0742  0.0087
   96MOL   C25236542   0.071   2.139   4.566  1.0764 -0.3990 -0.2545
   96MOL   C25336543   7.773   2.026   4.547 -0.3679  0.4389 -0.2802
   96MOL   C25436544   7.636   2.047   4.606 -0.6006 -0.1694  0.2714
   96MOL   C25536545   7.556   1.916   4.585  0.3683  0.0676 -0.0893
   96MOL   H25636546   0.092   2.330   4.865  1.1933 -1.3999  1.3866
   96MOL   H25736547   0.238   2.433   4.818 -2.1406  0.3931  1.9350
   96MOL   H25836548   0.282   2.257   4.638 -2.7753  2.2366 -1.8882
   96MOL   H25936549   0.166   2.118   4.517  1.0416  1.6949 -1.3000
   96MOL   H26036550   0.043   2.235   4.521 -1.4572 -0.5591  0.8940
   96MOL   H26136551   7.742   2.015   4.443 -0.5125 -1.5246 -0.0446
   96MOL   H26236552   0.013   1.931   4.579 -0.3862  0.7498  0.6796
   96MOL   H26336553   7.635   2.062   4.714 -1.3953  1.3534  0.0717
   96MOL   H26436554   7.589   2.137   4.567  0.2715  1.3349  2.5918
   96MOL   H26536555   7.531   1.887   4.483 -0.5946 -0.1564  0.2062
   96MOL   H26636556   7.455   1.925   4.626  0.3249 -2.7408  0.5376
   96MOL   H26736557   7.599   1.822   4.620  0.5638  0.2780  0.2383
   96MOL   C26836558   0.310   2.183   4.836  0.4197  1.0703 -0.3650
   96MOL   C26936559   0.367   2.046   4.804  0.1859  0.0943 -0.4337
   96MOL   O27036560   0.448   2.078   4.685  0.2296  0.2048 -0.5535
   96MOL   C27136561   0.495   1.960   4.615 -0.4176  0.4919  0.2648
   96MOL   C27236562   0.595   2.005   4.502  0.1072  0.5679 -0.1980
   96MOL   C27336563   0.540   2.066   4.376  0.5613  0.7805  0.3560
   96MOL   C27436564   0.468   2.197   4.399 -1.3608 -0.3497  0.2645
   96MOL   H27536565   0.387   2.259   4.845  2.7097 -0.9822 -1.8049
   96MOL   H27636566   0.250   2.187   4.926  0.4177  0.5661 -0.3430
   96MOL   H27736567   0.289   1.976   4.773 -0.2822  0.0610  0.7895
   96MOL   H27836568   0.563   1.898   4.672  0.1982  0.3275 -0.6331
   96MOL   H27936569   0.419   1.889   4.582 -0.1839  0.5663 -0.4401
   96MOL   H28036570   0.662   2.084   4.536 -0.7607  2.8645 -3.5690
   96MOL   H28136571   0.666   1.926   4.481 -1.1779 -0.6091 -0.1872
   96MOL   H28236572   0.479   1.994   4.320  0.1876  0.4097  1.2401
   96MOL   H28336573   0.621   2.080   4.304 -1.4449  0.2386 -2.1039
   96MOL   H28436574   0.375   2.187   4.455 -1.6837 -0.5155 -0.3053
   96MOL   H28536575   0.448   2.236   4.300 -0.9726 -1.5602 -0.3007
   96MOL   H28636576   0.533   2.267   4.452  1.1608  0.3970 -3.5960
   96MOL   C28736577   0.454   1.985   4.921 -0.1691  0.3541 -0.0056
   96MOL   C28836578   0.377   1.940   5.055  0.3277  0.1840  0.3968
   96MOL   O28936579   0.469   1.902   5.153 -0.0491 -0.3502 -0.5372
   96MOL   C29036580   0.516   2.009   5.236  0.3597 -0.3162  0.2999
   96MOL   C29136581   0.668   1.997   5.261  0.0259  0.2814 -0.0112
   96MOL   C29236582   0.740   2.127   5.317 -0.1294 -0.4754  0.4838
   96MOL   C29336583   0.886   2.103   5.344  0.8576 -0.2021  0.0255
   96MOL   H29436584   0.527   2.060   4.952 -0.1193  0.9010 -1.3852
   96MOL   H29536585   0.515   1.903   4.882 -1.3830 -0.3150 -0.5494
   96MOL   H29636586   0.323   2.027   5.092 -1.4068 -0.5375 -0.3822
   96MOL   H29736587   0.492   2.105   5.191 -3.0638 -0.9442  0.6461
   96MOL   H29836588   0.459   2.009   5.329 -1.2934 -2.1943 -0.6779
   96MOL   H29936589   0.715   1.958   5.170 -1.1644 -0.3483 -0.3637
   96MOL   H30036590   0.676   1.917   5.335 -2.0054  1.3140  1.3681
   96MOL   H30136591   0.684   2.156   5.406 -2.3134 -0.8228 -0.7146
   96MOL   H30236592   0.727   2.205   5.241  0.1288 -1.7073 -0.8605
   96MOL   H30336593   0.933   2.185   5.398 -0.3719  0.7951 -0.3832
   96MOL   H30436594   0.899   2.011   5.401  0.4512 -0.6321 -0.5705
   96MOL   H30536595   0.941   2.093   5.250 -0.1778  0.5453 -0.6616
   96MOL   C30636596   0.278   1.822   5.031  0.7779 -0.6811  0.6236
   96MOL   C30736597   0.155   1.840   5.117  0.0004  0.3944 -0.3045
   96MOL   O30836598   0.085   1.715   5.121 -0.2415 -0.2111 -0.1174
   96MOL   C30936599   0.087   1.650   5.247  0.0455  0.2157 -0.3192
   96MOL   C31036600   7.787   1.537   5.228 -0.4185 -0.0744 -0.2542
   96MOL   C31136601   7.770   1.454   5.356 -0.2021  0.1772 -0.0776
   96MOL   C31236602   7.705   1.317   5.314  0.3516 -0.2918 -0.7772
   96MOL   H31336603   0.250   1.814   4.926  2.1828  0.3457  0.1481
   96MOL   H31436604   0.323   1.724   5.049  1.1023 -0.0822  3.2834
   96MOL   H31536605   0.183   1.867   5.219 -0.8252 -1.4827  0.4438
   96MOL   H31636606   0.054   1.723   5.321  0.1526  1.9104 -1.8987
   96MOL   H31736607   0.186   1.612   5.271  0.4695  2.4273  1.5678
   96MOL   H31836608   0.014   1.480   5.139  1.6360  0.3456  0.1213
   96MOL   H31936609   7.689   1.574   5.196 -0.0667  0.4242 -0.7705
   96MOL   H32036610   0.066   1.429   5.399 -0.1872  0.2685 -0.0592
   96MOL   H32136611   7.719   1.518   5.429  0.4009  3.9029 -2.7776
   96MOL   H32236612   7.774   1.267   5.246  1.0569 -0.4523  0.0475
   96MOL   H32336613   7.609   1.340   5.270  1.2694  0.1521 -2.5952
   96MOL   H32436614   7.688   1.246   5.395  0.1781 -0.2648 -0.7918
   96MOL   C32536615   0.059   1.937   5.050 -0.0603  0.5500  0.1675
   96MOL   C32636616   7.757   2.003   5.144 -0.2064 -0.2730 -0.2297
   96MOL   O32736617   7.739   2.147   5.128  0.3019  0.1540  0.5479
   96MOL   C32836618   0.051   2.225   5.165  0.3801 -0.1983  0.3652
   96MOL   C32936619   0.028   2.279   5.308  0.5595  0.0365  0.7597
   96MOL   C33036620   7.691   2.346   5.316 -0.4623  0.1658 -0.1602
   96MOL   C33136621   7.678   2.400   5.456 -0.6503 -0.0406  0.3465
   96MOL   H33236622   0.016   1.875   4.971 -1.6212 -0.2511  1.6124
   96MOL   H33336623   0.121   2.015   5.006 -0.7688  0.5901 -0.7859
   96MOL   H33436624   0.010   1.986   5.237  1.5763 -0.0829 -1.2242
   96MOL   H33536625   0.043   2.313   5.101  1.7143 -0.7593 -0.6195
   96MOL   H33636626   0.147   2.173   5.172  0.2870 -0.2641  1.1290
   96MOL   H33736627   0.039   2.204   5.386 -1.9225 -1.1681  0.0093
   96MOL   H33836628   0.108   2.349   5.332  1.8982 -0.6273 -1.6253
   96MOL   H33936629   7.612   2.274   5.296 -1.2313  0.1178  2.8051
   96MOL   H34036630   7.678   2.435   5.255  3.0770  2.5401  2.3113
   96MOL   H34136631   7.770   2.455   5.478 -0.0348 -0.6739 -0.6156
   96MOL   H34236632   7.651   2.323   5.527 -1.3626 -1.1435 -1.0972
   96MOL   H34336633   7.594   2.470   5.461 -0.6504 -0.0741  0.8509
   96MOL   C34436634   7.618   1.932   5.142 -0.5907 -0.7826 -0.4716
   96MOL   C34536635   7.541   1.970   5.273 -0.4971 -0.6734 -0.2263
   96MOL   O34636636   7.600   1.897   5.377 -0.2931 -0.1109  0.2098
   96MOL   C34736637   7.606   1.967   5.502 -0.3104  0.6823 -0.4631
   96MOL   C34836638   7.612   1.886   5.633 -0.3124 -0.1036  0.7754
   96MOL   C34936639   7.730   1.795   5.636 -0.0686  0.1123  0.0611
   96MOL   C35036640   7.702   1.701   5.754 -0.7820  0.0205 -0.7487
   96MOL   H35136641   7.560   1.961   5.055  1.7822 -1.0623 -2.2010
   96MOL   H35236642   7.638   1.825   5.140  0.8196 -0.5579  0.5752
   96MOL   H35336643   7.559   2.075   5.295 -1.5269 -0.5385 -0.0051
   96MOL   H35436644   7.528   2.042   5.517 -0.8257  0.0408  0.0864
   96MOL   H35536645   7.694   2.032   5.508 -0.7708  1.3553 -0.9899
   96MOL   H35636646   7.518   1.832   5.624  0.1563 -0.8539  0.2674
   96MOL   H35736647   7.614   1.951   5.720  1.7020 -1.6727  1.9287
   96MOL   H35836648   7.742   1.734   5.547 -2.9140  0.7628 -0.8381
   96MOL   H35936649   0.015   1.861   5.644 -0.0980  0.1387  0.1661
   96MOL   H36036650   7.610   1.642   5.745  0.9574 -3.0237  0.4978
   96MOL   H36136651   7.700   1.758   5.846 -1.2220 -0.4168 -0.4859
   96MOL   H36236652   7.775   1.623   5.776 -0.3821  0.2027 -1.4001
   96MOL   C36336653   7.394   1.935   5.271  0.1512  0.0766  0.6801
   96MOL   C36436654   7.301   2.020   5.181 -0.2073 -0.2672  0.0209
   96MOL   O36536655   7.169   2.011   5.212 -0.0209  0.1750  0.0449
   96MOL   C36636656   7.103   1.889   5.179 -0.0422  0.8759 -0.3176
   96MOL   C36736657   7.003   1.847   5.284  0.5490 -0.2832  0.2315
   96MOL   C36836658   6.871   1.938   5.288  0.0352  0.5046 -0.1281
   96MOL   C36936659   6.762   1.879   5.372 -0.1668  0.0132 -0.2995
   96MOL   H37036660   7.356   1.939   5.374  0.2287  0.0645  0.7083
   96MOL   H37136661   7.373   1.836   5.229 -2.2641  0.4506  0.9333
   96MOL   H37236662   7.318   2.003   5.075  3.2098 -0.0518  0.4621
   96MOL   H37336663   7.172   1.806   5.169 -2.3259 -1.3431  1.7526
   96MOL   H37436664   7.061   1.879   5.079  1.7546 -0.4120 -0.9634
   96MOL   H37536665   7.050   1.859   5.381  1.6221 -0.9024 -0.2031
   96MOL   H37636666   6.990   1.741   5.264  0.0546 -0.1184 -0.3296
   96MOL   H37736667   6.837   1.943   5.185 -1.3397  0.6517  0.3186
   96MOL   H37836668   6.908   2.038   5.311 -0.9057  0.3043  2.4502
   96MOL   H37936669   6.751   1.774   5.346 -0.5315 -0.5109  1.8334
   96MOL   H38036670   6.787   1.893   5.477 -2.0328  0.4969  0.1051
   96MOL   H38136671   6.665   1.927   5.360  0.6554  1.3813 -1.5915
   96MOL   H38236672   7.329   2.124   5.199  0.3213 -0.4702  0.3974
   97MOL     C136673   2.917   0.006   5.757  0.1079  0.8920  0.1072
   97MOL     C236674   2.867   0.103   5.650  0.0810 -0.7281  0.0218
   97MOL     O336675   2.983   0.126   5.576  0.7554 -0.4813 -0.6304
   97MOL     C436676   2.968   0.208   5.464 -0.2648  0.4909 -0.1349
   97MOL     C536677   3.099   0.208   5.377  0.1012 -0.6180 -0.0530
   97MOL     C636678   3.218   0.295   5.431  0.5102  0.0571  0.3495
   97MOL     C736679   3.282   0.227   5.548 -0.3453 -0.3157  0.5938
   97MOL     H836680   3.018   0.016   5.796  0.2540 -0.5932  0.1389
   97MOL     H936681   2.848   0.004   5.842 -0.3895  0.1633 -0.3171
   97MOL    H1036682   2.828   0.193   5.698  0.4738 -0.2278 -0.5887
   97MOL    H1136683   2.890   0.172   5.397 -1.2106  0.4943  0.9501
   97MOL    H1236684   2.944   0.308   5.501 -0.4082  0.0468  0.9896
   97MOL    H1336685   3.074   0.251   5.280 -0.1343  3.3457  1.6785
   97MOL    H1436686   3.146   0.114   5.347 -0.8684 -1.1651  0.1443
   97MOL    H1536687   3.185   0.396   5.458  0.6988  0.2694 -0.1991
   97MOL    H1636688   3.304   0.308   5.365 -0.9271 -2.6922 -2.1147
   97MOL    H1736689   3.376   0.277   5.571 -0.6388 -0.7215  2.8158
   97MOL    H1836690   3.323   0.129   5.523  0.4193  0.2197 -0.3141
   97MOL    H1936691   3.225   0.212   5.639 -0.6085 -0.3885  0.4176
   97MOL    H2036692   2.920   7.704   5.726  0.2024  1.4140 -1.6489
   97MOL    C2136693   2.756   0.035   5.568  0.2156  0.2505 -0.4635
   97MOL    C2236694   2.641   7.773   5.651  0.6732  0.3839 -0.2710
   97MOL    O2336695   2.568   0.073   5.716 -0.3864  0.2877 -0.4360
   97MOL    C2436696   2.522   0.043   5.846 -0.4475  0.1405 -0.2343
   97MOL    C2536697   2.474   0.163   5.927 -0.3928 -0.0024 -0.5916
   97MOL    C2636698   2.575   0.275   5.936  0.8145  0.6796 -0.2147
   97MOL    C2736699   2.517   0.382   6.027  0.2236  0.1327 -0.5979
   97MOL    H2836700   2.798   7.758   5.506  2.9363  0.5213  0.9644
   97MOL    H2936701   2.702   0.106   5.504 -1.8183 -1.2926 -0.5149
   97MOL    H3036702   2.681   7.709   5.729  1.0058  1.2949  0.3157
   97MOL    H3136703   2.604   7.801   5.903 -0.0533 -0.3178 -1.1505
   97MOL    H3236704   2.450   7.763   5.847  1.5159 -1.6460  0.2833
   97MOL    H3336705   2.388   0.207   5.878 -0.4445 -1.1247 -1.5248
   97MOL    H3436706   2.453   0.126   6.028 -2.1193 -0.5371 -1.1332
   97MOL    H3536707   2.669   0.236   5.975 -0.1357 -0.0124  1.4371
   97MOL    H3636708   2.594   0.320   5.839 -0.8436  1.8142 -0.0241
   97MOL    H3736709   2.582   0.468   6.015 -0.5176  0.7628 -0.1177
   97MOL    H3836710   2.417   0.412   5.993 -0.7359 -2.1575  0.1051
   97MOL    H3936711   2.521   0.352   6.131  0.9127  1.6150 -0.1902
   97MOL    C4036712   2.540   7.696   5.556 -0.2689  0.3088 -0.2437
   97MOL    C4136713   2.569   7.548   5.553  0.5290 -0.2383  0.9050
   97MOL    O4236714   2.491   7.491   5.448 -0.1337 -0.3596  0.0878
   97MOL    C4336715   2.561   7.492   5.322  0.5733 -0.4459  0.2394
   97MOL    C4436716   2.457   7.510   5.207 -0.1783 -0.0954  0.3302
   97MOL    C4536717   2.525   7.498   5.068 -0.0295  0.0718  0.2763
   97MOL    C4636718   2.411   7.489   4.967  0.0069 -0.3863  0.2491
   97MOL    H4736719   2.551   7.729   5.453 -0.0323  0.7309 -0.0854
   97MOL    H4836720   2.435   7.711   5.579  0.3830  3.9109  0.7249
   97MOL    H4936721   2.672   7.525   5.522  1.1327 -0.4591  3.0276
   97MOL    H5036722   2.603   7.392   5.313 -4.3346 -2.5819 -0.5300
   97MOL    H5136723   2.628   7.576   5.306  0.4762 -0.0179  1.9823
   97MOL    H5236724   2.414   7.610   5.208 -1.2502 -0.5557  0.4210
   97MOL    H5336725   2.381   7.433   5.217 -2.3126  2.2030  2.2289
   97MOL    H5436726   2.589   7.410   5.071 -0.8499 -0.4825  2.6290
   97MOL    H5536727   2.583   7.589   5.054 -0.5316  0.4375  0.5320
   97MOL    H5636728   2.343   7.404   4.977  1.0529 -1.3092 -0.2815
   97MOL    H5736729   2.359   7.584   4.969 -0.2896 -0.5292 -0.7545
   97MOL    H5836730   2.453   7.484   4.867  1.1941  2.1390  0.5883
   97MOL    C5936731   2.529   7.482   5.683  0.4070  0.0674 -0.1836
   97MOL    C6036732   2.548   7.332   5.681 -0.1404  0.5560  0.0181
   97MOL    O6136733   2.688   7.307   5.710 -0.3822 -0.4152  0.2422
   97MOL    C6236734   2.753   7.223   5.610  0.0459  0.6192 -0.3118
   97MOL    C6336735   2.904   7.206   5.637  0.6593  0.2966 -0.5136
   97MOL    C6436736   2.973   7.135   5.519 -0.3334 -0.2699 -0.2457
   97MOL    C6536737   3.125   7.105   5.541 -0.2905 -0.6248 -0.5713
   97MOL    H6636738   2.571   7.530   5.772  1.5460 -2.1625  0.5134
   97MOL    H6736739   2.422   7.500   5.695  0.7563  1.4566  1.1445
   97MOL    H6836740   2.511   7.298   5.585 -1.0754 -1.8461  1.1747
   97MOL    H6936741   2.746   7.272   5.514  3.0251  0.2798 -0.7498
   97MOL    H7036742   2.702   7.126   5.607 -0.5043  0.9029 -0.1858
   97MOL    H7136743   2.937   7.307   5.660 -0.4685  0.2521  1.3559
   97MOL    H7236744   2.936   7.147   5.723  0.3251 -2.2205 -2.0588
   97MOL    H7336745   2.916   7.054   5.474 -0.7867  0.4060 -0.9146
   97MOL    H7436746   2.971   7.206   5.436  0.6041 -0.3214 -0.3156
   97MOL    H7536747   3.170   7.162   5.622 -0.3538 -2.4070  0.7696
   97MOL    H7636748   3.138   7.002   5.574 -0.1618 -0.5692 -0.4465
   97MOL    H7736749   3.186   7.124   5.453  1.8179 -1.9106  0.5683
   97MOL    C7836750   2.471   7.272   5.800  0.2573  0.4423 -0.8033
   97MOL    C7936751   2.466   7.116   5.814 -0.2818 -0.0572 -0.1216
   97MOL    O8036752   2.351   7.076   5.885  0.0395  0.1204 -0.1885
   97MOL    C8136753   2.240   7.065   5.787  0.1671  0.4535  0.0726
   97MOL    C8236754   2.102   7.054   5.843  0.4883  0.1430  0.7881
   97MOL    C8336755   2.052   7.169   5.942  0.0245 -0.5416  0.0387
   97MOL    C8436756   2.060   7.317   5.886  0.0847  0.2756  0.0948
   97MOL    H8536757   2.366   7.300   5.786 -0.2484 -0.2308  1.4829
   97MOL    H8636758   2.497   7.324   5.892  0.5720  0.8908 -1.1428
   97MOL    H8736759   2.460   7.071   5.715  2.0865  0.8580 -0.7265
   97MOL    H8836760   2.260   6.973   5.732 -0.9569 -0.6490  1.4764
   97MOL    H8936761   2.245   7.140   5.708  2.3909 -0.0281 -0.2941
   97MOL    H9036762   2.028   7.047   5.763  2.5246 -0.8603 -1.0616
   97MOL    H9136763   2.097   6.956   5.888 -2.3955  0.3259  0.9527
   97MOL    H9236764   2.105   7.155   6.036  0.4749  0.6787 -0.0176
   97MOL    H9336765   1.948   7.144   5.964 -0.1017  0.2235  0.3374
   97MOL    H9436766   2.163   7.348   5.873  0.7410 -1.7941  0.1114
   97MOL    H9536767   2.007   7.318   5.791 -1.1802 -0.1756  0.7762
   97MOL    H9636768   2.019   7.392   5.953 -1.1048 -0.7613  0.5624
   97MOL    C9736769   2.582   7.058   5.888  0.1750  0.1276  0.2130
   97MOL    C9836770   2.591   6.905   5.887  0.3830 -0.1141 -0.2431
   97MOL    O9936771   2.642   6.865   5.759 -0.3076 -0.1612 -0.2943
   97MOL   C10036772   2.623   6.723   5.740  0.1378 -0.0670  0.6934
   97MOL   C10136773   2.689   6.696   5.601  0.1567  0.1147  0.0563
   97MOL   C10236774   2.839   6.735   5.594  0.1959  0.4422 -0.1360
   97MOL   C10336775   2.908   6.676   5.467 -0.0528 -0.6728  0.6011
   97MOL   H10436776   2.575   7.102   5.987  0.3689 -0.0690  0.3157
   97MOL   H10536777   2.678   7.091   5.848  0.3084 -2.2716 -1.5668
   97MOL   H10636778   2.493   6.861   5.901  0.6598 -0.4841  0.5646
   97MOL   H10736779   2.515   6.704   5.734 -0.0294  0.2741  2.3440
   97MOL   H10836780   2.661   6.659   5.820  1.9579 -0.8424 -0.7801
   97MOL   H10936781   2.641   6.754   5.522 -0.2259 -1.9415 -1.2838
   97MOL   H11036782   2.670   6.590   5.581  0.1209 -0.0891  1.1542
   97MOL   H11136783   2.896   6.713   5.684  0.4020  0.7989 -0.1828
   97MOL   H11236784   2.844   6.843   5.598  1.9606  0.4267 -1.2195
   97MOL   H11336785   3.003   6.725   5.444 -2.2170  2.1682 -2.7759
   97MOL   H11436786   2.940   6.575   5.490  1.7535 -0.1373  0.5598
   97MOL   H11536787   2.844   6.691   5.380 -0.8904  1.4151  1.5230
   97MOL   C11636788   2.687   6.854   5.985 -0.6554  0.0836 -0.2677
   97MOL   C11736789   2.628   6.750   6.095 -0.2486 -0.3144  0.0680
   97MOL   O11836790   2.735   6.720   6.182 -0.3975 -0.6028 -0.0820
   97MOL   C11936791   2.791   6.584   6.169  0.1011  0.7537  0.4657
   97MOL   C12036792   2.859   6.558   6.029 -0.8097 -0.9887 -0.1672
   97MOL   C12136793   2.954   6.433   6.029  0.6634  0.5202 -0.5490
   97MOL   C12236794   2.885   6.301   6.065  0.2369  0.8489  0.1269
   97MOL   H12336795   2.777   6.815   5.937  0.5019  0.6438  1.4169
   97MOL   H12436796   2.726   6.938   6.042  0.9361 -0.0963 -1.0643
   97MOL   H12536797   2.579   6.661   6.055 -1.7280 -0.3907  2.0127
   97MOL   H12636798   2.712   6.510   6.159  0.3434  0.5960 -0.3186
   97MOL   H12736799   2.846   6.557   6.260  1.6342 -0.9270 -0.9033
   97MOL   H12836800   2.922   6.641   5.997 -1.5495 -1.2360 -2.3535
   97MOL   H12936801   2.785   6.539   5.951 -0.3721  1.4074 -1.2278
   97MOL   H13036802   3.007   6.425   5.934  2.6048  1.2615  0.4322
   97MOL   H13136803   3.022   6.450   6.112  1.1359 -0.8814 -0.6276
   97MOL   H13236804   2.800   6.285   5.998  1.8333 -0.6794 -1.5936
   97MOL   H13336805   2.843   6.284   6.164  0.1886 -2.6127 -0.4385
   97MOL   H13436806   2.958   6.222   6.051 -1.7327 -0.9017 -0.6167
   97MOL   C13536807   2.530   6.811   6.193  0.7420  0.5288 -0.2598
   97MOL   C13636808   2.380   6.841   6.159  0.0842 -0.0276 -0.3151
   97MOL   O13736809   2.335   6.708   6.128  0.5225  0.6226  0.4891
   97MOL   C13836810   2.211   6.695   6.066  0.1160 -0.4333 -0.1950
   97MOL   C13936811   2.235   6.658   5.922 -0.7028 -0.2812  0.3628
   97MOL   C14036812   2.322   6.522   5.897  0.0940  0.1268 -0.0237
   97MOL   C14136813   2.332   6.475   5.750  0.5239  0.1466 -0.7677
   97MOL   H14236814   2.580   6.901   6.229 -3.1418  2.5023  0.4182
   97MOL   H14336815   2.519   6.737   6.272  3.2876 -0.2866 -0.6170
   97MOL   H14436816   2.380   6.904   6.070  0.1487  2.2684  1.2656
   97MOL   H14536817   2.153   6.787   6.079 -0.2958 -0.5455 -1.1811
   97MOL   H14636818   2.152   6.619   6.118 -1.5527  2.1867  1.8324
   97MOL   H14736819   2.271   6.741   5.861  0.3740  0.3251  1.7940
   97MOL   H14836820   2.136   6.641   5.879 -0.2682  1.9512 -1.6118
   97MOL   H14936821   2.424   6.533   5.934 -0.4616 -0.5033  1.7436
   97MOL   H15036822   2.287   6.435   5.953 -2.0126  1.9409  1.5881
   97MOL   H15136823   2.403   6.395   5.729  1.3505  1.0338 -1.3452
   97MOL   H15236824   2.234   6.439   5.718  0.0852  1.4926 -0.9651
   97MOL   H15336825   2.357   6.557   5.684  0.1904  1.7376  1.0465
   97MOL   C15436826   2.298   6.912   6.270 -0.7998 -0.1769  0.4528
   97MOL   C15536827   2.325   7.069   6.293  0.7413 -0.4186 -0.2591
   97MOL   O15636828   2.443   7.083   6.370  0.0316  0.0081 -0.3516
   97MOL   C15736829   2.550   7.166   6.310 -0.1652 -0.6406 -0.6259
   97MOL   C15836830   2.671   7.135   6.392  0.4556  0.2368 -0.2951
   97MOL   C15936831   2.782   7.232   6.382  0.3287 -0.1363 -0.0025
   97MOL   C16036832   2.886   7.214   6.501  0.1362 -0.6645  0.4213
   97MOL   H16136833   2.316   6.858   6.363 -0.4072 -0.9776 -0.0813
   97MOL   H16236834   2.194   6.905   6.239 -0.7148  1.5177 -0.2830
   97MOL   H16336835   2.316   7.119   6.196 -0.3890 -0.4421 -0.1686
   97MOL   H16436836   2.567   7.151   6.203 -0.3893  2.5762 -1.1731
   97MOL   H16536837   2.528   7.273   6.320 -0.9425 -0.9777  1.5975
   97MOL   H16636838   2.704   7.037   6.355  2.1229  0.5406  0.3296
   97MOL   H16736839   2.633   7.135   6.494 -1.2604  0.0056 -0.9236
   97MOL   H16836840   2.833   7.206   6.289 -0.9097  0.4310 -0.8646
   97MOL   H16936841   2.732   7.329   6.381  2.8412  1.2384  1.3697
   97MOL   H17036842   2.835   7.258   6.587  1.0974 -1.2895  1.3220
   97MOL   H17136843   2.921   7.112   6.511 -0.9886 -1.1322 -0.3303
   97MOL   H17236844   2.965   7.284   6.474 -1.4701  1.9602  2.2322
   97MOL   C17336845   2.216   7.137   6.379  0.1712 -0.5952  0.0140
   97MOL   C17436846   2.228   7.296   6.395  0.1629  0.6592  0.4453
   97MOL   O17536847   2.174   7.360   6.281 -0.3697 -0.1576 -0.5077
   97MOL   C17636848   2.180   7.497   6.250 -0.5975 -0.2008 -0.1762
   97MOL   C17736849   2.319   7.560   6.227 -0.1018  0.7020  0.1753
   97MOL   C17836850   2.379   7.509   6.091  0.5425  0.4307 -0.1787
   97MOL   C17936851   2.524   7.560   6.086  0.1998 -0.2176 -0.1991
   97MOL   H18036852   2.233   7.078   6.469 -0.1418 -2.6557 -1.2390
   97MOL   H18136853   2.114   7.116   6.347  0.0002  0.4811 -0.1718
   97MOL   H18236854   2.336   7.309   6.387  0.3755 -1.1060  0.2627
   97MOL   H18336855   2.122   7.559   6.318 -2.0371 -0.9775 -0.6671
   97MOL   H18436856   2.124   7.519   6.160  1.1525  0.4891 -1.1255
   97MOL   H18536857   2.379   7.545   6.316  0.8247 -0.3819 -0.6132
   97MOL   H18636858   2.310   7.669   6.220 -0.8423  0.5308 -1.9451
   97MOL   H18736859   2.384   7.403   6.064  0.0188  1.1556 -3.3639
   97MOL   H18836860   2.311   7.561   6.023 -0.4855 -1.0304 -0.3036
   97MOL   H18936861   2.592   7.521   6.010  1.6344 -1.6624  1.7722
   97MOL   H19036862   2.525   7.669   6.094 -0.0100 -0.0220 -2.5698
   97MOL   H19136863   2.558   7.528   6.185  0.8091 -0.5584 -0.5207
   97MOL   C19236864   2.166   7.363   6.523  0.7314 -0.2534 -0.0816
   97MOL   C19336865   2.260   7.447   6.613  0.0572  0.3420 -0.7826
   97MOL   O19436866   2.199   7.484   6.737  0.2340  0.1396  0.8123
   97MOL   C19536867   2.156   7.615   6.741  0.1577 -1.1878  0.2489
   97MOL   C19636868   2.042   7.641   6.835  0.2147 -0.3122  0.4806
   97MOL   C19736869   1.918   7.563   6.790  0.0467  0.3298  0.7299
   97MOL   C19836870   1.807   7.586   6.889  0.1174 -0.1799 -0.0354
   97MOL   H19936871   2.124   7.291   6.593 -0.9398 -0.9996 -1.8313
   97MOL   H20036872   2.080   7.421   6.493  1.6233  0.0302 -2.1836
   97MOL   H20136873   2.296   7.525   6.546 -1.3133 -1.5525 -3.9077
   97MOL   H20236874   2.138   7.656   6.642  1.4247  1.4613  1.0908
   97MOL   H20336875   2.246   7.667   6.770  0.3712 -1.5710  0.2798
   97MOL   H20436876   2.062   7.603   6.935 -0.3842 -1.9285  0.0100
   97MOL   H20536877   2.006   7.744   6.840  0.7606 -0.1584  1.2643
   97MOL   H20636878   1.919   7.454   6.791  0.0763  0.3350  1.6827
   97MOL   H20736879   1.879   7.592   6.692  1.2355  0.2515  0.2232
   97MOL   H20836880   1.727   7.512   6.876  0.9733 -1.2139  0.5610
   97MOL   H20936881   1.834   7.559   6.991  1.8805  0.5344 -0.3087
   97MOL   H21036882   1.760   7.684   6.892 -0.5116 -0.5099  1.0260
   97MOL   C21136883   2.377   7.349   6.654  0.0054  0.1455  0.3344
   97MOL   C21236884   2.490   7.419   6.723 -0.1744  0.0832  0.4364
   97MOL   O21336885   2.573   7.311   6.785 -0.2062 -0.6174  0.2648
   97MOL   C21436886   2.561   7.327   6.928  0.3413 -0.0041 -0.3613
   97MOL   C21536887   2.629   7.213   7.009  0.1437  0.1751  0.0195
   97MOL   C21636888   2.585   7.233   7.149  0.1667  0.6515 -0.6428
   97MOL   C21736889   2.638   7.356   7.231 -0.3274 -0.4124  0.5031
   97MOL   H21836890   2.424   7.280   6.584 -2.0013 -2.1278  1.1357
   97MOL   H21936891   2.329   7.283   6.728  2.0824  0.5036  2.0528
   97MOL   H22036892   2.450   7.492   6.794 -0.3611  1.2056 -0.8027
   97MOL   H22136893   2.616   7.418   6.951 -1.0622  0.6644  0.4425
   97MOL   H22236894   2.454   7.334   6.949  0.3448  1.5037 -0.7376
   97MOL   H22336895   2.578   7.120   6.984 -2.6555  1.3161  1.2640
   97MOL   H22436896   2.737   7.206   6.999  0.2121  3.5799 -2.5291
   97MOL   H22536897   2.625   7.145   7.200  0.5184  0.7489 -0.7561
   97MOL   H22636898   2.478   7.220   7.169  0.2066 -3.2579 -2.4483
   97MOL   H22736899   2.622   7.454   7.187  1.9078  0.4191  1.4398
   97MOL   H22836900   2.746   7.341   7.243 -0.2225  0.1654  0.3197
   97MOL   H22936901   2.605   7.346   7.334  1.4851  1.7945  1.3667
   97MOL   C23036902   2.568   7.499   6.613  0.2634 -0.1142 -0.0019
   97MOL   C23136903   2.688   7.576   6.663  0.3634  0.3140  0.5391
   97MOL   O23236904   2.732   7.621   6.534 -0.4157 -0.1226  0.5192
   97MOL   C23336905   2.871   7.632   6.508  0.1072 -0.5664  0.5519
   97MOL   C23436906   2.911   7.594   6.367  0.3054 -0.3097  0.3659
   97MOL   C23536907   3.059   7.577   6.369  0.2514 -0.0884  0.4232
   97MOL   C23636908   3.122   7.592   6.228  0.1869  0.0845 -0.5767
   97MOL   H23736909   2.498   7.576   6.582 -0.8523 -0.6423  1.1513
   97MOL   H23836910   2.597   7.437   6.528 -2.0173 -0.5003 -0.5155
   97MOL   H23936911   2.760   7.504   6.704 -0.5949 -1.1472 -0.3093
   97MOL   H24036912   2.901   7.734   6.531  1.1907 -0.8150  0.2755
   97MOL   H24136913   2.921   7.559   6.572  2.0803 -0.9760 -1.4038
   97MOL   H24236914   2.860   7.503   6.333  0.4519  0.1904 -1.1918
   97MOL   H24336915   2.876   7.676   6.305  1.3313  0.3409  0.6335
   97MOL   H24436916   3.072   7.478   6.412 -0.6715 -0.3305  0.1696
   97MOL   H24536917   3.107   7.652   6.430  0.4933 -1.2570  1.7005
   97MOL   H24636918   3.113   7.692   6.186  1.8823  0.0005 -1.1940
   97MOL   H24736919   3.071   7.527   6.157 -1.6582  1.1862 -0.2897
   97MOL   H24836920   3.227   7.562   6.234 -0.1841 -1.0094  1.0300
   97MOL   C24936921   2.662   7.700   6.758 -0.5691  0.0274 -0.5572
   97MOL   C25036922   2.781   7.747   6.838 -0.6373  0.4010 -0.1355
   97MOL   O25136923   2.822   7.635   6.917  0.7410  0.3191  0.0349
   97MOL   C25236924   2.955   7.637   6.963 -0.2410 -0.7959  0.2658
   97MOL   C25336925   3.017   7.500   6.984 -0.3903 -0.2950  0.1769
   97MOL   C25436926   3.029   7.411   6.858  0.0564  0.2474 -0.6983
   97MOL   C25536927   3.096   7.272   6.872  0.0197  0.5088  0.9023
   97MOL   H25636928   2.574   7.683   6.821 -0.2884 -0.6452 -0.3495
   97MOL   H25736929   2.622   7.782   6.698 -1.5670  0.0134  0.0734
   97MOL   H25836930   2.863   7.768   6.770  0.5762 -0.6746  0.9470
   97MOL   H25936931   2.965   7.696   7.054 -2.7162  0.7890 -0.4430
   97MOL   H26036932   3.015   7.689   6.888 -1.2722  0.2277  0.1493
   97MOL   H26136933   3.116   7.521   7.023 -0.8513  0.3996  1.0087
   97MOL   H26236934   2.972   7.441   7.065  3.6717 -2.2789  1.1062
   97MOL   H26336935   2.934   7.383   6.811 -0.6603  0.3668  0.6369
   97MOL   H26436936   3.087   7.463   6.782  0.3960 -0.7058 -1.0959
   97MOL   H26536937   3.205   7.278   6.879 -0.0201 -0.9198  3.2279
   97MOL   H26636938   3.075   7.210   6.785 -1.8681  0.1472  1.5907
   97MOL   H26736939   3.065   7.231   6.968  1.6866 -1.4720  0.6269
   97MOL   C26836940   2.756   0.064   6.930  0.6150  0.2052  0.4815
   97MOL   C26936941   2.719   0.194   6.855  0.0759  0.4845 -0.1159
   97MOL   O27036942   2.705   0.304   6.949 -0.0030 -0.4826  0.5733
   97MOL   C27136943   2.605   0.301   7.051  0.5142  0.0965  0.2128
   97MOL   C27236944   2.461   0.342   7.007  0.5645  0.0090  0.3727
   97MOL   C27336945   2.454   0.486   6.950  0.3937  0.2031 -0.2609
   97MOL   C27436946   2.306   0.541   6.929  0.0387  0.0619  0.9018
   97MOL   H27536947   2.674   0.025   6.989  0.2755  0.4896  0.2053
   97MOL   H27636948   2.846   0.099   6.981 -1.4945  2.5905  2.6901
   97MOL   H27736949   2.619   0.179   6.815 -0.4875  0.3016  1.3091
   97MOL   H27836950   2.611   0.211   7.112 -1.3573 -0.4922 -0.4244
   97MOL   H27936951   2.632   0.383   7.118  0.2627  0.9089 -0.6763
   97MOL   H28036952   2.428   0.274   6.929 -1.1374  1.4809 -0.2204
   97MOL   H28136953   2.404   0.327   7.098  0.8603  1.6204  0.8558
   97MOL   H28236954   2.511   0.488   6.858 -0.8052  0.4631 -1.0082
   97MOL   H28336955   2.507   0.545   7.025  0.5989 -0.7156  0.3384
   97MOL   H28436956   2.311   0.649   6.915 -0.5423 -0.0160  0.1102
   97MOL   H28536957   2.250   0.512   7.018  0.5755 -1.2335  0.8307
   97MOL   H28636958   2.245   0.491   6.854 -0.6654  1.5651  0.4443
   97MOL   C28736959   2.812   0.241   6.749  0.1021 -0.6435  0.2104
   97MOL   C28836960   2.800   0.381   6.680  0.6451 -0.0271 -0.6120
   97MOL   O28936961   2.725   0.387   6.565  0.1892  0.6559  0.3120
   97MOL   C29036962   2.586   0.379   6.582 -0.4427  1.0167  0.0159
   97MOL   C29136963   2.527   0.303   6.463 -0.0245  0.2394  0.3364
   97MOL   C29236964   2.587   0.162   6.454  0.2611  0.5245 -0.7203
   97MOL   C29336965   2.569   0.094   6.316  0.1873 -0.3463 -0.2624
   97MOL   H29436966   2.819   0.167   6.670  2.3423  0.2196 -0.4518
   97MOL   H29536967   2.909   0.246   6.800  0.2176  1.4443 -0.1418
   97MOL   H29636968   2.764   0.455   6.752  0.4763  0.7529 -1.4890
   97MOL   H29736969   2.550   0.346   6.679  1.5955  0.1144  0.4909
   97MOL   H29836970   2.553   0.482   6.583  0.8031  1.4315  2.5711
   97MOL   H29936971   2.565   0.352   6.373 -0.1351 -0.6446 -0.2044
   97MOL   H30036972   2.418   0.305   6.464 -0.0580  3.1219 -1.9469
   97MOL   H30136973   2.537   0.108   6.534 -0.8241  2.9687  0.2951
   97MOL   H30236974   2.693   0.162   6.481  0.1896  0.3623 -0.4385
   97MOL   H30336975   2.618   7.799   6.314  1.0349  0.0578  0.5776
   97MOL   H30436976   2.462   0.081   6.298  0.1877  1.0838 -1.3677
   97MOL   H30536977   2.607   0.158   6.237  1.4038 -0.2526  0.3898
   97MOL   C30636978   2.938   0.443   6.631 -0.3260 -0.1788 -0.5441
   97MOL   C30736979   3.053   0.482   6.732  0.4869 -0.8718  0.5863
   97MOL   O30836980   3.129   0.363   6.763 -0.3513  0.0766  0.5694
   97MOL   C30936981   3.251   0.349   6.691  0.4286 -0.2521 -1.2143
   97MOL   C31036982   3.306   0.211   6.734  0.2009  0.1750 -0.0327
   97MOL   C31136983   3.215   0.096   6.693  0.3870  0.2507  0.2428
   97MOL   C31236984   3.286   7.767   6.745 -0.2055  0.3842  0.2626
   97MOL   H31336985   2.995   0.376   6.567  0.4388  0.1155 -0.1842
   97MOL   H31436986   2.917   0.524   6.562  0.6165  1.2375  0.7753
   97MOL   H31536987   3.115   0.549   6.672 -1.6209 -1.1072 -1.9504
   97MOL   H31636988   3.323   0.429   6.711 -0.8723  0.6916 -0.2605
   97MOL   H31736989   3.232   0.354   6.584  1.3328  1.1549 -1.3375
   97MOL   H31836990   3.341   0.204   6.837  1.4590  0.0161 -0.4625
   97MOL   H31936991   3.395   0.194   6.672  0.3190 -0.4582  0.3062
   97MOL   H32036992   3.123   0.113   6.749 -0.5937 -1.1529 -0.8902
   97MOL   H32136993   3.186   0.091   6.588 -0.3936 -3.9792  0.5706
   97MOL   H32236994   3.277   7.737   6.849  0.3569 -2.4310 -0.4643
   97MOL   H32336995   3.392   7.766   6.723 -0.2099  0.5647  0.2286
   97MOL   H32436996   3.238   7.679   6.701  2.2784  0.0196 -1.8094
   97MOL   C32536997   3.006   0.542   6.867 -0.1579 -0.3821  0.0284
   97MOL   C32636998   2.913   0.665   6.861 -0.0523 -0.2756 -0.0584
   97MOL   O32736999   2.897   0.708   6.998  0.5212  0.0741  0.4432
   97MOL   C32837000   2.786   0.642   7.059 -0.2248 -0.2052  0.5171
   97MOL   C32937001   2.758   0.719   7.192  0.1789 -0.0780  0.1189
   97MOL   C33037002   2.872   0.727   7.294  0.0195 -0.1026  0.6593
   97MOL   C33137003   2.831   0.796   7.420  0.2371 -0.3228 -0.7821
   97MOL   H33237004   3.096   0.559   6.925 -0.1751 -0.4339  0.0699
   97MOL   H33337005   2.956   0.457   6.914  0.3610  1.1677  3.4874
   97MOL   H33437006   2.819   0.643   6.811 -0.3304  1.9053 -0.5145
   97MOL   H33537007   2.807   0.536   7.075 -1.2139 -0.8717 -2.3979
   97MOL   H33637008   2.697   0.645   6.996 -0.0032  0.0412  0.2157
   97MOL   H33737009   2.733   0.821   7.165 -0.1683 -0.1063  0.3305
   97MOL   H33837010   2.672   0.687   7.252 -0.3016 -0.3652 -0.7160
   97MOL   H33937011   2.956   0.776   7.247 -0.1592  0.7426  1.2005
   97MOL   H34037012   2.903   0.624   7.314  0.3162 -0.3403 -0.9827
   97MOL   H34137013   2.924   0.810   7.475 -0.6905  0.5136  0.5766
   97MOL   H34237014   2.750   0.742   7.469  0.4971 -0.3654 -0.3999
   97MOL   H34337015   2.802   0.898   7.396 -2.0051 -0.5698  0.8173
   97MOL   C34437016   2.971   0.779   6.779 -0.1248 -0.2376  0.0276
   97MOL   C34537017   2.880   0.905   6.769 -0.0159 -0.0640  0.0912
   97MOL   O34637018   2.761   0.864   6.689  0.2182 -0.1083 -0.5310
   97MOL   C34737019   2.647   0.944   6.708  0.1293  0.0041  0.5809
   97MOL   C34837020   2.540   0.914   6.601 -0.2550  0.3393 -0.3117
   97MOL   C34937021   2.492   0.767   6.625  0.4128 -0.1950  0.1828
   97MOL   C35037022   2.380   0.723   6.527  0.6103  0.2827  0.3500
   97MOL   H35137023   3.070   0.802   6.818  0.8359 -2.8874 -0.7430
   97MOL   H35237024   2.992   0.741   6.679 -0.3378  2.2137 -1.0044
   97MOL   H35337025   2.860   0.922   6.875 -0.5322 -1.6560  0.2648
   97MOL   H35437026   2.679   1.049   6.705  2.4252 -0.6871  0.0427
   97MOL   H35537027   2.599   0.914   6.801 -1.7856 -1.4466 -0.8339
   97MOL   H35637028   2.569   0.938   6.498 -2.2561  2.2326 -0.4823
   97MOL   H35737029   2.457   0.983   6.618 -1.6851 -1.4000 -0.0707
   97MOL   H35837030   2.573   0.696   6.607  0.8300  0.1625  0.6556
   97MOL   H35937031   2.451   0.764   6.726  0.0723  0.8161  0.0825
   97MOL   H36037032   2.299   0.795   6.518  0.2483 -0.2263 -0.4724
   97MOL   H36137033   2.331   0.631   6.557  0.9984  0.0377  0.2384
   97MOL   H36237034   2.420   0.716   6.425  0.9894 -0.2707  0.5351
   97MOL   C36337035   2.951   1.026   6.699  0.1186  0.4512  0.5012
   97MOL   C36437036   3.032   1.003   6.564 -0.5290 -0.1639  0.2952
   97MOL   O36537037   3.109   1.116   6.531  0.7906  0.0044 -0.3788
   97MOL   C36637038   3.167   1.105   6.403 -0.6202 -0.4694  0.0701
   97MOL   C36737039   3.228   1.245   6.368 -0.5251  0.1305 -0.0496
   97MOL   C36837040   3.375   1.246   6.397 -0.0004  0.7835  0.3570
   97MOL   C36937041   3.424   1.393   6.404  0.3799 -0.1288 -0.1391
   97MOL   H37037042   3.019   1.058   6.778 -1.6492  0.7613  1.9351
   97MOL   H37137043   2.884   1.112   6.689  1.0055  0.8462 -2.3774
   97MOL   H37237044   2.969   0.975   6.480 -1.3330 -1.9745  1.4695
   97MOL   H37337045   3.083   1.104   6.334  1.7049 -0.9053 -2.8481
   97MOL   H37437046   3.236   1.023   6.388  0.0640  0.2633 -0.8711
   97MOL   H37537047   3.177   1.319   6.429 -0.0794 -1.3175  2.1527
   97MOL   H37637048   3.217   1.273   6.264 -0.9804  1.5640  0.3762
   97MOL   H37737049   3.439   1.183   6.335 -1.1636 -0.6077  0.5364
   97MOL   H37837050   3.393   1.203   6.496 -0.6399  4.1632  2.0153
   97MOL   H37937051   3.514   1.408   6.463  0.4105  2.2666 -0.7651
   97MOL   H38037052   3.439   1.434   6.304 -0.3496  0.2086 -0.1128
   97MOL   H38137053   3.345   1.452   6.451 -0.5959 -1.3809 -0.1726
   97MOL   H38237054   3.109   0.926   6.576  0.0220  0.4532  0.7729
   98MOL     C137055   3.877   5.796   4.742 -0.2254 -0.0781  0.2755
   98MOL     C237056   3.873   5.791   4.583  0.2271  0.6456 -0.3899
   98MOL     O337057   3.997   5.745   4.535 -0.0231  0.1359  0.4383
   98MOL     C437058   4.092   5.829   4.471 -0.0620 -0.0878  0.5130
   98MOL     C537059   4.191   5.890   4.571 -0.4006  0.3064 -0.2244
   98MOL     C637060   4.304   5.800   4.614 -0.5772  0.0112  0.1322
   98MOL     C737061   4.407   5.858   4.713  0.7996 -0.2130  0.3996
   98MOL     H837062   3.954   5.865   4.777  0.9284 -2.2199  2.0066
   98MOL     H937063   3.779   5.834   4.772 -0.6679 -1.1128  0.1426
   98MOL    H1037064   3.856   5.894   4.551 -1.3202  0.5935  0.1907
   98MOL    H1137065   4.143   5.773   4.393 -0.0175  1.4052 -0.5630
   98MOL    H1237066   4.040   5.912   4.422  3.1375  0.1619 -2.6548
   98MOL    H1337067   4.135   5.932   4.655 -1.5857  0.3659 -1.0454
   98MOL    H1437068   4.238   5.979   4.528  0.7158  0.2927  0.9366
   98MOL    H1537069   4.358   5.785   4.521 -1.6191 -0.7610 -0.3591
   98MOL    H1637070   4.257   5.707   4.646  1.3505 -0.8926  0.4493
   98MOL    H1737071   4.476   5.779   4.742 -0.7530 -1.2411  1.4215
   98MOL    H1837072   4.364   5.886   4.810  0.3691 -0.9141  0.4237
   98MOL    H1937073   4.464   5.942   4.674 -2.1679  1.1986 -1.0791
   98MOL    H2037074   3.899   5.701   4.791  2.3625  1.0712  1.4358
   98MOL    C2137075   3.757   5.694   4.530  0.0019 -0.2147 -0.1930
   98MOL    C2237076   3.700   5.740   4.395  0.2457  0.2372  0.4662
   98MOL    O2337077   3.622   5.636   4.334  0.0507 -0.5933 -0.5611
   98MOL    C2437078   3.696   5.520   4.275  0.7485 -0.1506 -0.6025
   98MOL    C2537079   3.599   5.416   4.220  0.0579 -0.6163  0.3101
   98MOL    C2637080   3.689   5.305   4.146 -0.7831 -0.1867  0.0600
   98MOL    C2737081   3.728   5.338   4.001  0.8225  0.6399 -0.4323
   98MOL    H2837082   3.675   5.687   4.601  0.9070  4.6008  1.5807
   98MOL    H2937083   3.799   5.595   4.511 -0.3229  0.1249 -2.8827
   98MOL    H3037084   3.784   5.767   4.332 -0.8132 -0.4044 -1.2668
   98MOL    H3137085   3.747   5.469   4.357 -0.4474  0.9066  0.8407
   98MOL    H3237086   3.760   5.555   4.194  0.1860  1.3683 -0.4214
   98MOL    H3337087   3.537   5.370   4.296  0.4267 -0.5930  0.6263
   98MOL    H3437088   3.530   5.462   4.150  0.8720 -0.8047 -0.6288
   98MOL    H3537089   3.776   5.272   4.202 -0.6854 -1.9655 -1.0868
   98MOL    H3637090   3.620   5.221   4.137 -0.7789 -0.3409  1.4547
   98MOL    H3737091   3.649   5.347   3.926 -1.7584 -1.2178  1.9564
   98MOL    H3837092   3.789   5.428   3.996 -0.5092  1.4869 -1.8390
   98MOL    H3937093   3.797   5.264   3.961  0.3849 -0.7704  1.3799
   98MOL    C4037094   3.606   5.861   4.399 -0.2268  0.1254 -0.3273
   98MOL    C4137095   3.585   5.931   4.260  0.4658  0.3650 -0.8906
   98MOL    O4237096   3.708   5.976   4.209 -0.7031 -0.4824 -0.8083
   98MOL    C4337097   3.755   5.906   4.094  0.1792  0.2367  0.2467
   98MOL    C4437098   3.877   5.987   4.034 -0.2155 -0.3280  0.3509
   98MOL    C4537099   4.003   5.988   4.130  1.0163  0.1284  0.0991
   98MOL    C4637100   4.105   6.098   4.087 -0.2318  0.0203  0.7855
   98MOL    H4737101   3.653   5.936   4.463  0.2169  1.0569 -1.7188
   98MOL    H4837102   3.514   5.836   4.452 -0.2051  4.2844  1.8291
   98MOL    H4937103   3.539   5.866   4.187 -0.6132  0.2445 -0.1049
   98MOL    H5037104   3.680   5.903   4.015  0.6894  1.8366 -0.3120
   98MOL    H5137105   3.790   5.806   4.119 -2.2112 -0.5033  0.7785
   98MOL    H5237106   3.844   6.090   4.019  0.1333 -0.0824  1.2546
   98MOL    H5337107   3.900   5.931   3.944 -2.6629 -1.4684  0.3887
   98MOL    H5437108   4.063   5.897   4.131 -0.3385 -0.7653  0.9786
   98MOL    H5537109   3.955   6.011   4.225 -2.3013  0.4176 -1.5976
   98MOL    H5637110   4.068   6.200   4.098  1.6781  0.7109  0.9972
   98MOL    H5737111   4.192   6.092   4.152 -0.5532  0.3048  1.2424
   98MOL    H5837112   4.149   6.079   3.989 -0.7877  1.0991  0.3204
   98MOL    C5937113   3.511   6.068   4.270 -0.1750 -0.8943 -0.1297
   98MOL    C6037114   3.488   6.152   4.141 -0.4700  0.1247  0.7402
   98MOL    O6137115   3.440   6.057   4.043 -0.5453 -0.3883 -1.1686
   98MOL    C6237116   3.470   6.096   3.907 -0.8999 -0.0094  0.1878
   98MOL    C6337117   3.379   6.024   3.808  0.1559  0.7242 -0.9508
   98MOL    C6437118   3.418   6.038   3.665 -0.7437 -0.3233  0.1236
   98MOL    C6537119   3.362   6.160   3.598  0.3594  0.2291  0.2336
   98MOL    H6637120   3.412   6.030   4.297 -1.4277  0.8052 -2.1578
   98MOL    H6737121   3.547   6.138   4.345 -0.8701  0.9878 -1.5177
   98MOL    H6837122   3.580   6.190   4.096 -0.6259  1.2143  1.3293
   98MOL    H6937123   3.576   6.077   3.890 -0.5222 -1.0150  3.2493
   98MOL    H7037124   3.451   6.203   3.900 -1.1567  0.1378  2.4744
   98MOL    H7137125   3.379   5.917   3.827  1.5511  1.0344  0.9352
   98MOL    H7237126   3.274   6.053   3.819 -0.2469 -0.7165 -0.9575
   98MOL    H7337127   3.526   6.045   3.658 -0.9057  1.0171 -1.4517
   98MOL    H7437128   3.378   5.955   3.606 -2.7168  0.0975  0.8401
   98MOL    H7537129   3.376   6.258   3.644 -1.8579 -0.3355  2.2036
   98MOL    H7637130   3.412   6.168   3.501  2.5709  1.6536  1.4425
   98MOL    H7737131   3.255   6.151   3.582  0.3138 -0.0309  0.6958
   98MOL    C7837132   3.390   6.278   4.154  0.6982 -0.8309 -0.7537
   98MOL    C7937133   3.435   6.390   4.245  1.0849  0.3525 -0.1797
   98MOL    O8037134   3.340   6.494   4.235 -0.3857  0.0103 -0.2487
   98MOL    C8137135   3.272   6.527   4.355 -0.9987  0.0303  0.1316
   98MOL    C8237136   3.133   6.585   4.320 -0.5656 -0.7974  0.1797
   98MOL    C8337137   3.047   6.605   4.447 -0.4488 -0.1488  0.3879
   98MOL    C8437138   3.106   6.706   4.554 -0.0623  0.2977  0.2685
   98MOL    H8537139   3.296   6.241   4.196  1.8438 -2.2322  0.6321
   98MOL    H8637140   3.370   6.320   4.055  2.2814 -0.6195 -0.9851
   98MOL    H8737141   3.430   6.358   4.349 -2.1520 -1.9517 -0.9854
   98MOL    H8837142   3.334   6.596   4.412 -1.3714  0.0743  0.4870
   98MOL    H8937143   3.271   6.445   4.427  0.4366 -0.9445 -0.9224
   98MOL    H9037144   3.142   6.678   4.264 -0.9769 -0.9717 -0.1904
   98MOL    H9137145   3.086   6.514   4.251  3.1445  0.1812 -3.5894
   98MOL    H9237146   3.040   6.502   4.481  0.5845 -0.9603 -1.7959
   98MOL    H9337147   2.950   6.643   4.417  0.5036 -0.4585 -3.2591
   98MOL    H9437148   3.198   6.666   4.596  0.6725  2.4838  0.7927
   98MOL    H9537149   3.152   6.794   4.509  0.9407  0.1692  1.0213
   98MOL    H9637150   3.027   6.728   4.626  0.9746 -2.0022  2.1918
   98MOL    C9737151   3.577   6.450   4.229 -0.1926 -0.1816 -0.2351
   98MOL    C9837152   3.622   6.540   4.344  0.0161 -0.0542 -0.0204
   98MOL    O9937153   3.601   6.460   4.462  0.4353 -0.0054  0.6985
   98MOL   C10037154   3.561   6.529   4.576 -0.4457  0.5074 -0.8310
   98MOL   C10137155   3.516   6.413   4.671  0.0875 -0.3624 -0.0837
   98MOL   C10237156   3.497   6.456   4.822 -0.0462 -0.5252 -0.7106
   98MOL   C10337157   3.462   6.339   4.914  0.1049 -0.1713 -0.1572
   98MOL   H10437158   3.582   6.509   4.138  0.9048  0.1022  0.0065
   98MOL   H10537159   3.650   6.369   4.223  0.0522 -0.1563  1.8579
   98MOL   H10637160   3.565   6.633   4.352 -1.1096 -0.7110 -0.2204
   98MOL   H10737161   3.486   6.608   4.569 -3.9815 -2.7063 -0.7652
   98MOL   H10837162   3.651   6.565   4.625 -0.8971 -0.8120  1.0087
   98MOL   H10937163   3.585   6.328   4.666  0.3111 -0.1257 -1.1635
   98MOL   H11037164   3.426   6.366   4.633  0.8701 -1.8239 -0.1888
   98MOL   H11137165   3.410   6.521   4.826 -0.3893 -0.8790 -2.0338
   98MOL   H11237166   3.574   6.515   4.871 -0.7828 -1.5033  1.7189
   98MOL   H11337167   3.549   6.277   4.935 -1.8869 -3.3643 -0.8949
   98MOL   H11437168   3.413   6.364   5.008  1.3854  0.9068  0.2410
   98MOL   H11537169   3.394   6.272   4.861 -0.9373  2.0407 -1.7122
   98MOL   C11637170   3.773   6.578   4.331 -0.1573 -0.0728 -0.0935
   98MOL   C11737171   3.795   6.697   4.234 -0.1516 -0.4925 -0.0596
   98MOL   O11837172   3.720   6.804   4.287  0.0765 -0.9419  0.3236
   98MOL   C11937173   3.697   6.922   4.201  0.0180 -0.3679 -0.1164
   98MOL   C12037174   3.615   7.026   4.289 -1.1138 -0.1314 -0.4313
   98MOL   C12137175   3.483   6.960   4.349 -0.1964 -0.3305 -0.1990
   98MOL   C12237176   3.357   7.053   4.335  0.1506 -0.3558 -0.7262
   98MOL   H12337177   3.810   6.604   4.430  0.9712 -1.5784 -0.1056
   98MOL   H12437178   3.832   6.492   4.302  0.2516 -0.2053  1.0995
   98MOL   H12537179   3.754   6.670   4.137  0.6850  0.0044 -0.5515
   98MOL   H12637180   3.634   6.886   4.119  1.2788 -0.5962 -0.9954
   98MOL   H12737181   3.790   6.959   4.159 -0.0516 -1.9999 -1.7968
   98MOL   H12837182   3.585   7.107   4.223 -0.4476 -2.0496 -3.1982
   98MOL   H12937183   3.671   7.072   4.370 -0.9730  0.7670 -1.0417
   98MOL   H13037184   3.460   6.868   4.296 -0.3120 -1.4150  1.7049
   98MOL   H13137185   3.507   6.905   4.440 -1.7251  1.4058  1.3169
   98MOL   H13237186   3.306   7.031   4.241  1.2006  2.1507 -1.9475
   98MOL   H13337187   3.377   7.161   4.336 -3.1066  0.2913  0.5265
   98MOL   H13437188   3.272   7.037   4.402  1.2429  0.6484  0.9420
   98MOL   C13537189   3.941   6.744   4.229 -0.1706  0.3245 -0.8918
   98MOL   C13637190   4.051   6.649   4.168 -0.2229  0.6087  0.3500
   98MOL   O13737191   4.003   6.603   4.040 -0.2497  0.1505 -0.1830
   98MOL   C13837192   4.003   6.462   4.021  0.0836 -0.3393  0.0358
   98MOL   C13937193   3.916   6.432   3.897  0.5159 -0.3587  0.2401
   98MOL   C14037194   3.764   6.458   3.930 -0.1245  0.3912 -0.0186
   98MOL   C14137195   3.666   6.439   3.813 -0.4095  0.5552 -0.6763
   98MOL   H14237196   3.962   6.779   4.330 -1.2965 -2.0989  0.2377
   98MOL   H14337197   3.947   6.828   4.160 -0.4519 -0.2436 -1.6110
   98MOL   H14437198   4.049   6.564   4.237 -3.3427 -0.3415 -0.8058
   98MOL   H14537199   3.942   6.423   4.102  0.4574  1.8464  1.4095
   98MOL   H14637200   4.104   6.423   4.010  0.2284 -0.0020  0.1890
   98MOL   H14737201   3.936   6.325   3.887  0.2617 -0.3282 -0.6185
   98MOL   H14837202   3.971   6.469   3.810  1.4442 -1.1304  0.4862
   98MOL   H14937203   3.733   6.390   4.010  0.7703  0.3064  0.2573
   98MOL   H15037204   3.746   6.558   3.970 -1.9789  0.2426 -0.4192
   98MOL   H15137205   3.693   6.502   3.728 -0.9936 -0.6488 -1.7801
   98MOL   H15237206   3.680   6.341   3.768 -0.3961  0.5688 -0.7002
   98MOL   H15337207   3.560   6.455   3.833 -0.8725 -1.9308 -0.9923
   98MOL   C15437208   4.191   6.704   4.157  1.0360 -1.0366  0.1029
   98MOL   C15537209   4.305   6.606   4.167 -0.4349 -0.5548 -0.2912
   98MOL   O15637210   4.321   6.570   4.305 -0.0648 -0.3493  0.4609
   98MOL   C15737211   4.333   6.432   4.333  0.0890 -0.4615 -0.1314
   98MOL   C15837212   4.360   6.407   4.475 -0.4477  1.0696 -0.1980
   98MOL   C15937213   4.371   6.258   4.511  0.1432 -0.2458  0.0901
   98MOL   C16037214   4.477   6.186   4.447 -0.6378 -0.3870 -0.4141
   98MOL   H16137215   4.205   6.778   4.236  3.1379 -0.1324 -1.0806
   98MOL   H16237216   4.206   6.763   4.067  1.0277  2.7825  2.4811
   98MOL   H16337217   4.269   6.523   4.106 -0.8112 -1.2180  0.8082
   98MOL   H16437218   4.238   6.386   4.308 -0.9539  1.2647  0.5852
   98MOL   H16537219   4.420   6.395   4.278 -0.5423 -2.3268  0.0954
   98MOL   H16637220   4.278   6.438   4.540 -1.4677 -3.5329  0.8416
   98MOL   H16737221   4.446   6.463   4.514 -0.5399  1.2466 -0.2482
   98MOL   H16837222   4.386   6.247   4.619 -2.1969  0.0936  0.4752
   98MOL   H16937223   4.284   6.200   4.481  0.4480 -0.8716  0.3949
   98MOL   H17037224   4.462   6.159   4.342  0.6607  0.9396 -0.9524
   98MOL   H17137225   4.567   6.246   4.438 -0.3853 -1.0298 -2.2755
   98MOL   H17237226   4.507   6.093   4.495 -0.8245 -0.7649 -1.0239
   98MOL   C17337227   4.439   6.674   4.118  0.7938 -0.2785 -0.5689
   98MOL   C17437228   4.568   6.592   4.119  0.1576 -0.1201 -0.3276
   98MOL   O17537229   4.553   6.488   4.015  0.4637 -0.1826  0.3294
   98MOL   C17637230   4.619   6.368   4.051  0.3487 -0.0791 -0.2011
   98MOL   C17737231   4.578   6.249   3.956  0.0030 -0.1034  0.6967
   98MOL   C17837232   4.635   6.119   4.006  0.1554  0.0271 -0.2475
   98MOL   C17937233   4.568   6.000   3.934  0.1911 -0.2165 -0.1661
   98MOL   H18037234   4.441   6.767   4.175 -2.8668 -0.7242  0.4221
   98MOL   H18137235   4.427   6.711   4.016 -1.6255  0.5554 -0.0113
   98MOL   H18237236   4.581   6.543   4.216 -0.3500  3.2287  1.4908
   98MOL   H18337237   4.595   6.342   4.154  1.2208 -0.6996 -0.1479
   98MOL   H18437238   4.726   6.388   4.052  0.4030 -0.1023 -2.7411
   98MOL   H18537239   4.604   6.263   3.852 -0.6866  1.2091  0.6992
   98MOL   H18637240   4.471   6.239   3.972  0.1854 -1.9990  0.9150
   98MOL   H18737241   4.743   6.114   3.991  0.3970  1.0365  1.0807
   98MOL   H18837242   4.614   6.101   4.111  2.8586 -1.5076  0.0916
   98MOL   H18937243   4.588   6.013   3.828 -0.1715 -2.4549 -0.5388
   98MOL   H19037244   4.599   5.905   3.979  1.9234 -0.3294 -1.5500
   98MOL   H19137245   4.459   6.003   3.941  0.3270  1.6771  1.3704
   98MOL   C19237246   4.688   6.678   4.068  0.5459 -0.7756 -0.0173
   98MOL   C19337247   4.762   6.750   4.184  1.1103 -0.1687  0.2817
   98MOL   O19437248   4.819   6.647   4.262  0.3747  0.5066  0.3918
   98MOL   C19537249   4.844   6.687   4.395 -0.4917 -0.5118 -0.0182
   98MOL   C19637250   4.911   6.557   4.458  0.3726  0.1066  0.1362
   98MOL   C19737251   4.800   6.456   4.501  0.0652 -0.3434 -0.8151
   98MOL   C19837252   4.846   6.311   4.519  0.0433  0.5094  0.3056
   98MOL   H19937253   4.646   6.748   3.996 -0.8650 -0.3041  1.2299
   98MOL   H20037254   4.757   6.620   4.006 -1.6678 -2.7875 -0.6932
   98MOL   H20137255   4.687   6.803   4.242  1.3965  3.1571 -2.2273
   98MOL   H20237256   4.755   6.722   4.447 -0.6219 -0.1975 -0.4482
   98MOL   H20337257   4.916   6.768   4.401  0.6997 -1.5434 -0.2345
   98MOL   H20437258   4.982   6.520   4.384  1.3717  1.4789  0.3884
   98MOL   H20537259   4.972   6.593   4.541  0.9248 -0.0502 -0.1997
   98MOL   H20637260   4.719   6.457   4.428 -0.7556 -1.3001  0.0772
   98MOL   H20737261   4.763   6.489   4.597 -0.0743 -1.2597 -0.5432
   98MOL   H20837262   4.864   6.258   4.425 -1.5459  2.3206 -1.0618
   98MOL   H20937263   4.932   6.311   4.586  0.7245  2.9627 -0.5165
   98MOL   H21037264   4.768   6.258   4.574  1.3896 -1.7559  0.0849
   98MOL   C21137265   4.870   6.853   4.141 -0.4310 -0.0527  0.0289
   98MOL   C21237266   4.824   6.970   4.047 -0.3235  0.3129 -0.2306
   98MOL   O21337267   4.738   7.049   4.127  0.3260  0.7358  0.2248
   98MOL   C21437268   4.618   7.087   4.059 -0.3587  0.2131  0.1947
   98MOL   C21537269   4.514   7.150   4.157 -0.0820 -0.2043 -0.0692
   98MOL   C21637270   4.382   7.209   4.100  0.1177 -0.0060  0.7676
   98MOL   C21737271   4.271   7.102   4.102  0.4729 -0.4461 -0.1293
   98MOL   H21837272   4.947   6.795   4.091 -0.6121 -1.2613  1.1313
   98MOL   H21937273   4.920   6.894   4.229  1.6978 -0.1533 -1.1007
   98MOL   H22037274   4.784   6.929   3.954  2.6457 -1.4066 -0.7936
   98MOL   H22137275   4.633   7.152   3.973 -1.4037  1.3663  0.8606
   98MOL   H22237276   4.563   7.003   4.017 -0.8933 -0.2090  1.7060
   98MOL   H22337277   4.495   7.090   4.246  3.5734 -0.5338  0.5598
   98MOL   H22437278   4.580   7.225   4.201  0.1436 -1.3871  1.6636
   98MOL   H22537279   4.396   7.238   3.996  1.0056  0.0672  0.9071
   98MOL   H22637280   4.358   7.292   4.166 -0.2233  2.1883 -1.9976
   98MOL   H22737281   4.309   7.001   4.114  0.5952 -0.4581 -0.6154
   98MOL   H22837282   4.218   7.100   4.007 -0.9569 -1.7406  0.6784
   98MOL   H22937283   4.203   7.116   4.186  1.0757  0.8551  0.1509
   98MOL   C23037284   4.943   7.052   3.995 -0.4916 -0.4943 -0.1088
   98MOL   C23137285   5.031   6.978   3.891 -0.8082 -0.0319 -0.1036
   98MOL   O23237286   4.950   6.957   3.782 -0.2273 -0.2876 -0.2581
   98MOL   C23337287   4.976   6.856   3.686  0.4050  0.0238  0.0041
   98MOL   C23437288   4.936   6.908   3.549 -0.5551 -0.2323 -0.2125
   98MOL   C23537289   5.034   7.010   3.484  0.0307  0.3141 -0.6907
   98MOL   C23637290   5.003   7.158   3.503 -0.5139  0.2633 -0.0328
   98MOL   H23737291   5.006   7.087   4.077  0.7210 -0.2614 -1.1339
   98MOL   H23837292   4.895   7.143   3.962  0.9081  1.2224  2.3931
   98MOL   H23937293   5.061   6.880   3.927 -0.0684  0.7821  1.5080
   98MOL   H24037294   5.081   6.827   3.691  0.8816  1.1847 -2.4813
   98MOL   H24137295   4.912   6.773   3.718 -1.1609  0.8068 -0.9953
   98MOL   H24237296   4.922   6.827   3.476  0.0875 -0.7014  0.1837
   98MOL   H24337297   4.834   6.945   3.564 -1.6300 -3.1359  0.0042
   98MOL   H24437298   5.031   6.986   3.378 -0.3920  2.3796 -1.1634
   98MOL   H24537299   5.135   6.985   3.518  1.1764  2.0419 -2.6786
   98MOL   H24637300   5.065   7.221   3.439 -2.6832  0.8379 -1.6371
   98MOL   H24737301   5.023   7.186   3.607  2.1060 -0.5719 -0.2841
   98MOL   H24837302   4.902   7.184   3.472  0.5209  2.1955 -1.8955
   98MOL   C24937303   5.166   7.051   3.854  0.1321 -0.0136  1.4238
   98MOL   C25037304   5.291   7.014   3.930  0.1189  0.2916 -0.0886
   98MOL   O25137305   5.303   7.099   4.043 -0.4524 -0.1034  0.4842
   98MOL   C25237306   5.377   7.058   4.158  0.0807  0.3257  0.4359
   98MOL   C25337307   5.302   7.117   4.280  0.4056 -0.3614 -0.3721
   98MOL   C25437308   5.385   7.098   4.406  0.4601  0.0355  0.0296
   98MOL   C25537309   5.290   7.105   4.528 -0.0438  0.7302  0.3673
   98MOL   H25637310   5.137   7.156   3.852  0.0700  0.0129  2.7542
   98MOL   H25737311   5.180   7.042   3.747  1.0302 -0.2215  1.5533
   98MOL   H25837312   5.287   6.908   3.957  1.6906 -0.2877 -2.0050
   98MOL   H25937313   5.477   7.098   4.138 -0.1628  0.6880 -0.0674
   98MOL   H26037314   5.380   6.949   4.162 -0.5920  0.3166  0.7425
   98MOL   H26137315   5.272   7.221   4.273 -2.6827 -1.2181 -0.3657
   98MOL   H26237316   5.204   7.070   4.290 -0.8809  2.0961 -1.1719
   98MOL   H26337317   5.434   7.001   4.414 -0.3370 -0.5059 -1.4851
   98MOL   H26437318   5.459   7.178   4.402 -0.4502  0.8357 -1.4760
   98MOL   H26537319   5.261   7.206   4.560 -0.0172  1.6985 -2.4752
   98MOL   H26637320   5.329   7.069   4.623 -1.4976 -0.7490  0.4221
   98MOL   H26737321   5.191   7.061   4.515  0.2070  0.1495  0.4602
   98MOL   C26837322   5.418   7.024   3.844  1.0455  0.3099  0.1518
   98MOL   C26937323   5.430   6.917   3.732 -0.2004  0.3661  0.2541
   98MOL   O27037324   5.559   6.919   3.687 -0.1070 -1.0562  0.0252
   98MOL   C27137325   5.607   7.016   3.592 -0.0847  0.0239  0.3020
   98MOL   C27237326   5.755   6.990   3.557 -0.1300 -0.8464  0.0633
   98MOL   C27337327   5.817   7.067   3.442  0.2335 -0.2511 -0.3108
   98MOL   C27437328   5.947   7.017   3.400 -0.9180 -0.6346  0.8629
   98MOL   H27537329   5.422   7.121   3.796  2.4932 -0.3856 -1.1472
   98MOL   H27637330   5.501   7.009   3.914  1.0542  1.2143  0.3432
   98MOL   H27737331   5.371   6.944   3.644 -1.4595 -0.0445  0.9542
   98MOL   H27837332   5.544   7.006   3.504  0.2804 -1.4493  0.2098
   98MOL   H27937333   5.601   7.117   3.633  1.3286 -0.7583  2.5018
   98MOL   H28037334   5.810   6.992   3.651  2.4909 -0.8019 -1.4100
   98MOL   H28137335   5.759   6.886   3.527 -2.6578 -1.0339  0.2837
   98MOL   H28237336   5.838   7.166   3.483 -2.0789  0.1118  0.0342
   98MOL   H28337337   5.745   7.091   3.363  0.9473  1.3874 -0.4899
   98MOL   H28437338   6.029   7.067   3.450 -1.1911  1.3120 -0.5689
   98MOL   H28537339   5.959   7.049   3.297 -2.3197  1.7560  1.4096
   98MOL   H28637340   5.972   6.911   3.398 -0.3260 -0.5061 -4.0206
   98MOL   C28737341   5.402   6.776   3.771 -0.4196  0.4329 -0.1654
   98MOL   C28837342   5.417   6.682   3.649  0.2011 -0.9867 -0.0671
   98MOL   O28937343   5.317   6.720   3.551  0.4737 -0.5742  0.1023
   98MOL   C29037344   5.349   6.697   3.412 -0.2441  0.2076 -0.2591
   98MOL   C29137345   5.216   6.696   3.327 -0.3592 -0.3396 -0.1622
   98MOL   C29237346   5.137   6.564   3.332 -0.2182 -0.3158  0.2070
   98MOL   C29337347   4.995   6.576   3.276 -0.5646  0.0276 -0.0972
   98MOL   H29437348   5.304   6.771   3.819  1.0303 -0.0128  2.8893
   98MOL   H29537349   5.482   6.740   3.837  2.1363  0.5953 -3.0931
   98MOL   H29637350   5.515   6.676   3.601  0.0080 -0.0280 -0.5702
   98MOL   H29737351   5.429   6.767   3.390  2.2702 -2.2474  0.8296
   98MOL   H29837352   5.404   6.603   3.402 -0.1834  0.4012 -1.8735
   98MOL   H29937353   5.248   6.727   3.228  1.8047 -1.7768  0.0353
   98MOL   H30037354   5.153   6.779   3.359 -0.7706 -1.7353  2.8023
   98MOL   H30137355   5.125   6.531   3.435 -0.1725 -3.6010 -0.7814
   98MOL   H30237356   5.188   6.485   3.276  0.4266 -0.9995  1.7360
   98MOL   H30337357   4.940   6.665   3.306 -0.1651 -0.0588  0.8827
   98MOL   H30437358   5.016   6.595   3.170 -0.3168 -1.3230 -0.2976
   98MOL   H30537359   4.935   6.487   3.294 -0.2959 -0.2089 -0.3566
   98MOL   C30637360   5.377   6.538   3.692  0.3382  0.3056  0.0105
   98MOL   C30737361   5.234   6.504   3.747  0.1563  0.3995 -0.6952
   98MOL   O30837362   5.250   6.514   3.888  0.2917  0.0191 -0.4609
   98MOL   C30937363   5.132   6.553   3.967  0.0690  0.4451  0.1254
   98MOL   C31037364   5.172   6.565   4.117 -0.0767  0.4058  0.2386
   98MOL   C31137365   5.271   6.679   4.153 -0.3011  0.1353  0.6767
   98MOL   C31237366   5.291   6.695   4.305  0.3231 -0.1711 -0.4821
   98MOL   H31337367   5.393   6.479   3.602 -0.5302 -0.1075  0.1239
   98MOL   H31437368   5.449   6.499   3.763 -0.1538 -0.0389  0.3200
   98MOL   H31537369   5.160   6.579   3.718  0.5174  2.5703  3.5402
   98MOL   H31637370   5.050   6.482   3.975 -0.4327  0.8601 -1.3083
   98MOL   H31737371   5.091   6.648   3.933 -0.5631  1.4967  3.6401
   98MOL   H31837372   5.205   6.464   4.142 -2.0338 -0.7216 -1.5552
   98MOL   H31937373   5.079   6.580   4.171 -0.6049 -1.6009 -0.0986
   98MOL   H32037374   5.368   6.672   4.103 -0.7163 -0.6323 -0.0314
   98MOL   H32137375   5.227   6.773   4.117  0.0987 -0.3975 -1.2246
   98MOL   H32237376   5.206   6.744   4.353 -1.6996 -4.3216  0.3781
   98MOL   H32337377   5.383   6.752   4.321  0.8409 -1.1547  0.0986
   98MOL   H32437378   5.305   6.602   4.360 -0.8094  1.3207  2.4382
   98MOL   C32537379   5.193   6.364   3.691  0.4257  0.6108  0.3967
   98MOL   C32637380   5.048   6.320   3.718  0.1927  1.1524  0.1304
   98MOL   O32737381   4.969   6.405   3.634 -0.4401 -0.5325 -0.2695
   98MOL   C32837382   4.845   6.448   3.683 -0.4871  0.5198 -0.0086
   98MOL   C32937383   4.773   6.527   3.580 -0.4187 -0.0603 -0.0136
   98MOL   C33037384   4.663   6.614   3.642  0.5090  0.2793 -0.8458
   98MOL   C33137385   4.533   6.528   3.687 -0.0723  0.0267 -0.3086
   98MOL   H33237386   5.266   6.293   3.731  0.1406  0.9072  1.4626
   98MOL   H33337387   5.207   6.361   3.583  0.3971 -0.2362  0.4100
   98MOL   H33437388   5.032   6.343   3.823  0.7935  2.4046 -0.0568
   98MOL   H33537389   4.862   6.507   3.773  0.7139  2.9759 -1.7803
   98MOL   H33637390   4.780   6.367   3.715  1.2188 -1.0324 -0.4125
   98MOL   H33737391   4.847   6.594   3.535  0.2447 -0.1096  0.9784
   98MOL   H33837392   4.742   6.464   3.496 -0.5187  2.7187 -2.1242
   98MOL   H33937393   4.640   6.691   3.568 -2.1643  0.6542  0.3136
   98MOL   H34037394   4.686   6.674   3.730 -1.4364 -0.7847  0.4199
   98MOL   H34137395   4.454   6.595   3.719 -0.5254 -0.6048 -0.0912
   98MOL   H34237396   4.550   6.459   3.769 -4.4876  0.5798  1.1731
   98MOL   H34337397   4.499   6.469   3.601  1.1315 -1.6973  0.3685
   98MOL   C34437398   5.013   6.175   3.670 -0.1395 -0.7597 -0.1090
   98MOL   C34537399   5.072   6.058   3.754  0.1469 -0.1533 -0.0866
   98MOL   O34637400   5.073   5.954   3.662 -0.0107  0.3834 -0.3663
   98MOL   C34737401   5.194   5.872   3.665 -0.7595  0.8638 -0.4348
   98MOL   C34837402   5.165   5.746   3.578 -0.5423  0.4545  0.3088
   98MOL   C34937403   5.285   5.648   3.583 -0.1260 -0.3615 -0.0478
   98MOL   C35037404   5.429   5.692   3.524 -0.3862 -0.2228 -0.0334
   98MOL   H35137405   4.904   6.175   3.660 -0.0866 -1.4607 -0.7230
   98MOL   H35237406   5.048   6.163   3.567  1.7068 -1.1326  0.5537
   98MOL   H35337407   5.175   6.083   3.777  1.0270 -1.2773 -2.5662
   98MOL   H35437408   5.220   5.843   3.767 -1.5543 -2.6235 -1.1687
   98MOL   H35537409   5.281   5.933   3.640  1.0102 -0.8193  1.4520
   98MOL   H35637410   5.149   5.772   3.473  0.7397 -3.5487 -0.9453
   98MOL   H35737411   5.075   5.704   3.623  1.4959 -0.6217  3.6263
   98MOL   H35837412   5.300   5.622   3.688  0.1436  0.5413  0.1445
   98MOL   H35937413   5.258   5.550   3.545  1.5968 -0.4873 -0.9957
   98MOL   H36037414   5.506   5.636   3.577  0.2373  0.5472 -0.1369
   98MOL   H36137415   5.438   5.800   3.514 -1.5271 -0.3651 -2.8735
   98MOL   H36237416   5.423   5.660   3.420  0.8210  1.3460 -0.5948
   98MOL   C36337417   4.971   6.010   3.865  0.0374  0.3597  0.0790
   98MOL   C36437418   5.023   5.904   3.968  0.3494 -0.2117  0.9653
   98MOL   O36537419   4.925   5.899   4.073 -0.2578 -0.4462 -0.1631
   98MOL   C36637420   4.943   5.788   4.162  0.0083 -1.6455  0.1754
   98MOL   C36737421   4.834   5.800   4.269 -0.4457 -0.2717  0.3775
   98MOL   C36837422   4.838   5.936   4.343  1.1380 -0.8831 -0.1659
   98MOL   C36937423   4.731   5.953   4.455  0.3143 -0.3997 -0.0588
   98MOL   H37037424   4.875   5.977   3.826 -0.4017  0.8019  0.7800
   98MOL   H37137425   4.949   6.097   3.926  0.7933  2.1952 -2.1950
   98MOL   H37237426   5.125   5.924   4.002  0.1669  1.5757  0.4997
   98MOL   H37337427   5.044   5.805   4.199  0.2334 -2.6892  0.0482
   98MOL   H37437428   4.942   5.686   4.125  0.2053 -2.5889  2.6257
   98MOL   H37537429   4.846   5.727   4.348 -1.3476 -2.5744 -1.5624
   98MOL   H37637430   4.743   5.770   4.217  1.3637 -2.1951 -1.7493
   98MOL   H37737431   4.822   6.020   4.275  0.4679 -1.6336 -0.9572
   98MOL   H37837432   4.932   5.946   4.396  0.9523 -0.6311  0.1163
   98MOL   H37937433   4.743   5.866   4.520 -2.7334 -0.1691  0.9362
   98MOL   H38037434   4.754   6.043   4.512 -1.9649  1.7533 -2.3909
   98MOL   H38137435   4.628   5.943   4.420 -0.5082  0.7666  1.9534
   98MOL   H38237436   5.021   5.804   3.926  2.5397 -0.5913  1.6805
   99MOL     C137437   2.987   6.399   1.070 -0.3472  0.3336 -0.8424
   99MOL     C237438   2.943   6.478   1.196  0.2988  0.4418  0.5694
   99MOL     O337439   3.055   6.470   1.278  0.1610 -0.0723  0.0783
   99MOL     C437440   3.055   6.543   1.403  0.0102  0.1718 -0.7199
   99MOL     C537441   3.193   6.527   1.473 -0.2103 -0.1550  0.4564
   99MOL     C637442   3.195   6.586   1.610  0.2718 -0.0757 -0.4308
   99MOL     C737443   3.100   6.528   1.709  0.6038  0.0615 -0.8083
   99MOL     H837444   2.923   6.418   0.984 -0.2667 -2.4505 -1.5482
   99MOL     H937445   3.087   6.433   1.040  1.7083 -2.4108  2.4971
   99MOL    H1037446   2.867   6.423   1.251  1.3246 -1.1589  0.4000
   99MOL    H1137447   3.032   6.648   1.386  2.6515  0.6566 -1.5302
   99MOL    H1237448   2.972   6.502   1.460 -1.5590  0.8656 -2.4753
   99MOL    H1337449   3.276   6.580   1.426  0.2301 -0.8146  0.4911
   99MOL    H1437450   3.224   6.422   1.468  0.7406  0.1840 -1.4918
   99MOL    H1537451   3.180   6.694   1.612  0.9082  0.0063 -0.0098
   99MOL    H1637452   3.288   6.555   1.657 -0.7347  0.0485  1.6771
   99MOL    H1737453   3.105   6.420   1.692  1.8872  0.0430 -0.3945
   99MOL    H1837454   2.999   6.564   1.693  0.1182 -0.9724 -0.1835
   99MOL    H1937455   3.129   6.556   1.810  0.8437 -1.8009 -0.3320
   99MOL    H2037456   2.979   6.292   1.089  2.4009  0.5008  1.5384
   99MOL    C2137457   2.887   6.620   1.153  0.7616  0.1943 -0.3924
   99MOL    C2237458   2.736   6.638   1.174 -0.0815 -0.4719  0.0604
   99MOL    O2337459   2.715   6.662   1.310  0.4194 -0.2070 -0.0204
   99MOL    C2437460   2.622   6.582   1.378 -0.0486  0.5858 -0.8813
   99MOL    C2537461   2.615   6.631   1.516 -0.3874 -0.6351  0.5004
   99MOL    C2637462   2.510   6.543   1.586 -0.4196 -0.3269  0.4447
   99MOL    C2737463   2.364   6.573   1.555  0.0598 -0.1679 -0.8175
   99MOL    H2837464   2.906   6.640   1.048 -4.5844 -2.0541 -1.9841
   99MOL    H2937465   2.936   6.704   1.201  0.8832  1.0868 -2.0528
   99MOL    H3037466   2.691   6.543   1.146  1.4492 -1.1604 -0.1215
   99MOL    H3137467   2.648   6.476   1.373 -1.3002  0.3338 -2.8060
   99MOL    H3237468   2.522   6.601   1.338 -1.6089 -2.2464  1.4940
   99MOL    H3337469   2.707   6.610   1.571  0.0950 -0.3162 -0.1922
   99MOL    H3437470   2.583   6.735   1.519  0.2020 -0.4058 -1.0039
   99MOL    H3537471   2.523   6.440   1.554  0.4901 -0.6851  1.9487
   99MOL    H3637472   2.526   6.558   1.693 -3.3500  1.3641  0.7266
   99MOL    H3737473   2.348   6.538   1.453  1.5029 -2.7738 -0.1839
   99MOL    H3837474   2.299   6.507   1.612  2.5011 -1.1188  0.9583
   99MOL    H3937475   2.335   6.678   1.557  1.0999  0.1062  0.1539
   99MOL    C4037476   2.684   6.767   1.108 -0.0212 -0.3258  0.6306
   99MOL    C4137477   2.531   6.766   1.080  0.1896  0.3805 -0.3653
   99MOL    O4237478   2.519   6.688   0.963  0.5991 -0.4839 -0.1608
   99MOL    C4337479   2.457   6.563   0.986 -1.0352 -0.2335 -0.5738
   99MOL    C4437480   2.498   6.477   0.863  0.2057 -0.1151  0.0039
   99MOL    C4537481   2.643   6.439   0.871 -0.2646 -0.3580  0.1435
   99MOL    C4637482   2.694   6.362   0.746 -0.2063  0.2760  0.0086
   99MOL    H4737483   2.740   6.782   1.016 -0.9352  1.2891  0.3180
   99MOL    H4837484   2.721   6.842   1.178  0.7014 -0.2009  0.1215
   99MOL    H4937485   2.480   6.725   1.167  0.2250 -1.6446 -1.2574
   99MOL    H5037486   2.349   6.576   0.999 -1.1759 -1.7889 -0.0877
   99MOL    H5137487   2.492   6.502   1.069 -0.7578  0.5181 -0.1398
   99MOL    H5237488   2.486   6.526   0.766  0.7500 -1.7105 -0.9051
   99MOL    H5337489   2.428   6.394   0.856  0.0219  0.1806 -2.0980
   99MOL    H5437490   2.665   6.382   0.961 -0.3915 -0.9155 -0.1795
   99MOL    H5537491   2.702   6.530   0.885 -1.2949  0.6365 -1.7183
   99MOL    H5637492   2.665   6.257   0.755  2.2823 -0.6575 -2.1970
   99MOL    H5737493   2.643   6.386   0.653 -0.2312 -0.9425 -0.3024
   99MOL    H5837494   2.802   6.371   0.735  0.2309 -2.7864  1.1314
   99MOL    C5937495   2.480   6.905   1.043 -0.1678 -0.7391 -0.4172
   99MOL    C6037496   2.326   6.913   1.068  0.0850 -0.4801  0.4743
   99MOL    O6137497   2.303   7.031   1.138 -0.2049 -0.2062 -0.4066
   99MOL    C6237498   2.310   7.024   1.281 -0.2691 -0.0727 -0.0311
   99MOL    C6337499   2.247   7.147   1.339 -0.1908 -0.4261  0.8133
   99MOL    C6437500   2.093   7.143   1.345  0.5959  0.2916 -0.7101
   99MOL    C6537501   2.022   7.247   1.437  0.1585 -0.0959 -0.8264
   99MOL    H6637502   2.523   6.982   1.107  2.1177 -0.9900 -1.6082
   99MOL    H6737503   2.518   6.920   0.942 -0.8895  0.3913 -0.5333
   99MOL    H6837504   2.280   6.834   1.128 -1.9695  0.8597  0.7262
   99MOL    H6937505   2.410   7.003   1.317 -0.0828 -1.0318 -1.0666
   99MOL    H7037506   2.260   6.936   1.319  2.8597 -2.3585 -1.0500
   99MOL    H7137507   2.280   7.175   1.439  0.2020  1.2923  0.2265
   99MOL    H7237508   2.286   7.226   1.274 -4.1470  0.5773 -0.4850
   99MOL    H7337509   2.054   7.180   1.249 -3.2951  0.9775  1.0209
   99MOL    H7437510   2.063   7.043   1.375 -1.0540  0.7351 -0.8113
   99MOL    H7537511   2.094   7.329   1.442 -0.2866  0.1947  1.1512
   99MOL    H7637512   1.919   7.273   1.411 -0.0994  0.4444  0.6813
   99MOL    H7737513   2.021   7.219   1.542  1.6117  1.3372 -0.4013
   99MOL    C7837514   2.255   6.923   0.937  0.1684 -0.5632 -0.3303
   99MOL    C7937515   2.132   6.837   0.924 -0.0800  0.0282  0.2773
   99MOL    O8037516   2.105   6.800   0.789 -0.3177  0.0498 -0.1929
   99MOL    C8137517   2.167   6.687   0.734  0.0429 -0.0581  0.3567
   99MOL    C8237518   2.226   6.723   0.595 -0.0709 -0.4443 -0.3412
   99MOL    C8337519   2.136   6.793   0.487  0.3723  0.6535 -0.4598
   99MOL    C8437520   2.166   6.735   0.351 -0.1294  0.0649  0.3130
   99MOL    H8537521   2.326   6.881   0.866  0.1401 -0.1340 -0.6125
   99MOL    H8637522   2.234   7.024   0.902 -0.1364 -0.2936  0.6348
   99MOL    H8737523   2.148   6.754   0.992  1.6967  0.1877  0.0606
   99MOL    H8837524   2.083   6.617   0.736 -0.9643  1.1510  0.9551
   99MOL    H8937525   2.233   6.647   0.810 -1.1258 -0.4966  1.1632
   99MOL    H9037526   2.311   6.787   0.616  0.0989 -0.8034  0.0741
   99MOL    H9137527   2.267   6.627   0.561  0.2555  0.6994 -3.2917
   99MOL    H9237528   2.153   6.900   0.496 -1.1096  0.8372  0.4838
   99MOL    H9337529   2.032   6.800   0.519  0.7206 -1.7240  1.3727
   99MOL    H9437530   2.113   6.641   0.341 -1.3127  0.7993 -0.4849
   99MOL    H9537531   2.152   6.795   0.261 -0.1523 -2.6386 -1.5585
   99MOL    H9637532   2.274   6.719   0.343 -0.0110  0.5807  0.8512
   99MOL    C9737533   2.008   6.916   0.989 -0.6713  0.0316 -0.0618
   99MOL    C9837534   1.884   6.827   1.036  0.0398  0.4407 -0.5499
   99MOL    O9937535   1.934   6.760   1.147 -0.6267 -0.1939 -0.6161
   99MOL   C10037536   1.936   6.616   1.136  0.1161 -0.3797  0.3904
   99MOL   C10137537   2.011   6.558   1.257  0.5729 -0.0540  0.3832
   99MOL   C10237538   1.939   6.587   1.386 -0.8114 -0.0664 -0.2080
   99MOL   C10337539   1.980   6.492   1.501  0.3284 -0.2408  0.6664
   99MOL   H10437540   1.972   6.996   0.924  1.1469  0.8467 -0.1121
   99MOL   H10537541   2.048   6.975   1.071 -2.9070  0.3159  0.8465
   99MOL   H10637542   1.860   6.751   0.961 -1.4129  0.5244 -0.1692
   99MOL   H10737543   2.000   6.584   1.054  0.5559 -0.7984  0.8926
   99MOL   H10837544   1.839   6.568   1.125 -0.9407  1.5623  1.0378
   99MOL   H10937545   2.115   6.590   1.252  0.1739  1.2752  0.3354
   99MOL   H11037546   2.018   6.451   1.240  0.1730 -0.1710  0.9235
   99MOL   H11137547   1.833   6.575   1.367 -0.7540 -1.4379  0.2677
   99MOL   H11237548   1.954   6.690   1.419 -0.8522  0.4847 -1.8613
   99MOL   H11337549   1.928   6.501   1.596  0.0601  0.2817  0.4753
   99MOL   H11437550   1.962   6.390   1.466  1.3926  0.1533 -1.1364
   99MOL   H11537551   2.088   6.501   1.518  0.8212  4.3182 -3.5441
   99MOL   C11637552   1.763   6.908   1.068  0.3869 -0.7869  0.2650
   99MOL   C11737553   1.624   6.833   1.085 -0.5887 -0.4160  0.3004
   99MOL   O11837554   1.522   6.934   1.089 -0.6229  0.4669 -0.6577
   99MOL   C11937555   1.507   7.010   1.210  0.0492 -0.1744 -0.1758
   99MOL   C12037556   1.392   7.099   1.200  0.2309 -0.4760 -0.8158
   99MOL   C12137557   1.378   7.182   1.327  0.2012 -0.1507 -0.0359
   99MOL   C12237558   1.269   7.287   1.317 -0.0817 -0.7641 -0.1044
   99MOL   H12337559   1.776   6.980   1.148 -1.3637 -0.1295 -0.0199
   99MOL   H12437560   1.744   6.970   0.980 -1.3374  0.0680  1.2110
   99MOL   H12537561   1.615   6.792   1.185 -0.5562  1.0243  0.9057
   99MOL   H12637562   1.598   7.065   1.233 -0.2133 -0.2904  1.1508
   99MOL   H12737563   1.475   6.946   1.292 -1.1875  0.9719  0.2564
   99MOL   H12837564   1.301   7.040   1.203 -0.6601  0.9156  0.3094
   99MOL   H12937565   1.401   7.161   1.110  0.4112  1.8661  0.7891
   99MOL   H13037566   1.339   7.124   1.411 -1.4469  1.8387  0.6071
   99MOL   H13137567   1.471   7.223   1.366 -0.3045  1.5981 -0.6531
   99MOL   H13237568   1.178   7.235   1.287  0.4924 -2.0413  0.3642
   99MOL   H13337569   1.315   7.363   1.253 -1.8635  0.8964  0.5248
   99MOL   H13437570   1.260   7.339   1.412 -0.9955  0.0826 -0.6428
   99MOL   C13537571   1.584   6.730   0.984 -0.3797  0.1600  0.5274
   99MOL   C13637572   1.453   6.645   1.004 -0.0803 -0.6338  0.1070
   99MOL   O13737573   1.454   6.545   0.903 -0.0608 -0.2459  0.0338
   99MOL   C13837574   1.357   6.580   0.802 -0.0159 -1.4235 -0.1915
   99MOL   C13937575   1.376   6.491   0.679 -0.3001 -0.4370 -0.1183
   99MOL   C14037576   1.259   6.506   0.579 -0.2743 -0.1711  0.3139
   99MOL   C14137577   1.269   6.417   0.454 -0.0406  0.4558  0.1638
   99MOL   H14237578   1.664   6.657   0.973 -0.2950  0.4018 -0.5093
   99MOL   H14337579   1.579   6.781   0.888  0.0100 -1.1587 -0.1999
   99MOL   H14437580   1.364   6.707   1.006 -0.6374 -1.4489  0.3622
   99MOL   H14537581   1.376   6.683   0.773  2.5401 -1.9825 -0.6336
   99MOL   H14637582   1.253   6.573   0.834 -0.9944  0.8938 -2.6435
   99MOL   H14737583   1.388   6.388   0.712  2.6092 -0.0225  0.2786
   99MOL   H14837584   1.470   6.522   0.633 -0.0314 -1.7378 -0.4665
   99MOL   H14937585   1.162   6.492   0.626 -0.5693  1.3188  0.1608
   99MOL   H15037586   1.266   6.609   0.546  0.3844 -0.1385  0.5396
   99MOL   H15137587   1.237   6.460   0.359  0.1702  1.2579  0.4508
   99MOL   H15237588   1.375   6.400   0.436  0.2463  1.0718  1.2003
   99MOL   H15337589   1.229   6.316   0.468  0.3301  0.2048 -0.5663
   99MOL   C15437590   1.452   6.561   1.132 -0.3637  0.0354 -0.1551
   99MOL   C15537591   1.315   6.495   1.161 -1.0177 -0.8641 -0.4450
   99MOL   O15637592   1.225   6.598   1.193 -0.6205 -0.0733 -0.8189
   99MOL   C15737593   1.094   6.563   1.159  0.2813 -0.4339 -0.7931
   99MOL   C15837594   1.006   6.695   1.172 -0.4986  0.2093 -0.6056
   99MOL   C15937595   1.062   6.800   1.084 -0.4797 -0.5845 -0.0621
   99MOL   C16037596   0.997   6.939   1.090  0.1555 -0.1987  0.7202
   99MOL   H16137597   1.482   6.632   1.208 -2.4230  0.9443 -0.1586
   99MOL   H16237598   1.527   6.482   1.118  0.2308  0.9409 -2.3175
   99MOL   H16337599   1.283   6.443   1.071 -3.1651 -1.8615  0.8577
   99MOL   H16437600   1.099   6.538   1.053 -1.1004 -2.2442 -0.4598
   99MOL   H16537601   1.044   6.490   1.223 -0.5294 -0.4524 -1.4312
   99MOL   H16637602   0.996   6.737   1.272 -1.4614 -0.3194 -0.4718
   99MOL   H16737603   0.904   6.666   1.145 -0.8431  0.8912 -0.0639
   99MOL   H16837604   1.167   6.809   1.111 -0.8992 -1.0679  1.7666
   99MOL   H16937605   1.051   6.766   0.981 -0.6136 -2.6522  0.6220
   99MOL   H17037606   0.892   6.941   1.123 -0.3949  1.1582 -1.0458
   99MOL   H17137607   1.042   7.002   1.167  2.9760 -0.9944 -0.2398
   99MOL   H17237608   0.990   6.991   0.995 -5.4898 -0.1488  0.9936
   99MOL   C17337609   1.326   6.398   1.274 -0.0032  0.6853  0.7755
   99MOL   C17437610   1.423   6.276   1.242 -0.3697  0.7415  0.0297
   99MOL   O17537611   1.436   6.204   1.365  0.0454 -0.4251 -0.5731
   99MOL   C17637612   1.551   6.219   1.447 -0.2657  0.3007  0.6705
   99MOL   C17737613   1.525   6.131   1.571 -0.4995 -0.9512 -1.1184
   99MOL   C17837614   1.414   6.186   1.670 -0.1641  0.0827 -0.1189
   99MOL   C17937615   1.378   6.095   1.782  0.2625 -0.5999 -0.5225
   99MOL   H18037616   1.224   6.363   1.287  0.7087 -1.6472  0.2228
   99MOL   H18137617   1.348   6.444   1.371 -1.2407 -1.8455  2.2914
   99MOL   H18237618   1.522   6.310   1.212 -1.3462  2.6412 -1.1477
   99MOL   H18337619   1.575   6.323   1.472  1.6891 -0.2438  1.1434
   99MOL   H18437620   1.631   6.174   1.388  0.0546 -0.3972  1.6395
   99MOL   H18537621   1.622   6.117   1.619 -1.0194 -2.0208 -0.3669
   99MOL   H18637622   1.498   6.030   1.542  0.2945 -1.8989  1.3142
   99MOL   H18737623   1.450   6.279   1.713  1.0862 -1.1307  1.5462
   99MOL   H18837624   1.328   6.216   1.611  0.9979  2.0132 -0.8621
   99MOL   H18937625   1.324   6.004   1.756  2.6519 -1.7552 -1.6660
   99MOL   H19037626   1.475   6.071   1.827  0.7061  2.0503  0.0528
   99MOL   H19137627   1.327   6.157   1.855  2.0041 -0.5798  0.7032
   99MOL   C19237628   1.368   6.187   1.126 -0.1016  0.1560  0.0458
   99MOL   C19337629   1.470   6.063   1.106  0.6217  0.0031  0.2562
   99MOL   O19437630   1.436   5.956   1.193  0.0215  0.5656 -0.2578
   99MOL   C19537631   1.548   5.900   1.256 -0.2070  0.6472  0.1482
   99MOL   C19637632   1.512   5.763   1.306 -0.6285  0.2905 -0.0907
   99MOL   C19737633   1.484   5.661   1.191  0.5450  0.4136  0.1471
   99MOL   C19837634   1.453   5.515   1.243 -0.3046  0.3651  0.4227
   99MOL   H19937635   1.362   6.257   1.042  0.3590 -1.3268 -1.2578
   99MOL   H20037636   1.268   6.157   1.154 -1.1835  1.0822 -2.6256
   99MOL   H20137637   1.563   6.105   1.144  1.3052 -1.1570 -0.1359
   99MOL   H20237638   1.568   5.972   1.335 -1.0220 -1.0152  1.9058
   99MOL   H20337639   1.637   5.890   1.193 -0.0314 -1.8538  0.7139
   99MOL   H20437640   1.596   5.720   1.362 -1.2457 -1.8277 -0.7554
   99MOL   H20537641   1.429   5.777   1.375  1.6986  2.8577  2.3478
   99MOL   H20637642   1.564   5.658   1.117  0.2604 -0.2201 -0.1384
   99MOL   H20737643   1.398   5.691   1.131  0.7615  2.5073  0.8330
   99MOL   H20837644   1.355   5.492   1.284  0.2644 -1.9734  0.5252
   99MOL   H20937645   1.459   5.439   1.165 -1.5290  0.1333  0.5572
   99MOL   H21037646   1.524   5.491   1.322  0.6587  0.8480 -0.2719
   99MOL   C21137647   1.476   6.003   0.965  0.1150 -0.2211  0.5869
   99MOL   C21237648   1.513   6.099   0.845 -0.2328  0.6060  0.5634
   99MOL   O21337649   1.651   6.144   0.862  0.1136  0.5401  0.3396
   99MOL   C21437650   1.664   6.278   0.911  0.0480  0.2196 -0.3676
   99MOL   C21537651   1.799   6.296   0.961 -0.2691 -0.2427  0.2375
   99MOL   C21637652   1.898   6.328   0.848 -0.3788  0.0757 -0.3625
   99MOL   C21737653   2.043   6.320   0.908  0.7308 -0.5829 -0.4942
   99MOL   H21837654   1.379   5.958   0.945  0.0584  0.3909 -0.5946
   99MOL   H21937655   1.553   5.926   0.970 -0.4803 -0.8223  0.5085
   99MOL   H22037656   1.449   6.187   0.853 -1.0474  0.0839 -0.1235
   99MOL   H22137657   1.635   6.339   0.825 -1.3139  2.1402  1.4071
   99MOL   H22237658   1.591   6.297   0.990  0.0379 -1.2881 -0.0102
   99MOL   H22337659   1.806   6.370   1.041  0.1867 -1.6729  1.5430
   99MOL   H22437660   1.832   6.202   1.007  0.7254 -0.2042 -0.3872
   99MOL   H22537661   1.876   6.419   0.793  0.4000  0.1476 -0.5644
   99MOL   H22637662   1.891   6.250   0.773  2.8713  0.0868 -0.7782
   99MOL   H22737663   2.053   6.378   1.000  1.3083 -2.5808  0.7481
   99MOL   H22837664   2.120   6.344   0.835  3.0302 -4.0557  0.6569
   99MOL   H22937665   2.069   6.216   0.928  0.3341 -0.5365  0.2786
   99MOL   C23037666   1.498   6.041   0.700  0.4216 -0.0237 -0.7665
   99MOL   C23137667   1.353   5.979   0.671  0.0343  0.2149  0.0867
   99MOL   O23237668   1.266   6.093   0.645  0.2707 -0.4394 -0.6365
   99MOL   C23337669   1.130   6.062   0.657 -0.7357  0.6680  0.1641
   99MOL   C23437670   1.040   6.182   0.686  0.3024 -0.1639 -0.2558
   99MOL   C23537671   1.074   6.241   0.825 -0.3595 -0.5883 -0.2672
   99MOL   C23637672   1.049   6.148   0.948 -0.1000  0.1405  0.0693
   99MOL   H23737673   1.572   5.961   0.693  0.4328 -0.2415  1.5030
   99MOL   H23837674   1.522   6.124   0.634  1.3032  1.0424  0.8498
   99MOL   H23937675   1.312   5.914   0.748 -2.1953  1.0156 -0.3723
   99MOL   H24037676   1.097   6.015   0.564  0.1460 -1.9548  1.1037
   99MOL   H24137677   1.115   5.995   0.742 -2.0505  1.2718  0.4204
   99MOL   H24237678   1.052   6.252   0.603 -1.5901 -1.9924 -2.1179
   99MOL   H24337679   0.933   6.162   0.683  0.4964 -1.0524 -2.0972
   99MOL   H24437680   1.012   6.330   0.843  1.9767  0.9320  0.5393
   99MOL   H24537681   1.173   6.285   0.809  0.1581 -1.8765 -0.6313
   99MOL   H24637682   1.059   6.196   1.045 -2.7809 -1.8539  1.3967
   99MOL   H24737683   1.114   6.061   0.955  1.1636  1.1159  0.6112
   99MOL   H24837684   0.951   6.103   0.927 -0.4960  2.7094 -4.3714
   99MOL   C24937685   1.364   5.888   0.543  0.9296 -0.8516 -0.2414
   99MOL   C25037686   1.423   5.742   0.564  0.1446  0.0718 -0.7000
   99MOL   O25137687   1.498   5.723   0.446  0.4329  0.0180 -0.4917
   99MOL   C25237688   1.619   5.654   0.468 -0.6537  0.0315 -0.1945
   99MOL   C25337689   1.704   5.653   0.345  0.5838 -0.0597 -0.0197
   99MOL   C25437690   1.827   5.562   0.355 -1.2519 -0.8075  0.0461
   99MOL   C25537691   1.940   5.614   0.443 -0.0514 -0.2967  0.5973
   99MOL   H25637692   1.420   5.941   0.467 -0.3619  1.6807  0.4924
   99MOL   H25737693   1.264   5.868   0.505 -0.6315 -2.0616  4.1051
   99MOL   H25837694   1.500   5.742   0.642 -2.3260  1.9856  1.8567
   99MOL   H25937695   1.600   5.550   0.493 -1.6287  0.5471  1.2927
   99MOL   H26037696   1.674   5.694   0.553 -0.1743  2.5522 -1.6288
   99MOL   H26137697   1.643   5.610   0.266  0.4210 -0.0167  0.0816
   99MOL   H26237698   1.717   5.760   0.327 -0.0103 -0.3328 -2.1591
   99MOL   H26337699   1.788   5.463   0.379 -0.3564 -1.1687  0.0072
   99MOL   H26437700   1.879   5.551   0.261  1.0870  0.3336  1.1473
   99MOL   H26537701   1.914   5.658   0.539 -0.7051  0.6270  0.0131
   99MOL   H26637702   2.003   5.690   0.397 -0.1424 -0.5544  0.0409
   99MOL   H26737703   2.009   5.532   0.461 -0.2321  0.1672  3.6795
   99MOL   C26837704   1.327   5.624   0.580  0.2189  0.1786  0.3983
   99MOL   C26937705   1.272   5.600   0.722 -0.1850 -1.2909 -0.0259
   99MOL   O27037706   1.166   5.692   0.741 -0.1332 -0.0007 -0.2124
   99MOL   C27137707   1.138   5.712   0.878 -0.3065 -0.1119 -0.4895
   99MOL   C27237708   0.988   5.741   0.889  0.4146 -0.3156  0.2168
   99MOL   C27337709   0.908   5.638   0.821  0.0456 -0.0688 -0.3012
   99MOL   C27437710   0.756   5.675   0.818  0.1320  0.5107 -0.0188
   99MOL   H27537711   1.242   5.631   0.513 -0.7988  1.4633  1.7980
   99MOL   H27637712   1.382   5.535   0.549 -0.7189 -0.2690  0.0078
   99MOL   H27737713   1.356   5.621   0.788  1.7245 -1.2043 -2.4153
   99MOL   H27837714   1.166   5.630   0.945 -1.1511 -0.0950 -0.1120
   99MOL   H27937715   1.184   5.800   0.923  2.0410 -1.5390 -0.0385
   99MOL   H28037716   0.963   5.745   0.995  1.3852  0.9460  0.4156
   99MOL   H28137717   0.966   5.839   0.846  0.5078 -0.3090  0.1824
   99MOL   H28237718   0.911   5.542   0.872 -0.1134 -0.9060 -1.8288
   99MOL   H28337719   0.936   5.626   0.716  1.4839  2.7882 -0.2990
   99MOL   H28437720   0.731   5.674   0.924  0.4742  1.8201  0.0787
   99MOL   H28537721   0.690   5.616   0.754  1.5362 -2.5188  1.2608
   99MOL   H28637722   0.743   5.780   0.789  1.0512  1.2521  2.1704
   99MOL   C28737723   1.228   5.452   0.748  0.8948 -0.1558 -0.5454
   99MOL   C28837724   1.318   5.367   0.837  0.1947  0.4434 -0.0987
   99MOL   O28937725   1.444   5.370   0.779 -0.3140  0.0374  0.1664
   99MOL   C29037726   1.549   5.371   0.878 -0.0795  0.2031  0.3768
   99MOL   C29137727   1.682   5.391   0.809 -0.6652  0.2289  0.5940
   99MOL   C29237728   1.724   5.266   0.720  0.4817 -0.1603 -0.0620
   99MOL   C29337729   1.866   5.283   0.673 -0.1116 -0.6639 -0.2254
   99MOL   H29437730   1.224   5.411   0.647  0.5648 -1.2390 -0.0983
   99MOL   H29537731   1.124   5.459   0.779  1.2718 -1.6579  1.1373
   99MOL   H29637732   1.310   5.410   0.937  0.8533 -1.8648  0.9812
   99MOL   H29737733   1.530   5.461   0.936 -3.5652  1.2482 -2.2277
   99MOL   H29837734   1.562   5.285   0.943 -0.6303  1.8899  2.7705
   99MOL   H29937735   1.765   5.408   0.878  0.0685 -1.5942  0.1970
   99MOL   H30037736   1.672   5.475   0.740  0.4217  2.2260  2.7500
   99MOL   H30137737   1.652   5.265   0.639 -0.4218 -3.4002  0.7253
   99MOL   H30237738   1.711   5.179   0.784 -0.6689  0.2511  0.2800
   99MOL   H30337739   1.916   5.300   0.769 -3.0080  0.3116  1.1481
   99MOL   H30437740   1.890   5.187   0.627 -0.1370 -0.4960 -0.5906
   99MOL   H30537741   1.875   5.366   0.604  0.4075 -0.5100  0.0198
   99MOL   C30637742   1.271   5.220   0.848 -0.5935  0.2717  0.8848
   99MOL   C30737743   1.131   5.176   0.899 -0.9847  0.2514  0.0155
   99MOL   O30837744   1.043   5.230   0.802 -0.5682  0.4407 -0.3115
   99MOL   C30937745   0.976   5.139   0.726  0.1475  0.1884  0.6675
   99MOL   C31037746   0.885   5.209   0.617 -0.1957  0.3726  0.5949
   99MOL   C31137747   0.752   5.281   0.652 -0.1393 -0.0615  0.0719
   99MOL   C31237748   0.676   5.338   0.529  0.2870  0.2336 -0.0687
   99MOL   H31337749   1.271   5.180   0.746 -2.0587  0.2840  0.8615
   99MOL   H31437750   1.351   5.164   0.897 -0.5923 -0.1336  0.4268
   99MOL   H31537751   1.128   5.067   0.903  0.2705  0.2651  1.9293
   99MOL   H31637752   0.906   5.082   0.787  0.5526  1.2566  2.1488
   99MOL   H31737753   1.038   5.064   0.677 -0.0115  0.8788 -0.6182
   99MOL   H31837754   0.855   5.127   0.551  1.9094  0.3953 -0.4589
   99MOL   H31937755   0.946   5.281   0.561 -1.4989  1.0643  0.0519
   99MOL   H32037756   0.684   5.209   0.698 -1.4370  1.9765  1.3994
   99MOL   H32137757   0.752   5.357   0.730  2.0994 -2.2426  2.3059
   99MOL   H32237758   0.736   5.416   0.482  1.0590 -0.7490 -0.7369
   99MOL   H32337759   0.581   5.384   0.557  1.2566  1.7683  0.7839
   99MOL   H32437760   0.652   5.263   0.453 -1.7480 -0.4324  1.1961
   99MOL   C32537761   1.095   5.238   1.037 -0.1777  0.5156  1.0202
   99MOL   C32637762   0.984   5.164   1.113  0.1332  0.2441  0.1678
   99MOL   O32737763   1.012   5.192   1.253 -0.6256  0.1857 -0.4836
   99MOL   C32837764   1.052   5.072   1.320  0.0589  0.2430  0.3882
   99MOL   C32937765   1.094   5.116   1.462 -0.3655  0.4567  0.2995
   99MOL   C33037766   0.983   5.162   1.546  0.8935 -0.3830 -0.3144
   99MOL   C33137767   1.016   5.174   1.694 -1.0593 -0.1713 -0.2819
   99MOL   H33237768   1.053   5.338   1.031 -0.9062  0.1983  0.8602
   99MOL   H33337769   1.183   5.240   1.101  1.1652 -2.3593 -0.6170
   99MOL   H33437770   0.989   5.057   1.092  0.2671  0.3149 -0.1668
   99MOL   H33537771   1.133   5.028   1.261 -1.2093 -1.7592  0.0769
   99MOL   H33637772   0.961   5.012   1.316 -0.1461  0.5037  1.2325
   99MOL   H33737773   1.145   5.032   1.509  0.1111  0.8554  0.5084
   99MOL   H33837774   1.179   5.185   1.459 -0.9264  1.1952  1.1829
   99MOL   H33937775   0.896   5.098   1.532 -1.4384  1.9871  2.6413
   99MOL   H34037776   0.939   5.254   1.506 -1.2428  0.0617  2.8540
   99MOL   H34137777   1.101   5.242   1.705 -1.9660  1.3117 -2.2388
   99MOL   H34237778   1.046   5.083   1.746  2.7917  2.3291  2.1573
   99MOL   H34337779   0.931   5.218   1.746 -1.1403  1.4443 -1.7598
   99MOL   C34437780   0.838   5.218   1.097  0.0558  0.4696  0.6797
   99MOL   C34537781   0.747   5.148   1.188  0.0332 -0.1151  0.1031
   99MOL   O34637782   0.735   5.012   1.155 -0.0529  0.3423 -0.2476
   99MOL   C34737783   0.672   4.931   1.258  0.2942  0.4023  0.4574
   99MOL   C34837784   0.632   4.794   1.189 -0.4732  0.0760 -0.1243
   99MOL   C34937785   0.755   4.717   1.133  0.1259 -0.0381 -0.2607
   99MOL   C35037786   0.717   4.565   1.109  0.5008  0.3806  0.6793
   99MOL   H35137787   0.828   5.326   1.108  0.2988  0.5612  0.0187
   99MOL   H35237788   0.804   5.205   0.994  0.8746  1.2211  0.3073
   99MOL   H35337789   0.781   5.158   1.291  1.3665 -2.2411 -0.0977
   99MOL   H35437790   0.580   4.978   1.292 -0.0526 -0.2511  0.4273
   99MOL   H35537791   0.735   4.925   1.347  0.2201 -0.1435  0.4712
   99MOL   H35637792   0.556   4.811   1.113  0.4891  0.9732 -0.9103
   99MOL   H35737793   0.586   4.728   1.262  1.4126 -1.4809 -0.2893
   99MOL   H35837794   0.774   4.769   1.039  1.8772 -3.5635 -1.9458
   99MOL   H35937795   0.839   4.733   1.201 -1.0362 -2.0566  1.6800
   99MOL   H36037796   0.809   4.513   1.087  0.5746  0.5547  0.5723
   99MOL   H36137797   0.662   4.546   1.016  0.1320 -0.8444  1.1383
   99MOL   H36237798   0.664   4.521   1.193 -0.9512  2.3039  0.8177
   99MOL   C36337799   0.601   5.214   1.172 -0.1650 -0.0801 -0.3513
   99MOL   C36437800   0.569   5.304   1.299 -0.6703 -0.2966 -0.5453
   99MOL   O36537801   0.442   5.357   1.290 -0.4240  0.3679 -0.0318
   99MOL   C36637802   0.410   5.425   1.408  0.1976 -0.4187  0.1579
   99MOL   C36737803   0.482   5.563   1.442 -0.1129  0.8096  0.6751
   99MOL   C36837804   0.430   5.632   1.574 -0.9128  0.2110 -0.2722
   99MOL   C36937805   0.478   5.780   1.593 -0.3536 -0.4597  0.2056
   99MOL   H37037806   0.518   5.144   1.164  0.6866 -0.8568 -2.6380
   99MOL   H37137807   0.588   5.266   1.078  1.8614 -0.1732 -0.7108
   99MOL   H37237808   0.645   5.382   1.296 -1.3029  0.3217 -0.3229
   99MOL   H37337809   0.395   5.352   1.488 -2.6886  0.5298  0.5211
   99MOL   H37437810   0.309   5.458   1.388  0.2421 -0.4260 -0.0790
   99MOL   H37537811   0.469   5.630   1.358 -2.2600  0.9583  1.0886
   99MOL   H37637812   0.589   5.542   1.447 -0.1674  0.6373  1.2258
   99MOL   H37737813   0.450   5.575   1.665  1.6132 -1.2252 -1.6522
   99MOL   H37837814   0.321   5.631   1.581 -0.8806 -0.9409  0.3105
   99MOL   H37937815   0.434   5.829   1.680 -0.6117 -1.4176  0.6213
   99MOL   H38037816   0.587   5.783   1.606 -0.5769  1.9557  1.7765
   99MOL   H38137817   0.458   5.842   1.507 -0.9876  1.4529  1.7068
   99MOL   H38237818   0.590   5.242   1.386  0.7380  1.0955  0.1293
  100MOL     C137819   5.766   5.000   1.616 -0.1548  0.2577  0.0641
  100MOL     C237820   5.658   5.108   1.652 -0.2005  0.1836  0.2613
  100MOL     O337821   5.566   5.116   1.547 -0.0791  0.1964  0.3824
  100MOL     C437822   5.544   5.248   1.496 -0.0464 -0.0569 -0.8418
  100MOL     C537823   5.413   5.244   1.421 -0.0377 -0.0530  0.0632
  100MOL     C637824   5.292   5.220   1.510  0.2114  0.5000  0.2709
  100MOL     C737825   5.155   5.236   1.437 -0.6168  0.5380 -0.7830
  100MOL     H837826   5.726   4.906   1.655 -0.3785 -0.5503 -2.0636
  100MOL     H937827   5.794   5.012   1.512 -2.7910  1.9865 -0.5059
  100MOL    H1037828   5.713   5.201   1.649 -1.6916  1.0537 -1.0740
  100MOL    H1137829   5.545   5.325   1.573 -1.6491 -1.1189  0.2806
  100MOL    H1237830   5.630   5.275   1.435  0.0125 -0.8959 -1.1461
  100MOL    H1337831   5.411   5.156   1.357 -3.1410  0.5468 -0.7532
  100MOL    H1437832   5.409   5.331   1.355 -0.2074 -0.3908 -0.3729
  100MOL    H1537833   5.286   5.291   1.592 -1.0273  0.4623  0.2361
  100MOL    H1637834   5.296   5.116   1.542  1.7273 -0.1958 -2.0551
  100MOL    H1737835   5.127   5.170   1.355  3.0720  0.1253 -1.7690
  100MOL    H1837836   5.164   5.332   1.387  0.5650  0.1176 -1.3723
  100MOL    H1937837   5.076   5.248   1.512 -1.0326 -0.6540 -1.0151
  100MOL    H2037838   5.853   5.008   1.681  0.2017 -0.3029 -0.3425
  100MOL    C2137839   5.587   5.073   1.781 -0.0118 -0.1730  0.6243
  100MOL    C2237840   5.473   5.174   1.828  0.6145 -0.4850  0.7611
  100MOL    O2337841   5.416   5.124   1.946 -0.2141  0.3623 -0.4947
  100MOL    C2437842   5.298   5.042   1.931 -0.3430 -0.5143 -0.0401
  100MOL    C2537843   5.242   5.010   2.073 -0.2385 -0.7741 -0.1536
  100MOL    C2637844   5.148   4.888   2.086  0.1781 -0.6107 -0.3400
  100MOL    C2737845   5.095   4.864   2.226 -0.0309  0.1634 -0.1693
  100MOL    H2837846   5.658   5.059   1.862 -1.0233  1.9625  1.9300
  100MOL    H2937847   5.541   4.975   1.771 -1.9039  0.8850 -1.4156
  100MOL    H3037848   5.401   5.178   1.746  1.2524  0.3125  0.2267
  100MOL    H3137849   5.340   4.951   1.888  1.6346  0.8826 -1.1039
  100MOL    H3237850   5.227   5.100   1.872 -1.9893 -1.4291  0.9861
  100MOL    H3337851   5.319   5.008   2.150  0.5061  1.0720 -0.8259
  100MOL    H3437852   5.183   5.099   2.097 -2.1013 -1.7855 -0.9091
  100MOL    H3537853   5.056   4.914   2.034  1.2903 -1.1073 -2.6525
  100MOL    H3637854   5.185   4.791   2.052 -0.7444 -1.2518  0.4633
  100MOL    H3737855   5.055   4.955   2.271  2.3075  1.4785 -0.6924
  100MOL    H3837856   5.012   4.793   2.236  0.9900 -1.1462 -0.8833
  100MOL    H3937857   5.179   4.828   2.284 -0.9124  1.0192  1.6806
  100MOL    C4037858   5.519   5.315   1.865  1.1967 -0.7149  0.0816
  100MOL    C4137859   5.402   5.405   1.911  0.5910  0.1325  0.3214
  100MOL    O4237860   5.357   5.458   1.784 -0.1868 -0.3465  0.4148
  100MOL    C4337861   5.214   5.480   1.781  0.0796 -0.2248 -0.6656
  100MOL    C4437862   5.181   5.559   1.650 -0.4436  0.1861  0.2011
  100MOL    C4537863   5.200   5.706   1.655 -0.2275 -0.5249 -0.1304
  100MOL    C4637864   5.341   5.752   1.689  0.3115 -0.1531 -0.0963
  100MOL    H4737865   5.556   5.360   1.773 -1.3204 -1.0205 -1.1328
  100MOL    H4837866   5.608   5.304   1.927  3.0874 -0.5786 -2.5235
  100MOL    H4937867   5.324   5.362   1.973 -0.3214  1.4140  0.0705
  100MOL    H5037868   5.197   5.553   1.860 -0.2409 -0.0673 -0.8783
  100MOL    H5137869   5.143   5.397   1.785  1.0467 -0.9911  1.0006
  100MOL    H5237870   5.079   5.534   1.622  0.5571 -1.2810 -2.3109
  100MOL    H5337871   5.234   5.521   1.562 -0.5270 -1.8455  0.9814
  100MOL    H5437872   5.136   5.749   1.732 -0.0864  0.2377 -0.4389
  100MOL    H5537873   5.157   5.759   1.569 -0.1174  0.4728  0.4209
  100MOL    H5637874   5.325   5.857   1.667 -0.5146 -0.6854 -2.2384
  100MOL    H5737875   5.376   5.745   1.792 -0.4058  0.3754  0.1847
  100MOL    H5837876   5.418   5.709   1.625  1.2834 -2.7621  2.7152
  100MOL    C5937877   5.458   5.523   1.983 -0.8886 -0.8549  0.0100
  100MOL    C6037878   5.475   5.509   2.131 -0.2158  0.0180  0.6307
  100MOL    O6137879   5.591   5.429   2.156  0.0775  0.2403 -0.3432
  100MOL    C6237880   5.564   5.313   2.224  0.3282  0.7460 -0.1855
  100MOL    C6337881   5.697   5.243   2.262  0.2423 -0.5512 -0.2172
  100MOL    C6437882   5.678   5.130   2.365  0.3953  0.1851  0.0235
  100MOL    C6537883   5.805   5.045   2.392  0.5242 -0.0962 -0.0541
  100MOL    H6637884   5.548   5.561   1.934 -1.1963 -1.7798 -1.2905
  100MOL    H6737885   5.391   5.608   1.968  1.6149  0.9522 -1.2757
  100MOL    H6837886   5.382   5.463   2.165 -1.0870  1.6703  0.5229
  100MOL    H6937887   5.503   5.240   2.169  0.6449  1.0874 -1.0047
  100MOL    H7037888   5.510   5.331   2.317 -0.1552  1.0982 -0.5249
  100MOL    H7137889   5.758   5.196   2.184  1.8471  0.7598  0.2201
  100MOL    H7237890   5.764   5.317   2.306 -0.2248  0.7343 -1.6166
  100MOL    H7337891   5.637   5.159   2.461 -0.5209  1.0672 -0.6252
  100MOL    H7437892   5.606   5.065   2.314 -2.2630  2.8064  0.3387
  100MOL    H7537893   5.864   5.080   2.476 -0.4438  3.3321 -0.7191
  100MOL    H7637894   5.779   4.939   2.396  1.9509 -0.4516  0.0898
  100MOL    H7737895   5.869   5.059   2.305 -1.2401  0.1832 -1.3430
  100MOL    C7837896   5.495   5.639   2.205  0.5494 -0.0669 -0.0755
  100MOL    C7937897   5.503   5.622   2.357  0.0717  0.3269  0.1039
  100MOL    O8037898   5.377   5.629   2.411  0.7096 -0.5447  0.5841
  100MOL    C8137899   5.353   5.555   2.528  0.1165 -0.0261  0.6042
  100MOL    C8237900   5.216   5.598   2.570  0.0257  0.4270  0.2420
  100MOL    C8337901   5.165   5.536   2.701  0.4715  0.0055  0.1213
  100MOL    C8437902   5.030   5.602   2.749  0.0626  0.4698  1.0685
  100MOL    H8537903   5.413   5.705   2.177 -0.1213 -0.7534  0.2575
  100MOL    H8637904   5.589   5.684   2.174  0.5162  0.2485  0.2795
  100MOL    H8737905   5.556   5.531   2.386 -0.0912  0.0183 -0.5449
  100MOL    H8837906   5.427   5.578   2.603  0.1388 -0.6422  0.7689
  100MOL    H8937907   5.348   5.448   2.506  0.7077  0.3283 -1.4143
  100MOL    H9037908   5.211   5.707   2.571  1.0121  0.4776  0.2941
  100MOL    H9137909   5.145   5.575   2.491  0.4288 -1.3008  0.3592
  100MOL    H9237910   5.246   5.562   2.769 -0.1098  1.7426  0.1717
  100MOL    H9337911   5.159   5.428   2.691  0.4494  0.1536 -1.6552
  100MOL    H9437912   5.051   5.707   2.770 -0.3824  0.1343  3.4259
  100MOL    H9537913   4.942   5.598   2.685  1.9594 -2.7186 -1.4862
  100MOL    H9637914   4.993   5.564   2.845 -2.1164 -0.7174 -0.1935
  100MOL    C9737915   5.591   5.741   2.412  0.1071  0.0590 -0.3152
  100MOL    C9837916   5.744   5.715   2.416 -0.1611 -0.4950  0.1374
  100MOL    O9937917   5.788   5.740   2.282  0.1947 -0.0376  0.6151
  100MOL   C10037918   5.884   5.633   2.236  0.4536  0.3901  0.2493
  100MOL   C10137919   5.929   5.673   2.091  0.7622  0.5412 -0.6429
  100MOL   C10237920   6.012   5.800   2.081 -0.1933  0.7196  0.3101
  100MOL   C10337921   6.126   5.803   1.986  0.4243  0.0022 -0.9505
  100MOL   H10437922   5.556   5.756   2.514 -0.6162 -1.9518 -0.2382
  100MOL   H10537923   5.564   5.835   2.364  0.1060  0.2613  0.0768
  100MOL   H10637924   5.764   5.613   2.448 -0.1692 -0.7470 -0.6608
  100MOL   H10737925   5.828   5.539   2.227  0.8795  0.1501  0.1207
  100MOL   H10837926   5.969   5.619   2.302 -0.2082 -1.0028  0.8444
  100MOL   H10937927   5.833   5.682   2.041  0.0742 -0.2755  0.4949
  100MOL   H11037928   5.987   5.587   2.057 -0.5466 -1.0860  1.1322
  100MOL   H11137929   6.041   5.825   2.183  0.6295  3.6069 -0.5599
  100MOL   H11237930   5.943   5.879   2.051 -0.0516  0.5916 -0.3576
  100MOL   H11337931   6.100   5.756   1.891 -3.6919 -1.6958  0.8901
  100MOL   H11437932   6.140   5.903   1.946 -3.0836  1.2371  0.7715
  100MOL   H11537933   6.217   5.767   2.034 -1.9069 -1.2064  2.7540
  100MOL   C11637934   5.820   5.828   2.497  0.2134  0.2708  0.3183
  100MOL   C11737935   5.790   5.826   2.653  0.5197  0.3200  0.1897
  100MOL   O11837936   5.841   5.708   2.707 -0.1802 -0.2286 -0.5764
  100MOL   C11937937   5.745   5.638   2.794 -0.6756 -0.6963  0.0643
  100MOL   C12037938   5.780   5.498   2.821 -0.7030 -0.0802 -0.6644
  100MOL   C12137939   5.792   5.405   2.700  0.4978 -0.4912  0.6299
  100MOL   C12237940   5.834   5.260   2.729  0.0362  0.0352 -0.0234
  100MOL   H12337941   5.928   5.813   2.485  0.1725  1.1022 -1.2047
  100MOL   H12437942   5.802   5.922   2.445 -2.0254 -1.7080 -2.7064
  100MOL   H12537943   5.683   5.842   2.664 -0.1271 -2.7911 -1.2479
  100MOL   H12637944   5.653   5.632   2.735 -0.8329  2.9285 -0.1788
  100MOL   H12737945   5.735   5.699   2.884  0.6982  1.3245 -1.1248
  100MOL   H12837946   5.717   5.458   2.900  1.2320 -1.3228  0.2956
  100MOL   H12937947   5.879   5.510   2.865 -1.2730 -0.5274  0.7528
  100MOL   H13037948   5.710   5.416   2.629  1.0353  0.2387  0.1106
  100MOL   H13137949   5.874   5.445   2.640 -0.1041  1.8222  1.3301
  100MOL   H13237950   5.899   5.200   2.665 -0.8917  0.0691 -1.0094
  100MOL   H13337951   5.743   5.204   2.753 -0.2357  0.4074 -0.1865
  100MOL   H13437952   5.892   5.245   2.820  2.1085 -0.3731 -1.3797
  100MOL   C13537953   5.863   5.945   2.720 -0.0291  0.3756 -0.2276
  100MOL   C13637954   5.833   5.972   2.865  0.2836 -0.3302 -0.3795
  100MOL   O13737955   5.905   6.087   2.907  0.2280 -0.5823 -0.3677
  100MOL   C13837956   6.046   6.067   2.934 -0.1055  0.2773  0.1195
  100MOL   C13937957   6.102   6.188   2.998  0.7325  0.3605 -0.4282
  100MOL   C14037958   6.063   6.207   3.144 -0.0470 -0.0796  0.1163
  100MOL   C14137959   6.146   6.315   3.222  0.1500  0.3830 -0.2850
  100MOL   H14237960   5.842   6.037   2.666  3.8911 -0.0563 -2.7344
  100MOL   H14337961   5.970   5.924   2.708 -0.0251 -0.6955  1.5411
  100MOL   H14437962   5.854   5.893   2.937  0.5945  0.3181  0.2508
  100MOL   H14537963   6.102   6.050   2.842  1.4977 -2.2523  1.5155
  100MOL   H14637964   6.049   5.981   3.000  0.6085  0.8958  0.9025
  100MOL   H14737965   6.070   6.279   2.946 -2.6302 -0.3407  0.3072
  100MOL   H14837966   6.211   6.192   2.997  0.8474 -1.7367  1.3495
  100MOL   H14937967   5.959   6.238   3.157 -0.2385 -0.7552  0.2025
  100MOL   H15037968   6.068   6.122   3.211 -2.8394 -0.7806 -0.5146
  100MOL   H15137969   6.111   6.318   3.325  0.0425 -1.9707 -0.2177
  100MOL   H15237970   6.255   6.314   3.216  0.1919 -0.1263  0.4719
  100MOL   H15337971   6.126   6.407   3.167 -0.0142 -0.4643 -1.6841
  100MOL   C15437972   5.684   6.001   2.892 -0.0252  0.1524  0.0567
  100MOL   C15537973   5.650   6.030   3.039  0.4715  0.3482  0.0132
  100MOL   O15637974   5.652   5.896   3.096  0.3084 -0.3277 -0.6718
  100MOL   C15737975   5.664   5.908   3.243  0.1400  0.4233 -0.1343
  100MOL   C15837976   5.727   5.782   3.299 -0.7345  0.2744  0.4616
  100MOL   C15937977   5.663   5.648   3.236 -0.4594 -0.2791 -0.0048
  100MOL   C16037978   5.710   5.522   3.296  0.1264  0.1765 -0.2821
  100MOL   H16137979   5.610   5.932   2.851  0.3059 -0.5727  0.6781
  100MOL   H16237980   5.638   6.078   2.830 -0.2911 -0.8962 -1.0757
  100MOL   H16337981   5.733   6.086   3.081  0.1612  1.6893 -1.1259
  100MOL   H16437982   5.733   5.985   3.278  0.5060 -1.4682  3.5210
  100MOL   H16537983   5.567   5.934   3.285 -0.5192  0.8033 -1.8543
  100MOL   H16637984   5.709   5.791   3.406 -0.2079  2.5631  0.3841
  100MOL   H16737985   5.835   5.783   3.285 -0.9300 -1.0982 -1.3614
  100MOL   H16837986   5.555   5.644   3.250 -0.3880 -0.0007  0.6513
  100MOL   H16937987   5.681   5.641   3.129  1.0142  2.5196  0.0185
  100MOL   H17037988   5.715   5.507   3.404  1.4587 -0.9307 -0.4713
  100MOL   H17137989   5.665   5.435   3.249  1.8369 -0.7288 -0.2687
  100MOL   H17237990   5.814   5.518   3.261  0.3620 -0.1040  0.4388
  100MOL   C17337991   5.514   6.106   3.058  0.4143  0.4278 -0.2646
  100MOL   C17437992   5.537   6.263   3.066 -0.0331  0.7268 -0.2375
  100MOL   O17537993   5.411   6.328   3.045  0.2976 -0.4003  0.2413
  100MOL   C17637994   5.412   6.449   2.969 -1.3643 -0.0624  0.3481
  100MOL   C17737995   5.266   6.498   2.961  0.0157  0.1690  0.6844
  100MOL   C17837996   5.160   6.416   2.890  0.8486  0.6655  0.5749
  100MOL   C17937997   5.032   6.495   2.861 -0.2580  1.2962 -0.2867
  100MOL   H18037998   5.461   6.077   3.148  1.8798 -3.1399 -0.4604
  100MOL   H18137999   5.446   6.090   2.974  0.4906  3.0647 -0.8883
  100MOL   H18238000   5.601   6.303   2.987 -1.3758  1.4588 -0.9552
  100MOL   H18338001   5.458   6.439   2.870  0.0672 -1.4430  1.1455
  100MOL   H18438002   5.465   6.526   3.025 -0.5218 -0.0801 -0.4021
  100MOL   H18538003   5.265   6.592   2.906  1.3371  0.0360  0.4193
  100MOL   H18638004   5.221   6.520   3.058  0.1394  0.5599  0.6532
  100MOL   H18738005   5.202   6.377   2.798  0.5056  1.1009  0.2358
  100MOL   H18838006   5.152   6.322   2.945  0.6087 -0.1743 -0.8906
  100MOL   H18938007   4.970   6.459   2.779 -0.4153  4.1722 -1.5085
  100MOL   H19038008   4.965   6.512   2.946  0.2999 -2.2755  0.9642
  100MOL   H19138009   5.061   6.588   2.812  0.0197  0.5035 -1.6494
  100MOL   C19238010   5.577   6.306   3.212 -0.0993  0.8052 -0.4561
  100MOL   C19338011   5.678   6.411   3.236 -0.1867 -0.2175 -0.2583
  100MOL   O19438012   5.629   6.534   3.177  0.0980  0.7902  0.1984
  100MOL   C19538013   5.731   6.614   3.130 -0.5839  0.7083  0.3954
  100MOL   C19638014   5.682   6.730   3.046  0.6569 -0.3313  0.3349
  100MOL   C19738015   5.592   6.818   3.129  0.2032 -0.8571  0.6614
  100MOL   C19838016   5.565   6.954   3.061 -0.7358 -0.2883  0.0816
  100MOL   H19938017   5.616   6.211   3.249 -2.3054  0.0762  0.0543
  100MOL   H20038018   5.480   6.320   3.259  0.0275 -1.9691  0.7422
  100MOL   H20138019   5.772   6.381   3.188  1.3840  1.0452  1.9300
  100MOL   H20238020   5.799   6.554   3.070  0.1753  1.2573  0.6935
  100MOL   H20338021   5.782   6.643   3.222 -0.3436  0.6667  0.2727
  100MOL   H20438022   5.767   6.792   3.019 -0.3321  0.0339 -2.1114
  100MOL   H20538023   5.618   6.693   2.966 -2.2396  2.9716  0.9946
  100MOL   H20638024   5.637   6.849   3.223  1.1685  0.9987 -0.3941
  100MOL   H20738025   5.496   6.772   3.154  0.0524 -0.6513  0.4605
  100MOL   H20838026   5.515   6.951   2.964  1.0986 -0.9990 -0.8559
  100MOL   H20938027   5.520   7.015   3.140  2.7137  0.7887  1.3143
  100MOL   H21038028   5.657   7.005   3.032 -1.0735  0.5174  0.3974
  100MOL   C21138029   5.702   6.442   3.390 -0.4392 -0.0102 -0.6848
  100MOL   C21238030   5.795   6.347   3.468  0.2196 -0.1800 -0.1210
  100MOL   O21338031   5.852   6.429   3.570 -0.1490  0.6347  0.0220
  100MOL   C21438032   5.987   6.442   3.556 -0.7621 -0.2337 -0.1597
  100MOL   C21538033   6.035   6.530   3.670 -0.1860  0.4265  0.2891
  100MOL   C21638034   5.952   6.662   3.680  0.2972  0.5286 -0.2826
  100MOL   C21738035   6.032   6.776   3.754  0.3459 -0.2519 -0.2736
  100MOL   H21838036   5.602   6.444   3.434  0.2629  1.9357  0.9467
  100MOL   H21938037   5.735   6.543   3.413 -1.1725 -0.1611  1.1560
  100MOL   H22038038   5.877   6.311   3.406  0.0239 -1.2506  0.2225
  100MOL   H22138039   6.031   6.344   3.540  0.3473  0.2833 -0.2802
  100MOL   H22238040   6.008   6.501   3.467  0.5816  0.0242  0.3219
  100MOL   H22338041   6.021   6.472   3.761 -1.4177 -0.0640 -0.2064
  100MOL   H22438042   6.142   6.548   3.658 -0.3740  0.6763 -1.0836
  100MOL   H22538043   5.859   6.654   3.736 -0.3803  1.0845 -1.3135
  100MOL   H22638044   5.925   6.707   3.585 -0.6722 -0.1811 -0.3527
  100MOL   H22738045   6.022   6.778   3.862  1.0704 -0.5317 -0.1970
  100MOL   H22838046   6.014   6.872   3.707 -1.3098  0.0499  0.9356
  100MOL   H22938047   6.140   6.765   3.744  0.1450 -3.2415  0.2289
  100MOL   C23038048   5.713   6.232   3.519  0.8226 -0.4332  0.2990
  100MOL   C23138049   5.796   6.145   3.611  1.1738 -0.0035 -0.2096
  100MOL   O23238050   5.702   6.053   3.663 -0.3542 -0.3066  0.1453
  100MOL   C23338051   5.717   6.011   3.794 -0.1126 -0.3075 -0.5805
  100MOL   C23438052   5.664   6.116   3.898  0.0603 -0.2936 -0.3101
  100MOL   C23538053   5.514   6.137   3.878 -0.1397 -0.4819 -0.1046
  100MOL   C23638054   5.459   6.250   3.964  0.2413  0.2240 -0.4781
  100MOL   H23738055   5.670   6.169   3.441  0.7486  1.0838 -0.8876
  100MOL   H23838056   5.628   6.274   3.573  0.5215  1.5418 -1.6372
  100MOL   H23938057   5.848   6.197   3.691  1.0823  0.4686 -0.4590
  100MOL   H24038058   5.660   5.918   3.793 -0.2424 -0.2192 -2.4321
  100MOL   H24138059   5.822   5.982   3.794 -0.0753 -0.2343  0.8331
  100MOL   H24238060   5.692   6.086   3.999  0.4541 -2.4646 -1.0494
  100MOL   H24338061   5.722   6.208   3.898 -0.2995 -0.0554 -1.4741
  100MOL   H24438062   5.456   6.049   3.907  0.8671 -0.7345  1.1650
  100MOL   H24538063   5.493   6.157   3.773 -1.7834 -0.4719  0.1986
  100MOL   H24638064   5.353   6.262   3.947  0.3273 -0.9182 -1.8609
  100MOL   H24738065   5.508   6.344   3.940 -0.0244  0.0153 -1.8428
  100MOL   H24838066   5.461   6.237   4.073 -1.9358  0.7822 -0.3488
  100MOL   C24938067   5.891   6.056   3.529 -0.2796  0.0865  0.8723
  100MOL   C25038068   6.027   6.017   3.591 -0.3394  0.3748 -0.5683
  100MOL   O25138069   6.082   6.138   3.640  0.1048  0.3919  0.9019
  100MOL   C25238070   6.179   6.117   3.738 -0.0015  0.4048 -0.0891
  100MOL   C25338071   6.239   6.254   3.784 -0.1156 -0.2066  0.0091
  100MOL   C25438072   6.350   6.228   3.891  0.2584 -0.0728  0.0335
  100MOL   C25538073   6.422   6.353   3.929  0.2978 -0.5113  0.2375
  100MOL   H25638074   5.922   6.103   3.436 -1.6688 -1.3804 -0.3488
  100MOL   H25738075   5.833   5.971   3.494 -0.0572 -0.3557  1.5803
  100MOL   H25838076   6.003   5.955   3.678 -2.3254  0.3209 -1.1280
  100MOL   H25938077   6.260   6.050   3.710  0.3306  1.0352 -0.6671
  100MOL   H26038078   6.133   6.070   3.825 -1.3623  0.3068 -0.8582
  100MOL   H26138079   6.274   6.319   3.703 -1.2513  0.2300 -0.1362
  100MOL   H26238080   6.160   6.312   3.831 -0.8577  0.9037 -2.5203
  100MOL   H26338081   6.310   6.184   3.983  0.9972 -0.9087 -0.0450
  100MOL   H26438082   6.419   6.155   3.850 -0.1190  0.6081 -1.8617
  100MOL   H26538083   6.477   6.332   4.021  0.2493 -1.2091  0.1053
  100MOL   H26638084   6.362   6.443   3.943  1.2888  0.0744  0.8111
  100MOL   H26738085   6.490   6.385   3.851 -1.0843  3.2370  0.4287
  100MOL   C26838086   6.129   5.957   3.489 -0.4646 -0.3955  0.2626
  100MOL   C26938087   6.124   5.806   3.479  0.1913  0.0413  0.4449
  100MOL   O27038088   6.184   5.757   3.363 -0.0892 -0.1003  0.3646
  100MOL   C27138089   6.111   5.770   3.239  0.2901  0.0909  0.8522
  100MOL   C27238090   6.188   5.734   3.115 -0.1405 -0.1876 -0.0813
  100MOL   C27338091   6.309   5.833   3.103 -0.4452 -0.3707  0.9109
  100MOL   C27438092   6.420   5.773   3.022  0.3116  0.1391 -0.1782
  100MOL   H27538093   6.114   6.005   3.393  0.6431 -0.4690  0.0570
  100MOL   H27638094   6.231   5.982   3.516 -1.5431  2.7759  1.6432
  100MOL   H27738095   6.017   5.787   3.485  0.3367 -0.7877  0.5645
  100MOL   H27838096   6.028   5.700   3.241 -1.5416  2.2392  1.9652
  100MOL   H27938097   6.078   5.873   3.227  0.4560  0.3230  2.3472
  100MOL   H28038098   6.223   5.632   3.128 -0.2186 -0.2275 -0.1943
  100MOL   H28138099   6.122   5.738   3.029  0.7510 -1.4886 -0.8506
  100MOL   H28238100   6.350   5.862   3.200 -1.6792  3.0764  0.4643
  100MOL   H28338101   6.278   5.923   3.049 -1.8908 -0.8019  0.9997
  100MOL   H28438102   6.489   5.850   2.984 -0.3435  1.1702  0.6948
  100MOL   H28538103   6.380   5.737   2.927  0.9982  1.5778 -1.0466
  100MOL   H28638104   6.472   5.688   3.066  1.0417 -0.3585 -1.9341
  100MOL   C28738105   6.193   5.722   3.595  0.0766 -0.0943  0.5791
  100MOL   C28838106   6.138   5.577   3.611  0.3056  0.0187 -0.0891
  100MOL   O28938107   6.037   5.585   3.716  0.0212 -0.5220 -0.1341
  100MOL   C29038108   5.946   5.483   3.721 -0.4682 -0.2597  0.0248
  100MOL   C29138109   5.831   5.519   3.817  0.0376 -0.1599  0.8416
  100MOL   C29238110   5.740   5.625   3.767 -0.0456 -0.2356  0.6121
  100MOL   C29338111   5.610   5.664   3.844 -0.2672  0.3632  0.0985
  100MOL   H29438112   6.166   5.782   3.681  0.2750  0.9883 -0.1064
  100MOL   H29538113   6.302   5.722   3.586  0.0671 -1.2196  0.3576
  100MOL   H29638114   6.089   5.546   3.519 -0.4308 -0.9036  0.6028
  100MOL   H29738115   5.910   5.461   3.621  1.0701 -0.9433 -0.4065
  100MOL   H29838116   5.999   5.397   3.764 -0.3298 -0.1910 -0.0101
  100MOL   H29938117   5.867   5.534   3.919  2.7192  0.0345 -0.0863
  100MOL   H30038118   5.763   5.434   3.816 -0.3628  0.1640 -0.2319
  100MOL   H30138119   5.710   5.598   3.665 -0.8405  1.9610  0.2442
  100MOL   H30238120   5.795   5.718   3.758  0.2906 -0.2871  2.0790
  100MOL   H30338121   5.537   5.712   3.779  2.3238  0.2511 -2.9925
  100MOL   H30438122   5.560   5.585   3.899  0.2368  1.1081  1.6657
  100MOL   H30538123   5.632   5.728   3.930 -0.7984  1.6896 -0.7438
  100MOL   C30638124   6.250   5.476   3.660  0.4472 -0.8114  0.4002
  100MOL   C30738125   6.357   5.444   3.552 -0.5062 -0.4103 -0.0263
  100MOL   O30838126   6.298   5.376   3.437  0.3130 -0.4196  0.3858
  100MOL   C30938127   6.331   5.428   3.307 -0.1213 -0.4250 -0.2354
  100MOL   C31038128   6.248   5.355   3.208 -0.3119 -0.2155 -0.4010
  100MOL   C31138129   6.097   5.362   3.228 -0.4813 -0.0352  0.2026
  100MOL   C31238130   6.005   5.276   3.136  0.2937 -0.4057 -0.6811
  100MOL   H31338131   6.296   5.511   3.752 -1.3433  2.1914  0.2282
  100MOL   H31438132   6.197   5.381   3.670 -0.4090 -0.2106  1.6798
  100MOL   H31538133   6.417   5.522   3.504 -0.0918 -1.1585 -0.7393
  100MOL   H31638134   6.439   5.434   3.302 -0.1735  0.8875  0.1784
  100MOL   H31738135   6.296   5.531   3.305 -0.8445 -0.6589 -0.0557
  100MOL   H31838136   6.281   5.252   3.219  1.0036  0.3336  1.0844
  100MOL   H31938137   6.273   5.386   3.106 -0.5048 -1.6891 -0.9124
  100MOL   H32038138   6.081   5.329   3.330 -0.4264 -1.0713 -0.1180
  100MOL   H32138139   6.066   5.466   3.213  0.8352 -0.0020 -2.7922
  100MOL   H32238140   5.902   5.273   3.172  0.6468  2.5055  0.7311
  100MOL   H32338141   6.049   5.176   3.140  2.6427  0.6148 -0.0378
  100MOL   H32438142   6.004   5.324   3.039  0.3053  2.0686  0.4984
  100MOL   C32538143   6.458   5.341   3.614 -0.7544 -0.2094  0.7244
  100MOL   C32638144   6.581   5.392   3.679 -0.6143  0.6823  0.0054
  100MOL   O32738145   6.638   5.488   3.591 -0.4222  0.6409  0.3636
  100MOL   C32838146   6.766   5.460   3.537  0.0128 -0.1617  0.5390
  100MOL   C32938147   6.832   5.563   3.446  0.1525  0.1982 -0.2311
  100MOL   C33038148   6.779   5.562   3.301 -0.9969  0.4523  0.4930
  100MOL   C33138149   6.822   5.686   3.230  0.2006 -0.8219 -0.2707
  100MOL   H33238150   6.494   5.281   3.529 -2.6741  0.2815 -0.4672
  100MOL   H33338151   6.411   5.264   3.675  0.2775 -0.3000  1.4277
  100MOL   H33438152   6.655   5.313   3.687  1.6992  2.9402  1.5348
  100MOL   H33538153   6.761   5.370   3.477 -2.4075  1.1533 -1.3318
  100MOL   H33638154   6.831   5.446   3.623 -0.1633 -0.2953  0.6509
  100MOL   H33738155   6.829   5.660   3.496  3.4972  0.1959  0.0422
  100MOL   H33838156   6.939   5.545   3.443  0.1919  0.2075  0.7812
  100MOL   H33938157   6.671   5.567   3.308 -1.1774 -0.2713 -1.5032
  100MOL   H34038158   6.801   5.474   3.241  0.8407 -0.7796  2.8596
  100MOL   H34138159   6.757   5.703   3.144  1.1784 -0.5493 -0.9723
  100MOL   H34238160   6.925   5.677   3.196  1.0609 -0.6586  2.1915
  100MOL   H34338161   6.811   5.781   3.281 -1.6045 -0.7109 -0.8170
  100MOL   C34438162   6.543   5.461   3.817  0.3766  0.1970  0.5419
  100MOL   C34538163   6.662   5.496   3.903  0.5980  0.7296 -0.0085
  100MOL   O34638164   6.717   5.370   3.950 -0.3716 -0.0471  0.4680
  100MOL   C34738165   6.821   5.366   4.041 -0.6837 -0.1624 -0.8548
  100MOL   C34838166   6.959   5.416   3.997 -0.3139  0.2557  0.2110
  100MOL   C34938167   7.026   5.331   3.888  0.2127 -0.3084 -0.6033
  100MOL   C35038168   7.138   5.414   3.811  0.1022 -0.2310 -0.0014
  100MOL   H35138169   6.497   5.556   3.793  1.1860 -0.0587 -2.1894
  100MOL   H35238170   6.472   5.403   3.875  1.8944 -1.8668  0.4260
  100MOL   H35338171   6.739   5.550   3.848  1.8386 -0.4822  0.5158
  100MOL   H35438172   6.835   5.264   4.077 -1.7886 -0.6869 -1.9018
  100MOL   H35538173   6.807   5.430   4.128 -0.0685 -0.3826 -0.5895
  100MOL   H35638174   7.023   5.423   4.085  0.8707  2.6479 -0.7953
  100MOL   H35738175   6.947   5.520   3.967  0.2527  1.4034  3.7550
  100MOL   H35838176   7.056   5.234   3.929  0.9544  0.7954  1.5154
  100MOL   H35938177   6.954   5.311   3.808 -0.5205  0.2284 -0.0844
  100MOL   H36038178   7.080   5.491   3.760 -0.8517 -1.0388 -0.1682
  100MOL   H36138179   7.182   5.358   3.728 -0.4001  1.6783 -1.5964
  100MOL   H36238180   7.219   5.452   3.872  0.4254  1.1470 -1.2563
  100MOL   C36338181   6.609   5.571   4.026  1.2081  0.6085 -0.1935
  100MOL   C36438182   6.560   5.715   3.994  0.2522  0.0233  0.5577
  100MOL   O36538183   6.432   5.727   3.942  0.1279 -0.0761  0.5588
  100MOL   C36638184   6.332   5.732   4.041 -0.1860 -0.2202 -0.3893
  100MOL   C36738185   6.203   5.785   3.969 -0.5154 -0.3850  0.0501
  100MOL   C36838186   6.088   5.843   4.062  0.6042 -0.2128  0.5610
  100MOL   C36938187   5.961   5.888   3.988  0.1864 -0.5256 -0.0482
  100MOL   H37038188   6.692   5.584   4.095  0.8503 -2.1160  0.8354
  100MOL   H37138189   6.533   5.513   4.079  2.2474  2.1995  3.1201
  100MOL   H37238190   6.636   5.760   3.930  0.1802 -0.8426 -0.1340
  100MOL   H37338191   6.354   5.805   4.118 -1.5244  0.1950 -0.3873
  100MOL   H37438192   6.315   5.638   4.094 -1.1117  0.4009  0.4341
  100MOL   H37538193   6.167   5.703   3.907 -1.4316 -0.5461  0.7814
  100MOL   H37638194   6.234   5.868   3.906 -0.2549 -0.1847  0.4401
  100MOL   H37738195   6.140   5.916   4.124 -0.0678  1.6784 -1.0455
  100MOL   H37838196   6.066   5.762   4.131 -2.2745 -0.3042 -0.4266
  100MOL   H37938197   5.876   5.886   4.057 -1.6615  1.5692 -2.1985
  100MOL   H38038198   5.970   5.990   3.952 -2.2233 -0.1736  0.2768
  100MOL   H38138199   5.950   5.816   3.907 -0.1103 -0.6281  0.0833
  100MOL   H38238200   6.571   5.770   4.088 -0.1580 -0.2414  0.7583
  101MOL     C138201   1.977   7.276   3.255  0.1614 -0.1157  0.1195
  101MOL     C238202   1.928   7.359   3.132  0.0952  0.0535 -0.2678
  101MOL     O338203   2.036   7.376   3.045 -0.2667 -0.0205  0.3111
  101MOL     C438204   2.133   7.473   3.082  0.3773 -0.5420 -0.3321
  101MOL     C538205   2.254   7.444   2.993 -0.3017  0.2701  0.7003
  101MOL     C638206   2.339   7.317   3.057 -1.2061 -0.0365  0.2654
  101MOL     C738207   2.471   7.302   2.992  0.1046 -0.0894 -0.5541
  101MOL     H838208   2.022   7.333   3.337  0.8383 -0.9291  0.3234
  101MOL     H938209   1.889   7.225   3.295  0.1372 -1.3848 -1.5086
  101MOL    H1038210   1.881   7.453   3.161  1.2185  0.7435 -0.6518
  101MOL    H1138211   2.093   7.573   3.069 -1.3623 -1.0954  0.6659
  101MOL    H1238212   2.161   7.476   3.188 -2.4661  2.4103  0.4196
  101MOL    H1338213   2.320   7.531   2.987  0.1199 -0.2385 -3.7325
  101MOL    H1438214   2.221   7.428   2.890  1.7420  0.2125  0.0110
  101MOL    H1538215   2.278   7.227   3.051 -0.0850 -0.8625  0.9030
  101MOL    H1638216   2.346   7.343   3.163  0.8096 -1.7343  0.5832
  101MOL    H1738217   2.476   7.249   2.897  1.6277 -2.0052  0.5605
  101MOL    H1838218   2.513   7.226   3.057  0.6005 -1.8666 -2.8893
  101MOL    H1938219   2.538   7.388   2.991 -1.0269  0.8000 -0.9844
  101MOL    H2038220   2.036   7.188   3.228  1.2513  0.7245 -0.2914
  101MOL    C2138221   1.818   7.281   3.051 -0.1187 -0.3174  0.7345
  101MOL    C2238222   1.762   7.361   2.936  0.7087  0.5390  0.1527
  101MOL    O2338223   1.668   7.278   2.863  0.2148  0.5864 -0.2874
  101MOL    C2438224   1.727   7.173   2.778  0.0806  0.2673 -0.3229
  101MOL    C2538225   1.608   7.103   2.724 -0.0950 -0.1779 -0.9153
  101MOL    C2638226   1.642   6.974   2.632 -0.4034 -0.5246 -0.3968
  101MOL    C2738227   1.686   6.849   2.711  0.9141  0.3335  1.2354
  101MOL    H2838228   1.740   7.250   3.122 -1.3994 -0.5481 -0.7375
  101MOL    H2938229   1.875   7.194   3.017 -0.6719 -0.7459  0.8823
  101MOL    H3038230   1.842   7.417   2.889  1.0563 -1.9371 -2.3266
  101MOL    H3138231   1.786   7.107   2.842  1.8250  0.0003 -2.1664
  101MOL    H3238232   1.786   7.226   2.703  2.1057 -0.3940  0.7788
  101MOL    H3338233   1.552   7.062   2.808 -0.3189 -1.9765 -1.8963
  101MOL    H3438234   1.550   7.184   2.679 -1.1517  0.9459  2.3440
  101MOL    H3538235   1.552   6.951   2.575 -0.3477 -2.2380  0.1666
  101MOL    H3638236   1.719   7.003   2.560 -1.6539 -1.7529 -2.2867
  101MOL    H3738237   1.613   6.820   2.786  0.3893 -1.5411  0.0489
  101MOL    H3838238   1.697   6.759   2.649  2.3835 -0.0599  2.0411
  101MOL    H3938239   1.786   6.865   2.750  1.4642  0.3065 -0.1047
  101MOL    C4038240   1.666   7.475   2.996 -0.0966 -0.3054  0.0775
  101MOL    C4138241   1.579   7.533   2.887  0.5172  0.7480 -0.1751
  101MOL    O4238242   1.680   7.598   2.804 -0.2079 -0.1885 -0.4642
  101MOL    C4338243   1.638   7.610   2.670  0.1566  0.1893 -0.8708
  101MOL    C4438244   1.758   7.658   2.582 -0.0111  1.0071  0.6820
  101MOL    C4538245   1.707   7.653   2.437  0.6323  0.3714 -0.1505
  101MOL    C4638246   1.818   7.680   2.336 -0.1615 -0.6764  0.5004
  101MOL    H4738247   1.734   7.550   3.035 -0.3086  0.3476 -0.7859
  101MOL    H4838248   1.614   7.433   3.082  1.2641 -0.9560  0.5905
  101MOL    H4938249   1.528   7.458   2.826  0.8556  1.6814 -1.6476
  101MOL    H5038250   1.557   7.683   2.667  1.9705  2.3448  0.8905
  101MOL    H5138251   1.603   7.512   2.637  2.8064 -0.8545 -0.6553
  101MOL    H5238252   1.845   7.593   2.591 -0.2953  0.6082  0.5886
  101MOL    H5338253   1.800   7.753   2.613 -0.3850  1.1946  0.6151
  101MOL    H5438254   1.619   7.713   2.411  1.2940  1.3441 -0.1784
  101MOL    H5538255   1.679   7.550   2.418 -1.5609  1.2488 -1.9486
  101MOL    H5638256   1.835   7.787   2.349 -0.7998 -0.3824 -1.0563
  101MOL    H5738257   1.910   7.624   2.356  0.2537  0.5988  2.3745
  101MOL    H5838258   1.778   7.660   2.237 -1.3698 -0.7376  0.9968
  101MOL    C5938259   1.475   7.631   2.948  0.2694 -0.9099 -0.1732
  101MOL    C6038260   1.365   7.570   3.041  0.8002 -0.0193 -0.3718
  101MOL    O6138261   1.288   7.684   3.086 -0.0460  0.7877 -0.3765
  101MOL    C6238262   1.225   7.666   3.211  0.7592 -0.5734  0.3645
  101MOL    C6338263   1.114   7.771   3.244  0.1109 -0.1882  0.2919
  101MOL    C6438264   1.165   0.107   3.238  0.2252 -0.6711 -0.5439
  101MOL    C6538265   1.058   0.212   3.252  1.0748 -1.0493  0.2148
  101MOL    H6638266   1.529   7.709   3.002  0.0650 -0.5862 -0.4296
  101MOL    H6738267   1.421   7.692   2.875 -1.3806 -0.1391  1.6556
  101MOL    H6838268   1.415   7.519   3.123  1.7619  0.6634 -0.5181
  101MOL    H6938269   1.303   7.659   3.287  1.1308 -2.8778 -0.1958
  101MOL    H7038270   1.181   7.567   3.194 -0.1725  0.2798 -2.4740
  101MOL    H7138271   1.030   7.759   3.177  1.5386 -0.9700 -1.3953
  101MOL    H7238272   1.078   7.738   3.342  1.1251 -0.0197  0.7319
  101MOL    H7338273   1.244   0.119   3.313 -1.0185  1.5411  0.4464
  101MOL    H7438274   1.216   0.122   3.143 -1.3863  2.1921 -0.9950
  101MOL    H7538275   0.993   0.210   3.339 -0.7226 -2.3003 -1.1109
  101MOL    H7638276   1.086   0.317   3.237 -2.1697  0.1834  2.3063
  101MOL    H7738277   0.987   0.190   3.172 -1.7897  1.5733  1.9278
  101MOL    C7838278   1.276   7.465   2.972 -0.4208  0.1568 -0.0152
  101MOL    C7938279   1.207   7.498   2.840 -0.4210  1.1772  0.5997
  101MOL    O8038280   1.057   7.494   2.846  0.4397 -0.5635 -0.0939
  101MOL    C8138281   1.000   7.613   2.900 -0.5242  0.0721 -0.1011
  101MOL    C8238282   0.844   7.614   2.889 -0.0321  0.0527  0.2539
  101MOL    C8338283   0.779   7.752   2.871  0.0376 -0.2928 -0.3815
  101MOL    C8438284   0.802   0.048   2.990  0.1346 -0.2306 -0.7439
  101MOL    H8538285   1.192   7.436   3.036 -0.7938 -0.2941 -0.6993
  101MOL    H8638286   1.332   7.375   2.948 -1.3485 -0.2320 -0.7714
  101MOL    H8738287   1.227   7.600   2.810  0.1855  0.2907 -2.1185
  101MOL    H8838288   1.046   7.697   2.848  0.7652 -0.2830  0.4271
  101MOL    H8938289   1.031   7.626   3.004 -0.8747 -3.0037  0.4380
  101MOL    H9038290   0.813   7.557   2.802 -1.3081 -1.3091  1.5762
  101MOL    H9138291   0.808   7.559   2.976  0.1089  0.7698  0.7684
  101MOL    H9238292   0.671   7.742   2.857  0.0589  0.2096 -0.9381
  101MOL    H9338293   0.814   7.790   2.775  1.7251 -0.3671  0.1933
  101MOL    H9438294   0.910   0.055   3.003  0.1214  0.6877 -1.1140
  101MOL    H9538295   0.768   0.151   2.978 -3.7204 -1.3339 -0.0475
  101MOL    H9638296   0.766   0.003   3.083  2.5090  1.0071  0.8396
  101MOL    C9738297   1.235   7.394   2.725 -0.1396 -0.4030 -0.1786
  101MOL    C9838298   1.178   7.446   2.593 -0.1951 -0.4386  0.3385
  101MOL    O9938299   1.258   7.556   2.545  0.0083 -0.0252  0.3276
  101MOL   C10038300   1.195   7.665   2.482 -0.1009  0.2129  0.4452
  101MOL   C10138301   1.302   7.726   2.393  0.3375  0.3591  0.3271
  101MOL   C10238302   1.374   7.635   2.285  0.5133 -0.1605  0.7803
  101MOL   C10338303   1.442   7.715   2.173  0.1899 -0.1554  0.4442
  101MOL   H10438304   1.190   7.304   2.766  1.7299 -0.7158  1.2377
  101MOL   H10538305   1.341   7.368   2.722  0.2383  1.2468 -3.1180
  101MOL   H10638306   1.074   7.478   2.603 -0.4986 -0.9171 -1.2078
  101MOL   H10738307   1.150   7.740   2.547  0.7278  3.0884 -2.1498
  101MOL   H10838308   1.112   7.631   2.421 -0.3699 -0.4082  1.1519
  101MOL   H10938309   1.376   7.765   2.463  0.2997  1.9283 -0.4869
  101MOL   H11038310   1.262   0.013   2.344  2.0527  0.6856 -0.5192
  101MOL   H11138311   1.305   7.565   2.237  0.4404 -0.1280  0.8384
  101MOL   H11238312   1.447   7.577   2.341  2.1101  0.7398 -0.3080
  101MOL   H11338313   1.510   7.779   2.230 -1.6061  1.7575  0.4949
  101MOL   H11438314   1.510   7.651   2.117  0.0082 -0.2130  0.2895
  101MOL   H11538315   1.374   7.774   2.111 -0.9380  0.5086  2.2443
  101MOL   C11638316   1.180   7.342   2.484 -0.8299  0.0826  0.1482
  101MOL   C11738317   1.068   7.236   2.488  0.4454  0.7193  0.2954
  101MOL   O11838318   0.942   7.302   2.468 -0.0530  0.0017 -0.2273
  101MOL   C11938319   0.861   7.309   2.590 -0.4819 -0.4415  0.5175
  101MOL   C12038320   0.739   7.395   2.549  0.0429 -0.0986  0.4496
  101MOL   C12138321   0.774   7.540   2.521 -0.0301 -0.0904 -0.2365
  101MOL   C12238322   0.640   7.629   2.524  0.1839 -0.3198  0.4215
  101MOL   H12338323   1.172   7.398   2.390  1.8893 -1.0677 -0.8217
  101MOL   H12438324   1.278   7.296   2.474 -0.0788  2.0409 -2.0418
  101MOL   H12538325   1.076   7.194   2.588  0.6454  0.3801  0.1395
  101MOL   H12638326   0.928   7.339   2.670  0.0199  0.5759 -0.2773
  101MOL   H12738327   0.816   7.214   2.621  0.4470 -0.8079  0.7344
  101MOL   H12838328   0.675   7.386   2.636  1.6257 -0.1453  1.6216
  101MOL   H12938329   0.686   7.349   2.465 -0.5446 -0.5196  1.0477
  101MOL   H13038330   0.850   7.580   2.588 -1.2074 -1.2770  1.8657
  101MOL   H13138331   0.816   7.552   2.421 -0.2062 -0.7443 -0.3948
  101MOL   H13238332   0.654   7.737   2.515 -0.1527 -0.2512  0.7389
  101MOL   H13338333   0.570   7.617   2.606 -1.4126  2.3631 -0.4899
  101MOL   H13438334   0.576   7.599   2.441  0.1056 -1.3169  0.8296
  101MOL   C13538335   1.086   7.117   2.397  0.3941  0.2217 -0.5054
  101MOL   C13638336   0.967   7.016   2.413  0.6964  0.0557 -0.2700
  101MOL   O13738337   0.993   6.914   2.317  0.3350 -0.2708  0.5725
  101MOL   C13838338   0.940   6.936   2.184  0.8782 -0.3355 -0.2022
  101MOL   C13938339   0.816   6.844   2.155  0.5761  1.2070  0.3487
  101MOL   C14038340   0.755   6.879   2.021  0.6857  0.0926 -0.0792
  101MOL   C14138341   0.616   6.816   1.992  0.0496 -0.0412  0.3235
  101MOL   H14238342   1.179   7.072   2.433  1.0024  2.0019  0.2047
  101MOL   H14338343   1.101   7.146   2.293  0.4480  0.4058 -0.4473
  101MOL   H14438344   0.864   7.051   2.407  0.8734  0.6833  0.3046
  101MOL   H14538345   1.014   6.907   2.109 -0.5406 -2.2294 -0.9196
  101MOL   H14638346   0.931   7.041   2.158 -1.4318 -0.0005  1.8328
  101MOL   H14738347   0.747   6.864   2.237 -2.8378  0.3822 -2.2191
  101MOL   H14838348   0.845   6.739   2.169  0.7199  1.2862  0.6471
  101MOL   H14938349   0.761   6.988   2.018 -2.5116  0.3067 -1.8533
  101MOL   H15038350   0.816   6.851   1.935 -1.8887 -1.1131 -1.5650
  101MOL   H15138351   0.554   6.807   2.082 -1.3829 -0.1204 -0.6585
  101MOL   H15238352   0.549   6.887   1.943 -1.4308 -2.5587 -1.3928
  101MOL   H15338353   0.610   6.716   1.950  0.3233  0.2083 -0.3122
  101MOL   C15438354   0.979   6.955   2.548 -0.5403 -0.2553  0.0084
  101MOL   C15538355   0.880   6.845   2.581  0.2458  0.0972  0.0510
  101MOL   O15638356   0.756   6.905   2.613 -0.5900  0.4071 -0.0999
  101MOL   C15738357   0.658   6.874   2.519 -0.1121 -0.3744  0.1079
  101MOL   C15838358   0.519   6.911   2.580 -0.1917  0.4511 -0.2399
  101MOL   C15938359   0.391   6.886   2.505 -0.1977 -0.6806  0.7877
  101MOL   C16038360   0.361   6.739   2.487  1.2843  1.0032 -0.0359
  101MOL   H16138361   0.981   7.022   2.634 -1.3413  0.4908 -0.5479
  101MOL   H16238362   1.077   6.907   2.550 -0.0981  0.6400  0.2716
  101MOL   H16338363   0.884   6.774   2.499  0.9409 -0.2693  0.3950
  101MOL   H16438364   0.673   6.935   2.431  0.6733 -0.1569  0.3979
  101MOL   H16538365   0.667   6.769   2.489  0.1852 -0.6626  1.1991
  101MOL   H16638366   0.518   7.015   2.612  0.1599  0.4099 -0.1006
  101MOL   H16738367   0.493   6.855   2.670  1.5868 -2.2243 -1.3527
  101MOL   H16838368   0.306   6.933   2.555 -0.5665  2.4241 -2.4826
  101MOL   H16938369   0.396   6.942   2.411 -0.5684  0.0587  1.1965
  101MOL   H17038370   0.296   6.706   2.405  1.6941 -0.9953  0.4200
  101MOL   H17138371   0.452   6.685   2.463 -0.0904 -2.5287  2.3475
  101MOL   H17238372   0.314   6.694   2.574 -0.0965  0.8131 -0.8595
  101MOL   C17338373   0.920   6.781   2.713 -0.2696 -0.6480  0.2396
  101MOL   C17438374   0.828   6.660   2.748 -0.7539  0.6362 -0.7287
  101MOL   O17538375   0.904   6.539   2.769  0.0460  0.6822  0.2975
  101MOL   C17638376   0.937   6.453   2.654 -0.8460  0.2568  0.3578
  101MOL   C17738377   1.040   6.346   2.688 -0.2613  0.6103  0.2118
  101MOL   C17838378   1.176   6.412   2.703 -0.2197 -0.5345  0.1909
  101MOL   C17938379   1.277   6.311   2.761 -0.9071 -0.2262 -0.1183
  101MOL   H18038380   0.919   6.865   2.783 -3.1770  0.4994 -1.0844
  101MOL   H18138381   1.019   6.738   2.698 -0.5200 -0.8407 -0.9219
  101MOL   H18238382   0.761   6.643   2.663 -0.1409  1.2157 -1.3382
  101MOL   H18338383   0.969   6.521   2.575 -2.4218  1.5950  0.8515
  101MOL   H18438384   0.850   6.406   2.609  0.8301 -1.5540 -1.1358
  101MOL   H18538385   1.043   6.293   2.593  1.3054  0.9502  0.0550
  101MOL   H18638386   1.022   6.268   2.761 -1.8476 -0.1524 -0.9633
  101MOL   H18738387   1.203   6.441   2.601  1.6284 -2.3522  0.1311
  101MOL   H18838388   1.162   6.496   2.770  2.1542 -2.2256  2.9015
  101MOL   H18938389   1.379   6.340   2.736 -0.7948 -2.0395 -1.9366
  101MOL   H19038390   1.277   6.315   2.869 -2.0615 -1.4912 -0.0538
  101MOL   H19138391   1.259   6.210   2.723  1.0622 -0.1655 -1.2803
  101MOL   C19238392   0.785   6.676   2.889 -0.2968 -0.1431 -0.6832
  101MOL   C19338393   0.675   6.578   2.932 -0.2154  0.1240  0.4620
  101MOL   O19438394   0.644   6.615   3.070 -0.0644  0.9315 -0.2186
  101MOL   C19538395   0.713   6.543   3.167 -0.2242 -0.3605  0.0311
  101MOL   C19638396   0.706   6.610   3.306 -0.3254 -0.1506 -0.2664
  101MOL   C19738397   0.781   6.741   3.310  0.2383  0.2358 -0.2698
  101MOL   C19838398   0.780   6.814   3.439 -0.5900 -0.5562 -0.7754
  101MOL   H19938399   0.745   6.777   2.898  0.4177  0.2549 -1.8761
  101MOL   H20038400   0.867   6.668   2.960  0.8019  0.2266 -1.8872
  101MOL   H20138401   0.707   6.475   2.913  2.8953  1.6757 -3.3827
  101MOL   H20238402   0.819   6.527   3.150  0.1352  3.0007 -1.2703
  101MOL   H20338403   0.674   6.441   3.169  0.5707 -0.7063 -1.6662
  101MOL   H20438404   0.601   6.631   3.326 -1.0043 -1.5547 -2.2178
  101MOL   H20538405   0.739   6.541   3.383  0.8103 -0.5840 -1.1434
  101MOL   H20638406   0.751   6.809   3.230  1.7851  0.7677 -0.4111
  101MOL   H20738407   0.884   6.712   3.293 -0.0039  0.2166 -1.8468
  101MOL   H20838408   0.844   6.769   3.515  0.0799  0.9243 -0.4479
  101MOL   H20938409   0.809   6.918   3.424  0.1628 -1.1875 -3.9015
  101MOL   H21038410   0.680   6.797   3.479 -0.1926  0.6217  0.7833
  101MOL   C21138411   0.542   6.596   2.848  0.0359  0.7313 -0.1569
  101MOL   C21238412   0.424   6.506   2.888  0.0534  0.1957 -0.3795
  101MOL   O21338413   0.461   6.372   2.888 -0.2340  0.4558  0.7871
  101MOL   C21438414   0.404   6.303   2.786  0.1732 -0.6499  0.1193
  101MOL   C21538415   0.484   6.179   2.763 -0.1671 -0.6235  0.0923
  101MOL   C21638416   0.618   6.214   2.694  0.0667  0.0487  0.0971
  101MOL   C21738417   0.606   6.277   2.551  0.3998  0.0348  0.0416
  101MOL   H21838418   0.551   6.592   2.740 -0.8624  0.8747 -0.2446
  101MOL   H21938419   0.517   6.702   2.857  0.4657  0.6663  2.1920
  101MOL   H22038420   0.336   6.518   2.825 -0.4280 -0.3669  0.1666
  101MOL   H22138421   0.306   6.276   2.825 -0.2067  2.1917  1.2820
  101MOL   H22238422   0.395   6.357   2.692 -1.7333  0.9498  1.1596
  101MOL   H22338423   0.504   6.132   2.859 -0.3709 -0.9402 -0.0186
  101MOL   H22438424   0.428   6.106   2.706 -0.3076  1.1825 -2.1696
  101MOL   H22538425   0.663   6.116   2.680 -1.7266 -0.8064  0.1489
  101MOL   H22638426   0.683   6.269   2.761 -1.4017  0.3298  1.3251
  101MOL   H22738427   0.535   6.219   2.492  0.8483  0.1112 -0.5701
  101MOL   H22838428   0.698   6.277   2.493  0.4907  0.4698  0.1835
  101MOL   H22938429   0.576   6.382   2.555 -1.0008 -0.3967  1.2794
  101MOL   C23038430   0.366   6.536   3.027  0.0944  0.2252 -0.0731
  101MOL   C23138431   0.335   6.686   3.074 -0.0164 -0.5641 -0.4695
  101MOL   O23238432   0.229   6.723   2.991  0.7527 -0.2455  0.1455
  101MOL   C23338433   0.257   6.814   2.884 -0.2216 -0.6655  0.6688
  101MOL   C23438434   0.131   6.856   2.814  0.7855 -0.2494 -0.0719
  101MOL   C23538435   0.012   6.891   2.904  0.0625 -0.4937  0.3046
  101MOL   C23638436   7.677   6.912   2.837  0.7226 -0.2283 -0.0046
  101MOL   H23738437   0.445   6.499   3.093  0.6828  0.9913 -0.3408
  101MOL   H23838438   0.279   6.472   3.036 -0.2676  0.7889  0.4045
  101MOL   H23938439   0.421   6.752   3.056 -1.9242  2.2671  0.3575
  101MOL   H24038440   0.312   6.901   2.920 -1.3338  0.2816  0.1202
  101MOL   H24138441   0.319   6.766   2.809  0.3923 -0.0821  0.7961
  101MOL   H24238442   0.160   6.925   2.734  0.2957  0.9856  0.8022
  101MOL   H24338443   0.096   6.769   2.758  0.1457  1.0082 -1.6902
  101MOL   H24438444   0.029   6.979   2.966 -0.4696 -1.0852  1.3000
  101MOL   H24538445   7.800   6.805   2.970 -1.5881  0.3096  1.0544
  101MOL   H24638446   7.626   6.820   2.810  2.2610 -1.6890  1.9201
  101MOL   H24738447   7.684   6.987   2.758 -0.6269  0.8768  0.8944
  101MOL   H24838448   7.609   6.957   2.909 -1.2675 -0.6695 -1.5740
  101MOL   C24938449   0.293   6.700   3.221  0.6482  0.0505  0.1070
  101MOL   C25038450   0.321   6.833   3.285 -0.1799 -0.1890  0.0186
  101MOL   O25138451   0.302   6.822   3.419  0.5423 -0.1427 -0.5413
  101MOL   C25238452   0.413   6.822   3.503  0.0375 -0.2075 -0.5112
  101MOL   C25338453   0.378   6.848   3.649 -0.3453  0.0374  0.0425
  101MOL   C25438454   0.278   6.966   3.685 -0.3634  0.3997  0.0844
  101MOL   C25538455   0.211   6.939   3.814 -0.2358 -0.1115 -0.4124
  101MOL   H25638456   0.338   6.626   3.286  1.3703 -0.1242 -0.5725
  101MOL   H25738457   0.187   6.682   3.232  0.0251  2.4615 -1.4934
  101MOL   H25838458   0.426   6.857   3.268 -0.6826  2.8817  1.0288
  101MOL   H25938459   0.480   6.897   3.460  1.0134 -0.8016 -0.0471
  101MOL   H26038460   0.462   6.726   3.484 -1.4482 -1.2661  0.9343
  101MOL   H26138461   0.315   6.760   3.664 -4.6256  2.6158 -1.7920
  101MOL   H26238462   0.471   6.839   3.705 -0.2282 -2.9826 -0.5480
  101MOL   H26338463   0.331   7.059   3.665  0.2686 -0.2824 -1.4312
  101MOL   H26438464   0.200   6.951   3.610  0.2525 -2.0011 -0.1154
  101MOL   H26538465   0.125   7.006   3.819 -0.9348 -1.0884  1.2714
  101MOL   H26638466   0.293   6.957   3.884  0.6208 -2.2627 -0.8283
  101MOL   H26738467   0.167   6.840   3.825 -1.9300  0.5975 -0.6899
  101MOL   C26838468   0.223   6.946   3.238  0.3160  0.3578  0.4621
  101MOL   C26938469   0.277   7.086   3.269  0.5837 -0.1510 -0.6167
  101MOL   O27038470   0.359   7.133   3.158 -0.3743  0.0042  0.1183
  101MOL   C27138471   0.487   7.074   3.141  0.6757  0.2824 -0.1111
  101MOL   C27238472   0.556   7.148   3.028  0.2344 -0.3207  0.2360
  101MOL   C27338473   0.707   7.127   3.024 -0.0697  0.2020  0.4312
  101MOL   C27438474   0.771   7.174   2.894 -0.8231  0.1302  0.6872
  101MOL   H27538475   0.210   6.931   3.131  3.4826 -1.0780  0.2201
  101MOL   H27638476   0.122   6.928   3.275  0.1972 -0.1343 -0.0964
  101MOL   H27738477   0.347   7.082   3.352 -0.1329  0.6273  0.0453
  101MOL   H27838478   0.546   7.075   3.233  1.6747  2.0426 -0.7342
  101MOL   H27938479   0.468   6.975   3.100  0.6820  0.4596 -0.5461
  101MOL   H28038480   0.505   7.110   2.939 -0.3950 -0.5169  0.6792
  101MOL   H28138481   0.539   7.255   3.034  0.2349 -0.1082 -2.7609
  101MOL   H28238482   0.739   7.023   3.029  1.5685  0.7158  1.1394
  101MOL   H28338483   0.753   7.186   3.104  0.4165 -1.1803  1.1875
  101MOL   H28438484   0.748   7.094   2.822 -2.3507  0.3378  0.9335
  101MOL   H28538485   0.875   7.206   2.902  0.5726 -3.2309 -2.1403
  101MOL   H28638486   0.718   7.260   2.854  1.4758  2.6552  2.8987
  101MOL   C28738487   0.167   7.197   3.291 -0.3321 -0.0824  0.1487
  101MOL   C28838488   0.225   7.330   3.353  0.1744  0.4268  0.0531
  101MOL   O28938489   0.274   7.299   3.485  0.5035  0.1926 -0.0162
  101MOL   C29038490   0.394   7.362   3.525  0.4816 -0.4783  0.4926
  101MOL   C29138491   0.436   7.331   3.665 -0.9989 -0.1777  0.0686
  101MOL   C29238492   0.532   7.434   3.726 -0.3133  0.2019  0.0279
  101MOL   C29338493   0.592   7.403   3.862 -0.1117  0.1720  0.4003
  101MOL   H29438494   0.083   7.156   3.346  0.4272 -0.8763  0.7393
  101MOL   H29538495   0.131   7.223   3.192 -0.0278 -1.5297 -0.3517
  101MOL   H29638496   0.304   7.369   3.289  0.3164  1.3789  0.8011
  101MOL   H29738497   0.472   7.333   3.456  0.1308 -3.6661  1.3660
  101MOL   H29838498   0.383   7.470   3.516  3.6077 -0.2584 -1.3683
  101MOL   H29938499   0.488   7.236   3.674 -0.1935  0.1319 -1.3759
  101MOL   H30038500   0.351   7.329   3.734 -1.6923  1.9793 -0.6615
  101MOL   H30138501   0.491   7.534   3.741 -0.7825 -0.2566  1.8742
  101MOL   H30238502   0.612   7.436   3.652 -0.4468 -0.8683 -0.1617
  101MOL   H30338503   0.637   7.304   3.868 -0.7405 -0.2312 -1.2400
  101MOL   H30438504   0.668   7.475   3.892 -0.4229  0.6336  0.0916
  101MOL   H30538505   0.510   7.401   3.933 -0.4332 -1.2439  0.0056
  101MOL   C30638506   0.126   7.443   3.372 -0.1136 -0.3438 -0.0345
  101MOL   C30738507   0.065   7.514   3.251  0.6606  0.4056 -0.0779
  101MOL   O30838508   0.179   7.556   3.170 -0.3608 -0.1045  0.0640
  101MOL   C30938509   0.144   7.583   3.038 -0.3809 -0.2415 -0.1899
  101MOL   C31038510   0.276   7.611   2.960 -0.2355 -0.0809 -0.1809
  101MOL   C31138511   0.349   7.476   2.939 -0.9704  0.1254 -0.0591
  101MOL   C31238512   0.460   7.472   2.838  0.4964 -0.5422 -0.3345
  101MOL   H31338513   0.051   7.401   3.438  2.6509 -1.2853  2.6453
  101MOL   H31438514   0.180   7.518   3.430  2.0919 -0.8155 -1.3669
  101MOL   H31538515   0.010   7.430   3.207  1.7347  0.8532 -2.3338
  101MOL   H31638516   0.081   7.671   3.029  1.3329  0.7121 -3.5167
  101MOL   H31738517   0.095   7.495   2.996 -2.4396  0.2239  1.1068
  101MOL   H31838518   0.341   7.669   3.026 -0.7564 -1.4156  1.5733
  101MOL   H31938519   0.268   7.662   2.864  0.5890  1.6311  0.6334
  101MOL   H32038520   0.387   7.447   3.037  3.2758  1.5291 -1.2038
  101MOL   H32138521   0.273   7.400   2.919  0.4176 -1.3610  0.1785
  101MOL   H32238522   0.549   7.517   2.882  1.8451 -1.6184 -1.9311
  101MOL   H32338523   0.436   7.546   2.761  3.0823  1.3713  0.6182
  101MOL   H32438524   0.479   7.371   2.802 -1.3180 -1.7762  1.9841
  101MOL   C32538525   7.774   7.633   3.289  0.0427 -0.4282 -0.0072
  101MOL   C32638526   7.648   7.608   3.369 -0.4670  0.5927  0.4773
  101MOL   O32738527   7.595   7.730   3.417  0.4165  0.5002 -0.0366
  101MOL   C32838528   7.654   7.762   3.543 -0.3965  0.0611  0.4811
  101MOL   C32938529   7.545   7.729   3.648  0.2973 -0.0097 -0.0453
  101MOL   C33038530   7.419   0.013   3.629  0.4843 -0.2211 -0.0730
  101MOL   C33138531   7.304   7.752   3.711  0.7239 -0.0493 -0.2296
  101MOL   H33238532   7.742   7.682   3.197 -0.6344 -0.6449  0.1073
  101MOL   H33338533   0.020   7.710   3.349  0.4864  1.3571 -2.5809
  101MOL   H33438534   7.679   7.540   3.447 -1.1268  0.8706  0.9851
  101MOL   H33538535   7.682   0.065   3.541 -1.5273  0.3569 -1.5940
  101MOL   H33638536   7.743   7.704   3.567 -1.2608 -1.3083  0.4639
  101MOL   H33738537   7.519   7.623   3.648 -1.3273  0.3652  0.4877
  101MOL   H33838538   7.581   7.750   3.749 -0.7310 -0.5293  0.4450
  101MOL   H33938539   7.384   0.008   3.526 -0.2170 -0.3450  0.1692
  101MOL   H34038540   7.445   0.115   3.657  1.1713 -0.5237  0.4086
  101MOL   H34138541   7.212   0.008   3.720 -0.4767 -2.0211  0.4426
  101MOL   H34238542   7.324   7.740   3.818 -3.7061 -1.2856  0.5623
  101MOL   H34338543   7.273   7.653   3.678 -1.4191 -0.2678  2.2612
  101MOL   C34438544   7.539   7.550   3.282 -0.0972  0.8554  0.3625
  101MOL   C34538545   7.429   7.491   3.365 -0.0606  0.4111  0.2019
  101MOL   O34638546   7.485   7.377   3.424  0.4164  0.2212 -0.3071
  101MOL   C34738547   7.433   7.335   3.548  0.3352 -0.2971 -0.3611
  101MOL   C34838548   7.528   7.234   3.613 -0.2597 -1.0509 -0.1694
  101MOL   C34938549   7.675   7.266   3.596 -0.1265  0.1951 -0.2546
  101MOL   C35038550   7.768   7.152   3.655 -0.3564 -0.1927  0.8969
  101MOL   H35138551   7.498   7.618   3.208 -1.1810 -0.3114 -0.1383
  101MOL   H35238552   7.588   7.466   3.234 -1.7204  0.1284 -0.0567
  101MOL   H35338553   7.406   7.567   3.440 -1.6169  1.5499 -1.3945
  101MOL   H35438554   7.326   7.318   3.537  0.2122  1.1815 -1.6418
  101MOL   H35538555   7.446   7.423   3.612  1.9185  0.6244 -1.9216
  101MOL   H35638556   7.509   7.136   3.568  0.8299 -1.8115  0.9966
  101MOL   H35738557   7.514   7.225   3.721  0.2214  2.2634  0.2258
  101MOL   H35838558   7.692   7.276   3.489  0.3548 -3.6259 -0.5981
  101MOL   H35938559   7.696   7.355   3.655 -2.6619  0.5802  0.1150
  101MOL   H36038560   7.780   7.073   3.581 -0.4688 -0.4013  1.0995
  101MOL   H36138561   7.722   7.110   3.744  0.0717 -0.3019  1.0668
  101MOL   H36238562   0.058   7.207   3.676 -1.1016  0.7715  1.6825
  101MOL   C36338563   7.308   7.463   3.281 -0.0625  0.2674 -0.7618
  101MOL   C36438564   7.221   7.586   3.255  0.1493  0.1333 -0.4551
  101MOL   O36538565   7.132   7.539   3.156  0.1631  0.2553  0.7176
  101MOL   C36638566   7.049   7.646   3.115  0.1103  0.5988  0.4313
  101MOL   C36738567   6.973   7.584   2.991 -0.3309  0.0184  0.0748
  101MOL   C36838568   6.868   7.477   3.031  0.0730  0.2364  0.0169
  101MOL   C36938569   6.815   7.416   2.899  0.5928 -0.2849  0.4165
  101MOL   H37038570   7.248   7.373   3.300 -3.2735  2.5764  0.4689
  101MOL   H37138571   7.344   7.435   3.182 -4.1698 -1.2009 -1.9425
  101MOL   H37238572   7.280   7.673   3.225  0.8065  0.4056  1.5308
  101MOL   H37338573   7.106   7.735   3.088  0.5385  0.0324 -0.5785
  101MOL   H37438574   6.987   7.678   3.198  0.1870  0.7911  0.4135
  101MOL   H37538575   7.044   7.536   2.925 -1.7524  0.6778 -1.9657
  101MOL   H37638576   6.932   7.664   2.929  2.6661  0.5556 -1.2958
  101MOL   H37738577   6.788   7.532   3.080 -0.5075  0.6712 -1.3984
  101MOL   H37838578   6.907   7.411   3.109  0.4032 -2.5473 -2.3866
  101MOL   H37938579   6.724   7.359   2.916  0.7241 -0.3278  0.9951
  101MOL   H38038580   6.778   7.495   2.833  1.5789 -0.8938 -0.8797
  101MOL   H38138581   6.890   7.365   2.838  0.7908 -0.8359  1.1143
  101MOL   H38238582   7.172   7.613   3.349  0.9343  0.0679 -0.0211
  102MOL     C138583   3.064   2.638   6.592  0.1654  0.7491 -0.5366
  102MOL     C238584   3.134   2.586   6.716 -0.2009 -0.6965  0.5030
  102MOL     O338585   3.067   2.661   6.817 -0.2536 -0.1138  0.3669
  102MOL     C438586   3.153   2.708   6.921  0.6761  0.0363 -0.3870
  102MOL     C538587   3.119   2.852   6.965  1.0517  0.0479 -0.1050
  102MOL     C638588   3.158   2.889   7.103 -0.4685  0.0234  0.9232
  102MOL     C738589   3.144   3.035   7.141 -0.0066 -0.5824 -0.4514
  102MOL     H838590   3.059   2.745   6.608 -2.3882  0.6029 -0.2199
  102MOL     H938591   3.115   2.617   6.498  0.2884  0.6570 -0.4499
  102MOL    H1038592   3.239   2.615   6.711 -0.4641  0.4133  1.1603
  102MOL    H1138593   3.135   2.640   7.003  0.1330  0.5225 -0.1031
  102MOL    H1238594   3.259   2.696   6.897  1.3214  0.5233  2.0871
  102MOL    H1338595   3.014   2.879   6.949  0.6264 -1.8157 -0.6462
  102MOL    H1438596   3.165   2.916   6.890 -2.7595  0.5008 -2.2316
  102MOL    H1538597   3.263   2.861   7.105  0.1724  2.0197 -2.1853
  102MOL    H1638598   3.089   2.838   7.170 -1.4018 -0.8407 -0.6636
  102MOL    H1738599   3.040   3.055   7.164 -0.3814 -2.9663  0.0691
  102MOL    H1838600   3.175   3.105   7.064  1.5602 -0.2522  0.4548
  102MOL    H1938601   3.200   3.057   7.232 -0.6535 -1.6964  0.2286
  102MOL    H2038602   2.967   2.589   6.584 -0.1337  1.3260 -0.4596
  102MOL    C2138603   3.110   2.437   6.739 -0.3095  0.3260 -0.2790
  102MOL    C2238604   3.228   2.346   6.699  1.2318 -0.5456  0.5256
  102MOL    O2338605   3.233   2.349   6.554  0.0733 -0.4157 -0.4543
  102MOL    C2438606   3.297   2.234   6.494 -0.4466  0.0846 -0.7839
  102MOL    C2538607   3.287   2.265   6.339 -0.2596 -0.5236 -0.3962
  102MOL    C2638608   3.388   2.358   6.292 -0.0763  0.0588 -0.2852
  102MOL    C2738609   3.385   2.401   6.145  0.1369  0.1737  0.3411
  102MOL    H2838610   3.026   2.388   6.689 -1.3572  0.2538  1.5068
  102MOL    H2938611   3.093   2.434   6.846  0.1762  2.2256 -0.1363
  102MOL    H3038612   3.196   2.249   6.737 -1.3303 -0.0145 -0.2184
  102MOL    H3138613   3.248   2.137   6.493 -1.4479  0.4931  2.6853
  102MOL    H3238614   3.399   2.226   6.533 -0.4491  0.6685 -0.6480
  102MOL    H3338615   3.303   2.167   6.294 -1.4505 -0.3831 -1.1629
  102MOL    H3438616   3.187   2.302   6.318  0.7567  0.4660 -3.8362
  102MOL    H3538617   3.380   2.448   6.353  2.4112  0.5046 -0.5970
  102MOL    H3638618   3.483   2.314   6.321  1.0698  1.3259 -2.0008
  102MOL    H3738619   3.399   2.308   6.090 -1.6445 -1.3399  2.3376
  102MOL    H3838620   3.303   2.463   6.109 -0.5952 -0.7250  0.4257
  102MOL    H3938621   3.479   2.455   6.138  0.3873 -0.4377 -1.1879
  102MOL    C4038622   3.362   2.367   6.771 -0.3870 -0.1574 -0.3144
  102MOL    C4138623   3.367   2.348   6.923 -0.4193 -0.4191 -0.4232
  102MOL    O4238624   3.494   2.386   6.972 -0.7781 -0.3522  0.1259
  102MOL    C4338625   3.510   2.528   6.991  0.3473  0.4594 -0.0404
  102MOL    C4438626   3.442   2.608   7.103  0.1376 -0.4309  0.9410
  102MOL    C4538627   3.482   2.567   7.245 -0.7787  0.1991 -0.1357
  102MOL    C4638628   3.431   2.661   7.358  0.1690 -0.5327 -0.1725
  102MOL    H4738629   3.400   2.466   6.745 -1.1167  0.4180  0.7702
  102MOL    H4838630   3.436   2.300   6.727 -0.1739  1.5166 -2.5998
  102MOL    H4938631   3.285   2.395   6.978 -0.6573 -0.9314 -0.3362
  102MOL    H5038632   3.489   2.562   6.889 -0.0728  0.2780 -0.0157
  102MOL    H5138633   3.617   2.540   7.009  0.3689 -0.3343  0.3815
  102MOL    H5238634   3.334   2.589   7.101 -0.2723  1.6082  1.7910
  102MOL    H5338635   3.463   2.711   7.073  0.5010 -1.0289 -0.9484
  102MOL    H5438636   3.591   2.564   7.257 -0.8165  0.3949  0.2401
  102MOL    H5538637   3.459   2.463   7.269 -2.0761  0.7701  1.1716
  102MOL    H5638638   3.325   2.684   7.361  0.3246  0.1827 -0.1718
  102MOL    H5738639   3.471   2.633   7.456  0.2139 -1.1723 -0.3671
  102MOL    H5838640   3.477   2.757   7.335  0.0340 -1.4481 -4.8248
  102MOL    C5938641   3.367   2.201   6.968 -0.0547 -0.2760 -0.0123
  102MOL    C6038642   3.357   2.168   7.119 -0.4018  0.0174  0.5574
  102MOL    O6138643   3.305   2.037   7.138  0.0246 -0.3114 -0.1368
  102MOL    C6238644   3.163   2.039   7.126  0.4357 -0.2229  1.0378
  102MOL    C6338645   3.109   1.898   7.121  0.6427 -0.2450  0.1565
  102MOL    C6438646   2.960   1.896   7.141  0.2337  0.2140  0.5526
  102MOL    C6538647   2.911   1.757   7.186 -0.4048  0.0347 -0.5453
  102MOL    H6638648   3.297   2.137   6.914 -0.9996  1.2542 -0.6262
  102MOL    H6738649   3.454   2.143   6.938 -1.0854 -3.9068  3.6471
  102MOL    H6838650   3.296   2.238   7.175 -0.9821 -1.4646  1.8234
  102MOL    H6938651   3.132   2.098   7.040 -0.1488 -1.5117  0.3554
  102MOL    H7038652   3.119   2.091   7.211 -0.2027  0.1704  0.4614
  102MOL    H7138653   3.137   1.840   7.033  2.2530  2.0953 -0.9529
  102MOL    H7238654   3.167   1.856   7.203 -0.8393  1.8024  2.2905
  102MOL    H7338655   2.931   1.967   7.218 -3.5115  0.8346 -1.2991
  102MOL    H7438656   2.904   1.938   7.058 -0.1099  0.3179  0.8373
  102MOL    H7538657   2.953   1.723   7.280  1.7554  1.1376 -1.0646
  102MOL    H7638658   2.805   1.767   7.206 -0.3673 -0.1251 -0.2655
  102MOL    H7738659   2.923   1.667   7.125  0.8736  0.7063 -1.3260
  102MOL    C7838660   3.496   2.160   7.184 -0.3720 -0.2751 -0.6191
  102MOL    C7938661   3.505   2.161   7.337 -0.3233  0.5696 -0.0359
  102MOL    O8038662   3.634   2.204   7.374  0.7870 -0.2566  0.1933
  102MOL    C8138663   3.648   2.277   7.496  0.1349  0.4985 -0.5291
  102MOL    C8238664   3.794   2.314   7.511 -0.2384  0.5206 -0.1449
  102MOL    C8338665   3.811   2.461   7.452  0.0044 -0.3000 -0.0082
  102MOL    C8438666   3.960   2.512   7.451  0.5241  0.0763  0.2576
  102MOL    H8538667   3.543   2.255   7.158  0.5255 -1.2617 -2.6931
  102MOL    H8638668   3.543   2.072   7.142  0.5909  0.2236 -0.6090
  102MOL    H8738669   3.421   2.226   7.360 -1.4358 -1.3355  1.4446
  102MOL    H8838670   3.612   2.209   7.573  2.8453 -1.3833 -0.8741
  102MOL    H8938671   3.577   2.360   7.488  3.2766  3.1020 -3.5109
  102MOL    H9038672   3.823   2.318   7.616  0.0610 -1.1913 -0.1617
  102MOL    H9138673   3.859   2.241   7.463  0.7729  1.9086 -0.9203
  102MOL    H9238674   3.760   2.529   7.521  2.2022 -0.6496  2.0455
  102MOL    H9338675   3.765   2.460   7.353 -0.4311 -0.7198  0.1964
  102MOL    H9438676   3.970   2.615   7.417  3.0197 -0.9675 -2.4493
  102MOL    H9538677   4.012   2.509   7.547  0.5934  0.3104  0.2274
  102MOL    H9638678   4.007   2.443   7.381 -0.0535  1.2117 -1.2583
  102MOL    C9738679   3.473   2.037   7.412 -0.0943  0.1588  0.0446
  102MOL    C9838680   3.355   2.044   7.513 -0.5381  0.0128  0.4557
  102MOL    O9938681   3.238   2.110   7.466 -0.1303  0.0217  0.5001
  102MOL   C10038682   3.139   2.157   7.565  0.4296  0.3484  0.4236
  102MOL   C10138683   3.025   2.218   7.480 -0.3072 -0.2990 -0.4034
  102MOL   C10238684   3.065   2.349   7.413  0.6650  0.3583  0.5594
  102MOL   C10338685   2.975   2.410   7.305  0.1486 -0.5095  0.0861
  102MOL   H10438686   3.556   2.004   7.475  0.2840  0.3894 -0.3310
  102MOL   H10538687   3.472   1.950   7.346  0.4911 -0.3188  0.6531
  102MOL   H10638688   3.380   2.113   7.594  1.6181  0.0179 -0.1894
  102MOL   H10738689   3.177   2.227   7.639  0.3993  0.1754  0.6021
  102MOL   H10838690   3.095   2.068   7.609 -2.2173  1.3871 -0.0729
  102MOL   H10938691   2.929   2.226   7.531 -0.4628 -0.8763 -0.5970
  102MOL   H11038692   3.002   2.149   7.398  0.2224 -2.1889  1.0066
  102MOL   H11138693   3.165   2.339   7.373 -0.2409 -2.9177 -1.0478
  102MOL   H11238694   3.081   2.428   7.487  0.8695 -0.8310  1.8020
  102MOL   H11338695   2.959   2.333   7.230 -0.7197  2.8553 -3.3581
  102MOL   H11438696   2.875   2.426   7.345 -0.6313 -1.0239 -1.6180
  102MOL   H11538697   3.007   2.510   7.273  0.9409 -1.1385 -1.1163
  102MOL   C11638698   3.312   1.908   7.580  0.5143  0.1162 -0.6131
  102MOL   C11738699   3.320   1.896   7.729 -0.0875 -0.3127 -0.4512
  102MOL   O11838700   3.268   2.020   7.785 -0.3770  0.0050 -0.3267
  102MOL   C11938701   3.321   2.061   0.108 -0.0505  0.6262 -0.5064
  102MOL   C12038702   3.224   2.175   0.148 -0.3604 -1.2827  0.8033
  102MOL   C12138703   3.085   2.127   0.188  0.1007  0.5552  0.2744
  102MOL   C12238704   3.076   2.046   0.315 -0.0744  0.0558 -0.1646
  102MOL   H12338705   3.212   1.883   7.543  1.4450 -2.4410 -1.5470
  102MOL   H12438706   3.379   1.831   7.543 -1.1491 -2.2052  1.0263
  102MOL   H12538707   3.423   1.881   7.761 -0.5690 -0.1274  1.2051
  102MOL   H12638708   3.421   2.100   0.089  0.5352 -0.2890  0.5743
  102MOL   H12738709   3.348   1.973   0.167  1.9247 -0.2402 -2.6469
  102MOL   H12838710   3.212   2.229   0.054 -0.7307 -0.6952  1.1829
  102MOL   H12938711   3.252   2.233   0.236 -1.2020 -2.1620  1.6562
  102MOL   H13038712   3.027   2.218   0.195  1.3331  1.4453 -0.8827
  102MOL   H13138713   3.033   2.067   0.114 -0.2450 -0.9935  1.7360
  102MOL   H13238714   3.154   1.972   0.298 -0.5438  0.0834 -2.7313
  102MOL   H13338715   2.979   1.996   0.314 -0.0467 -0.0157  0.8050
  102MOL   H13438716   3.075   2.090   0.414  1.8921  0.0161 -0.1091
  102MOL   C13538717   3.220   1.793   7.783  0.3853 -0.4205 -0.4345
  102MOL   C13638718   3.274   1.666   0.046 -0.7765 -0.0543 -0.1890
  102MOL   O13738719   3.270   1.701   0.183  0.4287 -0.3230  0.2918
  102MOL   C13838720   3.373   1.650   0.262  0.5339 -0.0277 -0.1005
  102MOL   C13938721   3.316   1.654   0.406 -0.4990 -1.0402  0.8458
  102MOL   C14038722   3.412   1.618   0.513  0.1848  0.0109 -0.3578
  102MOL   C14138723   3.336   1.600   0.640 -0.3501 -0.0635 -0.9369
  102MOL   H14238724   3.144   1.764   7.710 -0.1101 -0.8390  0.2329
  102MOL   H14338725   3.151   1.842   0.050  0.4455 -0.9303 -0.0069
  102MOL   H14438726   3.369   1.627   0.008 -0.5916  0.3897 -0.1874
  102MOL   H14538727   3.465   1.706   0.242 -0.6674  1.5742 -1.2009
  102MOL   H14638728   3.397   1.546   0.239 -0.8685  0.0470 -1.9351
  102MOL   H14738729   3.239   1.577   0.416 -2.3510  0.7951  0.9493
  102MOL   H14838730   3.283   1.756   0.424 -0.6512 -0.3063 -3.1116
  102MOL   H14938731   3.466   1.524   0.498  0.2505  0.1911 -1.2683
  102MOL   H15038732   3.475   1.705   0.528 -1.6541  1.3441 -0.2174
  102MOL   H15138733   3.274   1.687   0.665 -0.6555 -0.0548 -1.6946
  102MOL   H15238734   3.267   1.517   0.625 -0.3531 -0.2696  0.2069
  102MOL   H15338735   3.410   1.576   0.716 -2.0735 -0.4918  0.6300
  102MOL   C15438736   3.168   1.556   0.046  0.5762  0.1245 -0.3685
  102MOL   C15538737   3.192   1.458   7.726 -0.4671 -0.0486  0.3399
  102MOL   O15638738   3.177   1.520   7.602  0.3772 -0.7735 -0.1428
  102MOL   C15738739   3.294   1.514   7.520  0.2699  0.2606 -0.0156
  102MOL   C15838740   3.269   1.564   7.372 -0.6513  0.6382  0.2719
  102MOL   C15938741   3.182   1.464   7.293  0.0902  0.2515 -0.0532
  102MOL   C16038742   3.198   1.490   7.145 -0.5193 -0.2597  0.2343
  102MOL   H16138743   3.071   1.606   0.042 -0.3173 -1.3442  2.2946
  102MOL   H16238744   3.175   1.502   0.140  1.0660  3.1285  1.3810
  102MOL   H16338745   3.293   1.418   7.737 -0.2548 -0.1760 -1.9496
  102MOL   H16438746   3.378   1.572   7.558  0.3548  0.0388  0.1374
  102MOL   H16538747   3.326   1.410   7.511 -1.5204 -0.1143 -2.3934
  102MOL   H16638748   3.369   1.559   7.329 -0.5222 -0.5113  0.6912
  102MOL   H16738749   3.221   1.661   7.388  1.4143  1.5887  0.7820
  102MOL   H16838750   3.192   1.359   7.319 -0.8167  0.0174 -0.5964
  102MOL   H16938751   3.083   1.491   7.330 -0.9511 -1.2245 -1.6288
  102MOL   H17038752   3.222   1.596   7.134  0.1167 -0.4176  0.0379
  102MOL   H17138753   3.289   1.439   7.113 -0.4818 -0.7379  1.0848
  102MOL   H17238754   3.107   1.464   7.091 -1.2765  1.6958  0.5423
  102MOL   C17338755   3.105   1.336   7.743  0.4198  0.5540 -0.1684
  102MOL   C17438756   3.147   1.220   7.654  0.2966 -0.5146 -0.5907
  102MOL   O17538757   3.278   1.173   7.702  0.3088  0.4479  0.6367
  102MOL   C17638758   3.326   1.055   7.643 -0.7514 -0.3726  0.0129
  102MOL   C17738759   3.480   1.031   7.682  0.4610 -0.7594 -0.4982
  102MOL   C17838760   3.510   0.967   0.016  0.5399  0.1995 -0.0104
  102MOL   C17938761   3.658   0.975   0.070  0.3921 -0.0221 -0.0438
  102MOL   H18038762   3.003   1.367   7.720  1.1835  0.9849 -3.0615
  102MOL   H18138763   3.103   1.318   0.049 -0.4686 -0.8933 -0.4148
  102MOL   H18238764   3.150   1.262   7.553 -0.5367  0.7164 -0.1122
  102MOL   H18338765   3.327   1.060   7.534  0.6516 -4.2751 -0.2536
  102MOL   H18438766   3.259   0.972   7.667 -1.3685  0.5357  1.5014
  102MOL   H18538767   3.530   1.127   7.671  0.1756 -0.3944  1.2789
  102MOL   H18638768   3.509   0.972   7.596 -1.2900 -0.2779 -1.4628
  102MOL   H18738769   3.448   1.012   0.093  0.6415  1.8766 -0.8709
  102MOL   H18838770   3.470   0.866   0.010  0.6514  0.2546 -1.9761
  102MOL   H18938771   3.722   0.936   7.792  0.3147 -0.4051  0.0819
  102MOL   H19038772   3.676   1.077   0.106 -0.7969 -0.3872  1.5994
  102MOL   H19138773   3.664   0.913   0.159 -1.1194  0.4807  0.4122
  102MOL   C19238774   3.045   1.099   7.648  0.0309  0.6298 -0.1224
  102MOL   C19338775   2.918   1.143   7.573  0.8421  0.5884 -0.2846
  102MOL   O19438776   2.942   1.093   7.441 -0.0906 -0.6343  0.3226
  102MOL   C19538777   2.902   1.173   7.332 -0.5403  0.0980 -1.3362
  102MOL   C19638778   2.971   1.131   7.201  0.0282 -0.4472  0.8241
  102MOL   C19738779   2.903   1.195   7.089 -0.5387  0.1284  1.6061
  102MOL   C19838780   2.764   1.138   7.065 -0.5706 -0.0833 -0.2533
  102MOL   H19938781   3.031   1.081   7.754  1.4321 -3.6198 -0.5781
  102MOL   H20038782   3.069   1.005   7.599 -0.6123  0.4459 -0.0873
  102MOL   H20138783   2.895   1.250   7.573  1.2514  0.6753  0.5417
  102MOL   H20238784   2.940   1.272   7.357  0.5764 -0.1192 -2.1383
  102MOL   H20338785   2.794   1.162   7.332 -0.4343 -1.0996 -0.6822
  102MOL   H20438786   3.076   1.161   7.206 -0.3442  0.9812  0.2784
  102MOL   H20538787   2.967   1.023   7.192 -1.5095 -0.3024 -0.5830
  102MOL   H20638788   2.968   1.173   7.004 -0.7757 -0.0591  1.4732
  102MOL   H20738789   2.907   1.304   7.092  2.6715  0.0998  0.3908
  102MOL   H20838790   2.683   1.178   7.125 -0.4694  1.1630 -0.9391
  102MOL   H20938791   2.733   1.155   6.961 -0.4778  0.3304 -0.2141
  102MOL   H21038792   2.770   1.030   7.080  2.1177  0.0370 -0.1527
  102MOL   C21138793   2.785   1.086   7.629 -0.1142  0.2896 -0.7101
  102MOL   C21238794   2.727   1.139   7.761 -0.3051 -0.7236  0.3285
  102MOL   O21338795   2.740   1.280   7.771 -0.3982 -0.4394  0.1376
  102MOL   C21438796   2.733   1.338   0.106 -0.4311 -0.2774  0.5500
  102MOL   C21538797   2.770   1.485   0.083 -0.3062 -0.4114  0.3500
  102MOL   C21638798   2.801   1.556   0.211 -0.5039 -0.0739 -0.3517
  102MOL   C21738799   2.802   1.714   0.195  0.5060  0.5648  0.1006
  102MOL   H21838800   2.789   0.977   7.639  3.1887  0.5303  1.2752
  102MOL   H21938801   2.713   1.112   7.551  1.7150 -0.7041 -2.7997
  102MOL   H22038802   2.784   1.102   0.044  0.4509 -1.2582 -0.3980
  102MOL   H22138803   2.642   1.317   0.162  0.0318 -0.6973  1.1420
  102MOL   H22238804   2.808   1.294   0.172  1.9045 -0.0719 -1.8672
  102MOL   H22338805   2.854   1.504   0.016 -0.4983 -0.8164 -0.0118
  102MOL   H22438806   2.687   1.535   0.033 -0.8336 -0.1248  1.4942
  102MOL   H22538807   2.898   1.519   0.243 -0.2793  0.3477 -0.5350
  102MOL   H22638808   2.733   1.534   0.293 -0.7042  0.8988 -0.2486
  102MOL   H22738809   2.876   1.743   0.120  1.4485 -2.0164 -0.0327
  102MOL   H22838810   2.824   1.765   0.289  0.1778  0.4396  0.2445
  102MOL   H22938811   2.709   1.761   0.165 -1.0928 -1.8583  1.1283
  102MOL   C23038812   2.575   1.111   7.781 -0.0726 -0.5412 -0.1180
  102MOL   C23138813   2.545   0.959   7.776  0.4104  0.6230  0.0092
  102MOL   O23238814   2.629   0.882   0.061  0.5890  0.1332 -0.5290
  102MOL   C23338815   2.592   0.892   0.196 -0.4582  0.0973  0.2066
  102MOL   C23438816   2.701   0.830   0.286  0.0438 -0.6992 -0.4491
  102MOL   C23538817   2.828   0.918   0.294 -0.1668  0.2232 -0.7771
  102MOL   C23638818   2.938   0.860   0.384  0.0613  0.1797 -0.2269
  102MOL   H23738819   2.523   1.166   7.703 -0.6303 -1.1342 -0.1726
  102MOL   H23838820   2.537   1.147   0.075 -0.4592  0.8983 -0.8074
  102MOL   H23938821   2.576   0.935   7.674  0.6458 -0.3040  0.2877
  102MOL   H24038822   2.563   0.993   0.224 -1.3436 -0.0941 -0.0058
  102MOL   H24138823   2.503   0.832   0.213  0.0743 -0.0945  2.4283
  102MOL   H24238824   2.665   0.827   0.389  1.8058  0.6333  0.2310
  102MOL   H24338825   2.725   0.728   0.257 -3.8033 -0.4944 -4.8393
  102MOL   H24438826   2.799   1.018   0.328  2.5445  0.1121  2.0686
  102MOL   H24538827   2.864   0.936   0.192  0.6474 -2.8036 -1.0523
  102MOL   H24638828   2.890   0.844   0.481 -0.4184  0.4027 -0.4266
  102MOL   H24738829   3.013   0.935   0.409 -0.2136  0.4423 -0.1850
  102MOL   H24838830   2.982   0.766   0.349  1.3744  0.7137 -0.0520
  102MOL   C24938831   2.397   0.922   7.784 -0.8335 -0.5490  1.5597
  102MOL   C25038832   2.297   0.987   7.684 -0.1704 -0.2553  0.0762
  102MOL   O25138833   2.163   0.951   7.706  0.1095 -0.2968 -0.0049
  102MOL   C25238834   2.106   1.037   7.800 -1.1351 -0.5705  0.0275
  102MOL   C25338835   2.038   1.165   7.756 -0.7776  0.7189  0.7052
  102MOL   C25438836   1.936   1.138   7.637  0.2747 -0.5440  0.4052
  102MOL   C25538837   1.864   1.260   7.571 -0.2089 -0.0855  0.3066
  102MOL   H25638838   2.363   0.954   0.082 -0.9131  3.3779  0.3744
  102MOL   H25738839   2.389   0.814   7.772 -0.1761 -0.6073  1.6394
  102MOL   H25838840   2.309   1.095   7.686 -1.8904 -0.0148 -1.0026
  102MOL   H25938841   2.180   1.061   0.075  0.1939  2.4365 -2.1102
  102MOL   H26038842   2.028   0.978   0.047 -0.6609 -3.1562 -2.2252
  102MOL   H26138843   1.973   1.194   0.036 -2.0054  1.2116 -0.4206
  102MOL   H26238844   2.114   1.241   7.735 -0.3931  0.3246  0.6481
  102MOL   H26338845   1.997   1.090   7.561  0.8089 -0.9905  1.1065
  102MOL   H26438846   1.870   1.055   7.662  1.0474 -0.7009  1.9703
  102MOL   H26538847   1.929   1.341   7.538  0.5088  0.0724  2.0523
  102MOL   H26638848   1.785   1.306   7.630  1.4440  1.4783  1.3759
  102MOL   H26738849   1.819   1.228   7.477  1.4758 -0.3406 -0.4424
  102MOL   C26838850   2.327   0.946   7.533 -0.3556 -0.4931 -0.0323
  102MOL   C26938851   2.354   1.061   7.434  0.2420 -0.9821 -0.8225
  102MOL   O27038852   2.344   1.013   7.307 -0.4376 -0.6638 -0.8249
  102MOL   C27138853   2.461   0.945   7.265 -0.0237 -0.2130 -0.7121
  102MOL   C27238854   2.434   0.893   7.123  0.8749  0.1497 -0.0542
  102MOL   C27338855   2.352   0.984   7.035 -0.1443 -0.3600  0.6695
  102MOL   C27438856   2.416   1.122   7.007 -0.0066  0.0207  0.2375
  102MOL   H27538857   2.419   0.887   7.532 -1.2281 -1.8544 -1.3242
  102MOL   H27638858   2.237   0.895   7.497 -0.4861  1.4702 -2.5520
  102MOL   H27738859   2.449   1.109   7.458 -1.6268  0.9805  3.2808
  102MOL   H27838860   2.544   1.015   7.270  0.8649 -1.3987  1.4417
  102MOL   H27938861   2.479   0.860   7.330 -2.4714  0.4943  0.9582
  102MOL   H28038862   2.532   0.871   7.080  0.1119  2.4008 -3.0761
  102MOL   H28138863   2.387   0.799   7.152 -0.0191  1.1799  1.9332
  102MOL   H28238864   2.251   0.989   7.075  0.5043 -0.8503  2.4210
  102MOL   H28338865   2.319   0.949   6.938  1.3992  2.5669 -0.9938
  102MOL   H28438866   2.486   1.101   6.925 -0.0583 -0.9086  0.4196
  102MOL   H28538867   2.464   1.171   7.092  1.2877 -2.7239  1.1849
  102MOL   H28638868   2.336   1.177   6.958  0.0876 -0.3086 -0.3000
  102MOL   C28738869   2.248   1.170   7.432  1.2484 -0.2680 -0.7795
  102MOL   C28838870   2.305   1.296   7.353  0.5900 -0.0359 -0.4947
  102MOL   O28938871   2.399   1.361   7.431  0.6743  0.1949 -0.0190
  102MOL   C29038872   2.514   1.418   7.363  0.4172  0.8753  0.7918
  102MOL   C29138873   2.620   1.456   7.470 -0.7567  0.5703 -0.2802
  102MOL   C29238874   2.748   1.530   7.421  0.6054 -0.7627 -0.0956
  102MOL   C29338875   2.831   1.591   7.530 -0.3523 -0.1462 -0.0344
  102MOL   H29438876   2.231   1.200   7.535  1.2480 -0.4872 -0.7171
  102MOL   H29538877   2.151   1.158   7.383 -0.1969  0.4561  1.8363
  102MOL   H29638878   2.348   1.254   7.263  2.9642  0.9878  0.1191
  102MOL   H29738879   2.552   1.353   7.283 -3.7327 -0.6626 -0.0572
  102MOL   H29838880   2.484   1.512   7.317  1.2316  0.9686  0.4368
  102MOL   H29938881   2.659   1.380   7.537  0.2011 -0.4780 -1.9767
  102MOL   H30038882   2.574   1.528   7.538 -1.2874  0.0460 -0.0818
  102MOL   H30138883   2.712   1.610   7.356 -1.5195  0.4201  2.4606
  102MOL   H30238884   2.804   1.464   7.355 -1.3559 -0.6587 -1.9248
  102MOL   H30338885   2.911   1.663   7.511  0.0931 -0.3608  1.0081
  102MOL   H30438886   2.764   1.631   7.605 -0.1755  1.6631 -0.8058
  102MOL   H30538887   2.879   1.509   7.583 -0.7809 -1.8023 -2.1498
  102MOL   C30638888   2.193   1.392   7.314 -0.0217  0.0575  0.0712
  102MOL   C30738889   2.122   1.366   7.182  0.5485  0.0649 -0.8919
  102MOL   O30838890   2.084   1.493   7.125  0.3971  0.4374  0.4104
  102MOL   C30938891   2.187   1.565   7.044 -0.3720 -0.3140 -0.1741
  102MOL   C31038892   2.131   1.708   7.020 -0.2801  0.2997  0.3466
  102MOL   C31138893   2.133   1.784   7.146  0.4618  0.0599 -0.1767
  102MOL   C31238894   2.072   1.924   7.138 -0.7061 -0.6158 -0.1937
  102MOL   H31338895   2.125   1.408   7.398  2.4284  0.2622  2.0852
  102MOL   H31438896   2.246   1.486   7.296  0.1157 -0.1275 -0.4884
  102MOL   H31538897   2.187   1.321   7.107 -2.2949 -3.7002 -1.2565
  102MOL   H31638898   2.196   1.515   6.948  2.9290 -2.0263  0.9370
  102MOL   H31738899   2.283   1.559   7.097 -1.6522 -1.3658  2.1143
  102MOL   H31838900   2.037   1.702   6.966  0.9208 -0.9735 -1.6775
  102MOL   H31938901   2.206   1.751   6.953 -2.1018  0.3137 -1.7580
  102MOL   H32038902   2.056   1.735   7.206  1.0864  1.8167  2.1284
  102MOL   H32138903   2.223   1.780   7.207 -0.6861  0.7989  1.6089
  102MOL   H32238904   1.969   1.921   7.101 -0.6312  0.5616 -0.5459
  102MOL   H32338905   2.129   1.995   7.078 -1.5196  1.0765  1.0003
  102MOL   H32438906   2.064   1.972   7.235  0.6049  1.7565 -1.2223
  102MOL   C32538907   1.979   1.302   7.195 -0.0825 -0.1818  0.0704
  102MOL   C32638908   1.895   1.307   7.061  0.5806 -0.1397  0.1615
  102MOL   O32738909   1.970   1.246   6.961  0.3983 -0.2173  0.0665
  102MOL   C32838910   1.946   1.291   6.827 -0.0113 -0.0365 -0.4906
  102MOL   C32938911   2.059   1.242   6.731  0.3947 -0.0827  0.3056
  102MOL   C33038912   2.052   1.090   6.724 -0.2760  0.1935 -0.3090
  102MOL   C33138913   2.164   1.020   6.641 -0.0364  0.3282  0.4012
  102MOL   H33238914   1.915   1.350   7.270  0.6425  2.2604 -0.8513
  102MOL   H33338915   1.997   1.200   7.231 -0.9390 -0.1483  0.6378
  102MOL   H33438916   1.866   1.411   7.046 -2.6976 -0.6686  2.3095
  102MOL   H33538917   1.957   1.399   6.835 -0.5673 -0.0799  1.2248
  102MOL   H33638918   1.843   1.275   6.795 -1.6843  0.1324  4.3132
  102MOL   H33738919   2.045   1.283   6.631  0.3120 -0.7777  0.0327
  102MOL   H33838920   2.162   1.265   6.759  0.1071  0.2475  1.0967
  102MOL   H33938921   1.952   1.052   6.699  0.0713 -0.6187 -0.4897
  102MOL   H34038922   2.060   1.042   6.821 -3.2448  1.6054  0.6931
  102MOL   H34138923   2.168   0.912   6.652  2.4496  0.4641  1.1008
  102MOL   H34238924   2.265   1.050   6.668  0.0907  0.6177 -0.3711
  102MOL   H34338925   2.145   1.037   6.535  2.2566 -3.0777 -0.6276
  102MOL   C34438926   1.769   1.220   7.078  0.1562  0.2699 -0.0126
  102MOL   C34538927   1.674   1.254   7.193  0.0441 -0.6779  0.1572
  102MOL   O34638928   1.555   1.174   7.179  0.2406 -0.0113 -0.2644
  102MOL   C34738929   1.569   1.048   7.244  0.0455  0.8001  0.3567
  102MOL   C34838930   1.435   0.973   7.219  0.6229 -0.2704  0.0474
  102MOL   C34938931   1.429   0.825   7.267  0.0269  0.8721 -0.0701
  102MOL   C35038932   1.284   0.781   7.265  0.2453  0.3932 -0.4102
  102MOL   H35138933   1.704   1.217   6.991  0.0328 -1.6839  0.1273
  102MOL   H35238934   1.803   1.117   7.083  0.2592  0.0918 -3.2412
  102MOL   H35338935   1.712   1.242   7.294 -0.5856  0.7540  0.5785
  102MOL   H35438936   1.578   1.069   7.351 -0.2275  0.4083  0.4580
  102MOL   H35538937   1.661   0.994   7.222  1.5438  3.2831  0.3327
  102MOL   H35638938   1.425   0.973   7.110  1.6771  1.7590 -0.0718
  102MOL   H35738939   1.355   1.023   7.274  0.2935 -2.4743  1.6054
  102MOL   H35838940   1.497   0.762   7.210 -1.4593 -1.2312  0.4126
  102MOL   H35938941   1.466   0.822   7.369 -0.4809  2.1987  0.1699
  102MOL   H36038942   1.281   0.674   7.288 -0.1678  0.8463  1.6583
  102MOL   H36138943   1.230   0.787   7.170 -1.0899 -1.8472  0.1678
  102MOL   H36238944   1.221   0.830   7.339 -1.6321 -1.4859 -0.6932
  102MOL   C36338945   1.628   1.404   7.182 -0.0503  0.5446 -0.3774
  102MOL   C36438946   1.534   1.441   7.298  0.4012 -0.3240 -0.1026
  102MOL   O36538947   1.497   1.574   7.286 -0.3333  0.3732  0.2942
  102MOL   C36638948   1.404   1.610   7.385 -0.6415 -0.2341  0.0232
  102MOL   C36738949   1.386   1.758   7.378  0.0760  0.0809  0.4264
  102MOL   C36838950   1.345   1.811   7.242  0.2997  0.2166 -0.6042
  102MOL   C36938951   1.185   1.814   7.220 -0.2111 -0.4702  0.2866
  102MOL   H37038952   1.561   1.411   7.097 -1.4635 -0.1602  0.6531
  102MOL   H37138953   1.717   1.467   7.180  0.2360  0.1549 -0.1172
  102MOL   H37238954   1.578   1.420   7.395  1.7630  0.0169 -0.6430
  102MOL   H37338955   1.423   1.561   7.480 -1.6868 -1.3563 -0.3347
  102MOL   H37438956   1.302   1.574   7.373 -0.6467 -0.1053 -0.3268
  102MOL   H37538957   1.479   1.807   7.408  0.0210  2.4366 -2.8934
  102MOL   H37638958   1.309   1.778   7.452  0.1332  1.0904  0.2114
  102MOL   H37738959   1.385   1.761   7.154  0.7536 -0.6756  0.1027
  102MOL   H37838960   1.377   1.914   7.234  0.1811  0.3643  0.7356
  102MOL   H37938961   1.134   1.886   7.283 -0.8014  0.4471 -1.2462
  102MOL   H38038962   1.168   1.846   7.118 -3.0120  0.2844  0.9617
  102MOL   H38138963   1.138   1.715   7.227  0.2676 -0.7301 -0.0986
  102MOL   H38238964   1.442   1.384   7.280 -0.0983  0.2593  0.5607
  103MOL     C138965   3.053   2.639   1.114 -0.1216  0.3192 -0.1845
  103MOL     C238966   3.068   2.511   1.038  0.0418 -0.2486 -0.2342
  103MOL     O338967   3.211   2.471   1.054  0.1867 -0.4702 -0.0918
  103MOL     C438968   3.278   2.449   0.928  0.3065 -0.0160  0.4556
  103MOL     C538969   3.419   2.414   0.978  0.0725  0.9358 -0.5875
  103MOL     C638970   3.428   2.272   1.052 -0.2061 -0.5889  1.2184
  103MOL     C738971   3.569   2.252   1.110 -0.8456  0.1656 -0.1904
  103MOL     H838972   2.965   2.695   1.080 -1.3742 -0.8323  1.0859
  103MOL     H938973   3.036   2.630   1.221  0.6827  3.7733  0.2985
  103MOL    H1038974   3.047   2.526   0.932  1.5045  1.9803 -0.2518
  103MOL    H1138975   3.236   2.361   0.879  1.2539 -0.9485  1.2828
  103MOL    H1238976   3.262   2.537   0.867 -2.2186  0.0039  1.1080
  103MOL    H1338977   3.452   2.494   1.045  0.3922 -0.9010  1.4976
  103MOL    H1438978   3.496   2.428   0.902  1.2367  0.3536  0.4510
  103MOL    H1538979   3.412   2.191   0.981 -1.6529  1.2502 -0.6525
  103MOL    H1638980   3.350   2.264   1.128 -1.0832 -0.4180  0.3417
  103MOL    H1738981   3.585   2.159   1.165  2.6657  0.5165 -0.5149
  103MOL    H1838982   3.583   2.335   1.178  2.1382  1.0835 -1.8759
  103MOL    H1938983   3.637   2.248   1.025 -3.1562  2.5522 -2.2226
  103MOL    H2038984   3.143   2.693   1.084  0.8219 -2.5446 -2.6529
  103MOL    C2138985   2.967   2.404   1.096 -0.5132 -0.4341  0.9346
  103MOL    C2238986   2.819   2.445   1.092 -0.1766 -0.1156  0.0871
  103MOL    O2338987   2.801   2.514   0.966 -0.2388  0.5497 -0.0563
  103MOL    C2438988   2.685   2.598   0.966 -0.9614  0.1109  0.2180
  103MOL    C2538989   2.658   2.641   0.824  0.6630 -0.6050 -0.5171
  103MOL    C2638990   2.546   2.739   0.795 -0.6742  0.8001 -0.0314
  103MOL    C2738991   2.522   2.742   0.643 -0.4656 -0.2952  0.0722
  103MOL    H2838992   2.995   2.362   1.192 -0.8098 -0.6429  0.9316
  103MOL    H2938993   2.983   2.330   1.018  1.4611  0.3178  0.6145
  103MOL    H3038994   2.806   2.519   1.170  0.0152  0.4937 -0.4538
  103MOL    H3138995   2.703   2.690   1.022 -2.9353 -0.1381  1.2978
  103MOL    H3238996   2.601   2.552   1.018  0.3798 -1.8458  0.7040
  103MOL    H3338997   2.753   2.677   0.787  0.6183  0.6273  0.5604
  103MOL    H3438998   2.634   2.550   0.767  1.0367 -1.3766  0.5367
  103MOL    H3538999   2.451   2.716   0.842 -0.7751  4.3843  1.7482
  103MOL    H3639000   2.583   2.830   0.844  1.7585 -0.8951  1.3789
  103MOL    H3739001   2.518   2.645   0.593  1.7765  0.8404 -2.3939
  103MOL    H3839002   2.425   2.789   0.625  0.2278  0.5690 -1.4958
  103MOL    H3939003   2.596   2.804   0.592 -2.4614  2.0946  0.0075
  103MOL    C4039004   2.716   2.330   1.092 -1.0168 -0.2994  0.1481
  103MOL    C4139005   2.687   2.282   1.230  0.4490  0.1827 -0.5619
  103MOL    O4239006   2.616   2.157   1.221 -0.2571 -0.6227 -0.3351
  103MOL    C4339007   2.694   2.043   1.209 -0.0658  0.8719  1.1462
  103MOL    C4439008   2.602   1.919   1.213 -0.5861 -0.7054 -0.1736
  103MOL    C4539009   2.528   1.905   1.085 -0.3980  0.0146  0.0610
  103MOL    C4639010   2.413   1.811   1.094 -0.6178  0.4623 -0.2780
  103MOL    H4739011   2.757   2.252   1.028  3.1862  2.1394 -0.3001
  103MOL    H4839012   2.616   2.355   1.055 -1.5940 -1.4654  0.8760
  103MOL    H4939013   2.782   2.264   1.281  0.4124 -0.2985 -0.6605
  103MOL    H5039014   2.760   2.041   1.296 -2.9943  0.0449  3.4376
  103MOL    H5139015   2.752   2.049   1.117 -1.5996 -0.6191  0.0587
  103MOL    H5239016   2.536   1.927   1.300  1.7903 -1.1563  1.7377
  103MOL    H5339017   2.650   1.824   1.239 -2.0726 -1.1316  1.0606
  103MOL    H5439018   2.589   1.876   1.000 -0.9456 -1.0150  0.0156
  103MOL    H5539019   2.482   2.003   1.072  1.0194  0.3776 -2.4782
  103MOL    H5639020   2.343   1.827   1.176  0.4303  0.7408  0.5806
  103MOL    H5739021   2.349   1.820   1.006 -3.2955  0.7442  1.6245
  103MOL    H5839022   2.440   1.705   1.093  0.0998  0.6353  0.4764
  103MOL    C5939023   2.600   2.374   1.307 -0.2060  0.6920 -0.2380
  103MOL    C6039024   2.563   2.325   1.453 -1.6032 -0.1024  1.1095
  103MOL    O6139025   2.679   2.344   1.534 -0.3285 -0.0448 -0.7076
  103MOL    C6239026   2.684   2.261   1.644 -0.0658 -0.0019  0.3409
  103MOL    C6339027   2.809   2.293   1.728 -0.4249  0.2817 -0.3806
  103MOL    C6439028   2.842   2.206   1.851  0.4786 -0.1906 -0.1029
  103MOL    C6539029   2.914   2.289   1.954 -0.2780  0.1661 -0.3988
  103MOL    H6639030   2.642   2.471   1.331 -1.4640  1.4585 -1.1101
  103MOL    H6739031   2.513   2.396   1.246 -0.6547 -0.0607  0.1193
  103MOL    H6839032   2.558   2.217   1.442  0.9820  0.0134 -1.9542
  103MOL    H6939033   2.707   2.161   1.607  2.3134  0.1214  1.3986
  103MOL    H7039034   2.592   2.262   1.703 -0.7766 -1.1263 -0.7136
  103MOL    H7139035   2.905   2.315   1.680  0.8142 -1.6833  1.1215
  103MOL    H7239036   2.785   2.395   1.758  2.8082  1.5290 -1.7829
  103MOL    H7339037   2.753   2.164   1.898  0.7065  1.7613  2.1354
  103MOL    H7439038   2.918   2.131   1.828  1.0433  0.6056 -0.8779
  103MOL    H7539039   2.883   2.393   1.968  2.7698  1.2648 -1.3199
  103MOL    H7639040   2.926   2.235   2.048  1.6704 -1.5996 -1.6373
  103MOL    H7739041   3.019   2.291   1.924 -0.0577 -0.6819  0.2753
  103MOL    C7839042   2.434   2.381   1.504  0.0060 -0.5500 -0.1746
  103MOL    C7939043   2.310   2.333   1.437 -0.4202  0.3005 -0.4614
  103MOL    O8039044   2.202   2.403   1.501 -0.0141  0.0616  0.0949
  103MOL    C8139045   2.161   2.520   1.432 -0.6410  0.3909  1.0957
  103MOL    C8239046   2.047   2.591   1.508 -0.0811 -0.1090 -0.0415
  103MOL    C8339047   1.902   2.557   1.477  0.2981 -0.2458  1.1040
  103MOL    C8439048   1.799   2.589   1.585 -0.8149 -0.0002 -0.3573
  103MOL    H8539049   2.446   2.488   1.489  2.5182 -1.0968 -2.5433
  103MOL    H8639050   2.438   2.364   1.612  1.7949  0.7810 -0.0023
  103MOL    H8739051   2.302   2.351   1.330 -1.2572  1.0673 -0.2720
  103MOL    H8839052   2.122   2.509   1.331 -1.2321 -0.5919  1.4176
  103MOL    H8939053   2.246   2.588   1.430  0.3123 -0.8047 -0.6188
  103MOL    H9039054   2.071   2.592   1.615  0.9105  0.2060 -0.2624
  103MOL    H9139055   2.052   2.694   1.473  1.2301  0.4453  1.7316
  103MOL    H9239056   1.912   2.451   1.453 -0.0783  0.3052 -1.7273
  103MOL    H9339057   1.876   2.611   1.385  0.5371  0.8262  1.6576
  103MOL    H9439058   1.704   2.548   1.550 -0.5620 -1.5282  0.7065
  103MOL    H9539059   1.826   2.542   1.679 -0.2939  0.9971  0.0074
  103MOL    H9639060   1.783   2.697   1.597 -1.7513 -0.3484  1.8000
  103MOL    C9739061   2.278   2.181   1.453 -0.4554  0.1317  0.0938
  103MOL    C9839062   2.175   2.129   1.350  0.3450  0.4779  0.4304
  103MOL    O9939063   2.247   2.130   1.229 -0.1396  0.3835 -0.0078
  103MOL   C10039064   2.163   2.179   1.119 -0.4139 -0.0948 -0.3553
  103MOL   C10139065   2.242   2.160   0.993 -0.2220 -0.6274 -0.3200
  103MOL   C10239066   2.384   2.235   0.994  0.1795  0.0489 -0.5937
  103MOL   C10339067   2.460   2.198   0.868  0.0944  0.0408  0.0495
  103MOL   H10439068   2.245   2.159   1.554 -0.4150  0.0032  0.0795
  103MOL   H10539069   2.369   2.121   1.458 -0.0976  0.7745  1.3543
  103MOL   H10639070   2.084   2.189   1.348  0.1583  0.1680 -0.6120
  103MOL   H10739071   2.127   2.282   1.120  1.8670  0.7683 -2.0189
  103MOL   H10839072   2.075   2.116   1.115  0.0007 -0.7486  0.6735
  103MOL   H10939073   2.181   2.201   0.913  1.4686  0.7476 -0.9286
  103MOL   H11039074   2.275   2.060   0.965  1.8887  0.4183 -1.7002
  103MOL   H11139075   2.438   2.228   1.089  0.7077  1.9653 -0.7229
  103MOL   H11239076   2.366   2.342   0.982 -1.1875 -0.1955 -0.8118
  103MOL   H11339077   2.511   2.102   0.872  1.8072  0.8111 -2.1782
  103MOL   H11439078   2.402   2.198   0.776 -0.9596  0.3660  0.7058
  103MOL   H11539079   2.533   2.276   0.845 -1.5051  1.5024 -0.1969
  103MOL   C11639080   2.132   1.978   1.376  0.1093  0.0291  0.1222
  103MOL   C11739081   2.031   1.952   1.496 -0.5634  0.7605  0.2680
  103MOL   O11839082   1.922   2.041   1.498 -0.1287  0.1666  0.0645
  103MOL   C11939083   1.930   2.147   1.594 -0.3595  0.4727  0.0237
  103MOL   C12039084   1.809   2.229   1.603 -0.2196 -0.0043 -0.1653
  103MOL   C12139085   1.690   2.153   1.659 -0.6068 -0.7618 -0.0570
  103MOL   C12239086   1.565   2.254   1.658 -0.2426 -0.6202 -0.4677
  103MOL   H12339087   2.078   1.949   1.285 -1.4762  3.0132  0.0440
  103MOL   H12439088   2.214   1.909   1.391  0.3550  0.2415 -0.2367
  103MOL   H12539089   2.089   1.985   1.583  1.5320  1.4014 -1.3202
  103MOL   H12639090   2.009   2.216   1.564  1.1074 -1.3603 -0.3783
  103MOL   H12739091   1.945   2.105   1.694 -1.8315  0.6469  0.3316
  103MOL   H12839092   1.777   2.258   1.503  0.2410 -0.2392 -0.3825
  103MOL   H12939093   1.833   2.317   1.664 -0.9334  0.3289 -0.3630
  103MOL   H13039094   1.672   2.064   1.600 -3.9541  0.6754 -1.3516
  103MOL   H13139095   1.712   2.137   1.765  1.5260 -0.6342 -0.4657
  103MOL   H13239096   1.563   2.306   1.563  1.1478  0.9757  0.3622
  103MOL   H13339097   1.583   2.340   1.723  0.8426 -1.6201  0.5911
  103MOL   H13439098   1.465   2.212   1.674 -1.6420  3.3852  2.1209
  103MOL   C13539099   2.002   1.805   1.513 -0.3981  0.1833  0.3600
  103MOL   C13639100   1.929   1.776   1.647  0.7456 -0.0719  0.1968
  103MOL   O13739101   1.900   1.639   1.645  0.1515  0.3516 -0.7473
  103MOL   C13839102   1.770   1.613   1.587  0.2057  0.1519  0.6450
  103MOL   C13939103   1.752   1.467   1.576 -0.1850 -0.7553 -0.1798
  103MOL   C14039104   1.828   1.393   1.462 -0.4362 -0.0815 -0.0319
  103MOL   C14139105   1.791   1.243   1.456 -0.3095  0.4220  0.0754
  103MOL   H14239106   2.092   1.744   1.522 -0.6873 -0.1153  1.2896
  103MOL   H14339107   1.940   1.764   1.434 -0.1953 -1.5094  1.0560
  103MOL   H14439108   1.844   1.843   1.649  1.7109  1.1513  1.1676
  103MOL   H14539109   1.756   1.667   1.493 -4.5019 -1.1685  0.4795
  103MOL   H14639110   1.698   1.651   1.660  0.2251  0.1999  0.6393
  103MOL   H14739111   1.646   1.461   1.551 -0.2778  1.2810 -0.3927
  103MOL   H14839112   1.757   1.428   1.677  0.3589 -0.2415 -0.0040
  103MOL   H14939113   1.811   1.428   1.360 -3.3225 -3.0442 -0.6424
  103MOL   H15039114   1.928   1.417   1.499 -1.5539  1.6227  1.9781
  103MOL   H15139115   1.833   1.197   1.367 -0.8867 -0.6389  0.3448
  103MOL   H15239116   1.839   1.197   1.542 -1.5370  1.0171  1.1044
  103MOL   H15339117   1.684   1.218   1.458 -0.0697 -0.9982 -2.7245
  103MOL   C15439118   2.007   1.810   1.775 -0.3123  0.9363  0.4881
  103MOL   C15539119   1.920   1.804   1.899  0.4660 -0.7144  0.2718
  103MOL   O15639120   1.996   1.871   2.008 -0.2216  0.1475 -0.4058
  103MOL   C15739121   1.937   1.989   2.064  0.2587  0.3025  0.5216
  103MOL   C15839122   2.013   2.037   2.189  0.5787 -0.2117 -0.4853
  103MOL   C15939123   1.988   1.952   2.318 -0.1966  0.0140 -0.1918
  103MOL   C16039124   2.093   1.840   2.326  0.4491 -0.0770 -0.0917
  103MOL   H16139125   2.062   1.904   1.777  0.9316  0.3346 -2.7217
  103MOL   H16239126   2.087   1.736   1.785  1.0229  2.1709 -0.8102
  103MOL   H16339127   1.831   1.856   1.863  1.3776  0.1639 -0.7525
  103MOL   H16439128   1.947   2.059   1.980  0.0274  0.9738  1.0548
  103MOL   H16539129   1.834   1.975   2.095  0.4554 -0.7238  0.6992
  103MOL   H16639130   1.979   2.135   2.223 -0.5491 -1.1600  1.1937
  103MOL   H16739131   2.120   2.037   2.170  0.8602 -0.5933  1.0802
  103MOL   H16839132   1.999   2.020   2.402 -0.3514 -0.3748  0.1439
  103MOL   H16939133   1.885   1.915   2.319  0.0194 -0.5690  0.3169
  103MOL   H17039134   2.191   1.886   2.313 -0.3713  2.3020  1.8363
  103MOL   H17139135   2.093   1.795   2.425 -1.4482 -0.6486 -0.3279
  103MOL   H17239136   2.078   1.757   2.256  0.3278  0.9086 -1.2515
  103MOL   C17339137   1.890   1.665   1.950 -0.0544  0.1353  0.4670
  103MOL   C17439138   1.784   1.655   2.063  0.2390  0.1333 -0.3054
  103MOL   O17539139   1.669   1.725   2.019 -0.2081  0.4488  0.0502
  103MOL   C17639140   1.593   1.771   2.125  0.2017  0.5578  0.1948
  103MOL   C17739141   1.505   1.894   2.079 -0.2239  1.1346 -0.6594
  103MOL   C17839142   1.569   2.034   2.085  0.2963  0.0412  0.3337
  103MOL   C17939143   1.467   2.139   2.069  0.2701  0.5096 -0.0066
  103MOL   H18039144   1.984   1.622   1.982  0.3438 -0.3149 -1.2919
  103MOL   H18139145   1.846   1.608   1.869  0.1869  1.4166 -0.5745
  103MOL   H18239146   1.837   1.699   2.147 -0.5618 -1.0454  0.8288
  103MOL   H18339147   1.641   1.779   2.223  1.9861 -3.6278 -0.2515
  103MOL   H18439148   1.511   1.701   2.137  0.4627  0.3515  0.8276
  103MOL   H18539149   1.419   1.894   2.145  0.5626  0.4328  0.3753
  103MOL   H18639150   1.469   1.890   1.976  0.2357 -1.8763 -0.7387
  103MOL   H18739151   1.615   2.055   2.182 -0.9803  1.3870  0.6540
  103MOL   H18839152   1.650   2.059   2.017  0.4211  1.8280  1.1195
  103MOL   H18939153   1.370   2.117   2.114  0.1493  1.0844  0.0219
  103MOL   H19039154   1.505   2.240   2.088 -1.0996  0.9157  0.6665
  103MOL   H19139155   1.437   2.143   1.964 -1.0782  0.6345  0.3777
  103MOL   C19239156   1.759   1.507   2.097 -0.4776  0.4448 -0.6234
  103MOL   C19339157   1.892   1.423   2.126 -0.2555 -0.2150  0.3064
  103MOL   O19439158   1.934   1.451   2.255  0.2770 -0.4459  0.1500
  103MOL   C19539159   2.074   1.445   2.286 -0.0778 -0.2114 -0.4986
  103MOL   C19639160   2.085   1.454   2.440 -0.1526  0.3439  0.0212
  103MOL   C19739161   2.225   1.430   2.505 -0.2374 -0.0051  0.8145
  103MOL   C19839162   2.335   1.521   2.455 -0.0438 -0.2052  0.2309
  103MOL   H19939163   1.709   1.467   2.009 -2.3137  1.7005 -0.1711
  103MOL   H20039164   1.690   1.493   2.180  0.0309  0.0596 -0.2590
  103MOL   H20139165   1.973   1.436   2.055  0.2849 -3.0934  0.3609
  103MOL   H20239166   2.123   1.526   2.231 -0.6094  0.3658 -0.1218
  103MOL   H20339167   2.127   1.355   2.256  0.1284 -0.7477  1.3724
  103MOL   H20439168   2.060   1.559   2.460 -1.0752  0.6411 -2.5407
  103MOL   H20539169   2.016   1.384   2.488 -0.3093  0.7745  0.4338
  103MOL   H20639170   2.243   1.327   2.473 -1.0036 -0.3887  1.5880
  103MOL   H20739171   2.227   1.426   2.614  2.6168 -0.5967  0.7819
  103MOL   H20839172   2.430   1.505   2.506  0.8997  0.6022 -1.2193
  103MOL   H20939173   2.349   1.522   2.347  2.6968 -0.2557  0.5427
  103MOL   H21039174   2.308   1.620   2.490 -0.3423  0.0612 -0.7491
  103MOL   C21139175   1.866   1.269   2.125  0.6639  0.5044  0.2874
  103MOL   C21239176   1.888   1.195   1.991 -0.2399 -0.2106 -0.5620
  103MOL   O21339177   2.023   1.218   1.947 -0.3221 -0.0102  0.4382
  103MOL   C21439178   2.043   1.293   1.819  1.1230  0.5301 -0.8877
  103MOL   C21539179   2.171   1.381   1.833  0.6253  0.7591  0.4928
  103MOL   C21639180   2.229   1.439   1.699  0.1274  0.0542 -0.2286
  103MOL   C21739181   2.342   1.534   1.705 -0.1156  0.8262 -0.4067
  103MOL   H21839182   1.761   1.259   2.154  0.7832  0.3460  0.6690
  103MOL   H21939183   1.921   1.227   2.209  2.8559  2.3577 -0.1583
  103MOL   H22039184   1.817   1.238   1.920 -2.0658 -0.3337  1.1283
  103MOL   H22139185   2.056   1.214   1.745  2.0592  0.5177 -0.7227
  103MOL   H22239186   1.955   1.352   1.797  0.9391  0.1700 -1.1135
  103MOL   H22339187   2.138   1.469   1.889 -0.8591  0.2757  0.3936
  103MOL   H22439188   2.250   1.322   1.880  1.0256 -0.3587 -1.5403
  103MOL   H22539189   2.146   1.485   1.644  0.7302  2.5055  0.8384
  103MOL   H22639190   2.256   1.354   1.637 -1.1516  0.0701 -0.8234
  103MOL   H22739191   2.320   1.638   1.731  0.9524  0.8747  0.3607
  103MOL   H22839192   2.394   1.543   1.609 -2.6044  0.2919 -1.8302
  103MOL   H22939193   2.408   1.508   1.788 -1.2828  0.0554  0.2859
  103MOL   C23039194   1.878   1.034   1.990  0.2222  0.2316  0.2680
  103MOL   C23139195   1.743   0.971   2.043  0.3445  0.2336 -0.8022
  103MOL   O23239196   1.644   0.981   1.943 -0.0288  0.0742  0.1467
  103MOL   C23339197   1.553   1.085   1.961 -0.3396 -0.2743 -0.0532
  103MOL   C23439198   1.461   1.081   1.841  0.3786  0.1005  0.2348
  103MOL   C23539199   1.357   1.182   1.839 -0.2641 -0.8964 -0.3797
  103MOL   C23639200   1.259   1.153   1.719  0.0254 -0.6337  0.4650
  103MOL   H23739201   1.950   0.990   2.059  0.6328 -0.4299 -0.5718
  103MOL   H23839202   1.908   1.000   1.891 -2.0251  0.6713 -0.5714
  103MOL   H23939203   1.709   1.023   2.133  1.2661 -0.3382 -0.1101
  103MOL   H24039204   1.493   1.069   2.051  0.2918 -1.8783  0.1077
  103MOL   H24139205   1.590   1.187   1.972 -1.1970  0.1304 -0.8612
  103MOL   H24239206   1.520   1.090   1.750 -0.0641 -1.4846 -0.2204
  103MOL   H24339207   1.418   0.982   1.827  0.4515  0.0295  0.5154
  103MOL   H24439208   1.400   1.282   1.840 -1.2440 -0.4719  0.2337
  103MOL   H24539209   1.302   1.170   1.933 -0.7471 -1.2519 -0.7057
  103MOL   H24639210   1.191   1.238   1.714  3.2720  2.1745  1.7898
  103MOL   H24739211   1.197   1.068   1.748 -0.3680 -0.7186 -0.6168
  103MOL   H24839212   1.309   1.133   1.624  0.2941  0.8801  0.2678
  103MOL   C24939213   1.749   0.826   2.064 -0.6262  0.6430  0.1999
  103MOL   C25039214   1.824   0.773   2.194  1.5200  0.9616 -0.2282
  103MOL   O25139215   1.913   0.667   2.162 -0.1010  0.2990 -0.3870
  103MOL   C25239216   2.051   0.701   2.160 -0.0818 -0.0052  0.3170
  103MOL   C25339217   2.134   0.589   2.093  0.2038 -0.0018 -0.6219
  103MOL   C25439218   2.122   0.447   2.151 -0.3242 -0.3646 -0.5847
  103MOL   C25539219   1.988   0.366   2.122  0.7911 -0.3629 -0.3324
  103MOL   H25639220   1.816   0.800   1.981 -0.6060  2.8628 -0.5124
  103MOL   H25739221   1.651   0.785   2.039 -0.5273 -0.1774  1.1302
  103MOL   H25839222   1.885   0.846   2.248 -0.6074  1.4394  1.6032
  103MOL   H25939223   2.081   0.707   2.265 -0.7074 -1.6535  0.5999
  103MOL   H26039224   2.062   0.797   2.110  1.0189 -0.6033 -0.6433
  103MOL   H26139225   2.094   0.586   1.992  0.6018 -0.8795 -0.7523
  103MOL   H26239226   2.235   0.629   2.083  0.1057  0.6232  0.6701
  103MOL   H26339227   2.201   0.396   2.095  1.7012  1.5240  0.4947
  103MOL   H26439228   2.145   0.446   2.257  1.4403  1.3522 -0.9342
  103MOL   H26539229   1.993   0.265   2.162  1.3082 -0.8471 -1.6129
  103MOL   H26639230   1.965   0.359   2.016  1.3430 -0.9602 -0.4108
  103MOL   H26739231   1.907   0.411   2.180  1.4253  0.2901  0.0554
  103MOL   C26839232   1.718   0.714   2.299 -0.3697 -0.4928  0.2147
  103MOL   C26939233   1.627   0.814   2.365 -0.1716  0.7760 -0.8068
  103MOL   O27039234   1.542   0.734   2.443 -0.1523 -0.0011  0.3505
  103MOL   C27139235   1.439   0.665   2.371 -0.9539 -0.6906  0.1253
  103MOL   C27239236   1.295   0.714   2.402  0.0052  1.0393  0.3595
  103MOL   C27339237   1.260   0.745   2.548  0.3117 -0.1129 -0.3608
  103MOL   C27439238   1.127   0.807   2.557  0.2309 -0.3252  0.1280
  103MOL   H27539239   1.670   0.636   2.240  0.3168 -1.5817  1.0610
  103MOL   H27639240   1.782   0.662   2.371  1.2844 -0.5504 -1.2683
  103MOL   H27739241   1.575   0.863   2.283 -2.6360 -0.2314  0.0777
  103MOL   H27839242   1.450   0.665   2.263 -0.3788 -0.7479  0.1838
  103MOL   H27939243   1.453   0.562   2.405 -1.4648 -0.9272 -0.3797
  103MOL   H28039244   1.292   0.814   2.359 -1.0742  0.6400 -0.5188
  103MOL   H28139245   1.223   0.648   2.353  0.2615  0.6636  0.4855
  103MOL   H28239246   1.331   0.818   2.585  1.1510 -1.1648  0.1308
  103MOL   H28339247   1.264   0.650   2.601 -2.3906 -0.4619 -0.6690
  103MOL   H28439248   1.051   0.738   2.520  1.7060 -0.9189 -1.9477
  103MOL   H28539249   1.115   0.890   2.487 -0.6721 -1.0528 -0.5980
  103MOL   H28639250   1.109   0.835   2.660  2.7412 -0.6527  0.6972
  103MOL   C28739251   1.690   0.923   2.444 -0.3535  0.9814 -0.2562
  103MOL   C28839252   1.601   1.017   2.516 -0.2089 -0.5676  0.2798
  103MOL   O28939253   1.539   1.077   2.403  0.0649  0.0429  0.5450
  103MOL   C29039254   1.397   1.099   2.414 -0.1341  0.5900 -0.5666
  103MOL   C29139255   1.344   1.184   2.295  0.1580 -0.7220 -0.3371
  103MOL   C29239256   1.418   1.318   2.281  0.2640 -0.5633 -0.0108
  103MOL   C29339257   1.371   1.399   2.164  0.0616 -0.0522 -0.4018
  103MOL   H29439258   1.762   0.967   2.374 -0.2814  2.0589  0.4852
  103MOL   H29539259   1.766   0.891   2.515  0.6613  0.7108 -1.4322
  103MOL   H29639260   1.535   0.979   2.594  0.7852  1.5786  2.2410
  103MOL   H29739261   1.355   0.998   2.412  0.7292  0.1820  1.4084
  103MOL   H29839262   1.367   1.146   2.508  2.1483  0.9548 -0.0026
  103MOL   H29939263   1.239   1.210   2.303  0.5276  0.5466  0.4653
  103MOL   H30039264   1.353   1.134   2.198 -1.2287  0.4589 -1.0924
  103MOL   H30139265   1.526   1.304   2.277  0.3398 -0.0656  0.2807
  103MOL   H30239266   1.383   1.366   2.372 -0.2633  0.0883 -0.5470
  103MOL   H30339267   1.371   1.507   2.180  0.8584 -0.3424  1.7055
  103MOL   H30439268   1.414   1.379   2.066  1.1267  0.8833 -0.1357
  103MOL   H30539269   1.266   1.374   2.152 -0.3350  1.6967 -0.7330
  103MOL   C30639270   1.691   1.131   2.566 -0.9172 -0.3440  0.3920
  103MOL   C30739271   1.622   1.253   2.629 -0.0325 -0.6682  0.5099
  103MOL   O30839272   1.711   1.365   2.633 -0.0106  0.0755  0.5570
  103MOL   C30939273   1.730   1.430   2.508 -0.4554  0.9106 -0.5793
  103MOL   C31039274   1.768   1.579   2.535 -0.0586  0.4432  0.2181
  103MOL   C31139275   1.672   1.658   2.616  0.5134 -0.1066 -0.0688
  103MOL   C31239276   1.696   1.807   2.620 -0.8038  0.2592  0.2583
  103MOL   H31339277   1.755   1.090   2.644 -2.6744 -2.1685  0.9073
  103MOL   H31439278   1.755   1.168   2.486  0.5084  0.5650  1.9015
  103MOL   H31539279   1.529   1.270   2.575  1.5610  0.2205 -2.0503
  103MOL   H31639280   1.643   1.424   2.443  0.0066 -0.1851 -1.1032
  103MOL   H31739281   1.807   1.392   2.440 -2.5869 -1.5738 -1.7001
  103MOL   H31839282   1.778   1.615   2.433  0.6577  0.0135  0.1308
  103MOL   H31939283   1.866   1.574   2.584 -0.1327 -0.5728  0.2729
  103MOL   H32039284   1.570   1.638   2.583  0.4566  0.1223 -0.0333
  103MOL   H32139285   1.683   1.639   2.722 -0.0270  2.4634  0.4799
  103MOL   H32239286   1.802   1.823   2.641 -0.4277 -0.5303 -0.9461
  103MOL   H32339287   1.631   1.848   2.697  1.0120  0.6250  1.6288
  103MOL   H32439288   1.681   1.847   2.520 -0.1649 -1.7549 -0.6592
  103MOL   C32539289   1.589   1.222   2.777  0.4281  0.1266 -0.7000
  103MOL   C32639290   1.487   1.321   2.825 -0.5970  0.6286  0.3635
  103MOL   O32739291   1.356   1.291   2.776 -0.3271 -0.5443 -0.2352
  103MOL   C32839292   1.287   1.391   2.700  0.6034  1.1374  0.2442
  103MOL   C32939293   1.144   1.346   2.647  0.6557 -0.7858 -0.5880
  103MOL   C33039294   1.064   1.454   2.573 -0.3191 -0.4350  0.3360
  103MOL   C33139295   1.111   1.481   2.425 -0.0767 -0.0066  0.1428
  103MOL   H33239296   1.669   1.216   2.850 -0.2933  0.6678  0.1465
  103MOL   H33339297   1.543   1.124   2.790  2.2690 -1.0071 -2.4441
  103MOL   H33439298   1.506   1.419   2.781  1.1212 -0.0154 -0.3654
  103MOL   H33539299   1.345   1.426   2.615 -0.6936 -0.9797 -1.5562
  103MOL   H33639300   1.271   1.473   2.770 -1.1385 -0.0553  1.2940
  103MOL   H33739301   1.147   1.261   2.580  1.1822 -0.8014 -0.5459
  103MOL   H33839302   1.076   1.318   2.728  0.0096  1.6158 -0.2534
  103MOL   H33939303   1.061   1.552   2.620 -1.4114  0.5750 -1.7395
  103MOL   H34039304   0.962   1.417   2.569  0.0528 -1.5182  0.7647
  103MOL   H34139305   1.041   1.535   2.361 -0.2403 -0.6592 -0.2257
  103MOL   H34239306   1.137   1.393   2.367  1.5517  1.5217 -1.5087
  103MOL   H34339307   1.205   1.536   2.419 -0.3430  0.2966 -1.6456
  103MOL   C34439308   1.474   1.350   2.979 -0.4884 -0.1628 -0.6473
  103MOL   C34539309   1.572   1.446   3.032 -0.1177  0.0963  0.4040
  103MOL   O34639310   1.584   1.421   3.177 -0.0973 -0.1892  0.0292
  103MOL   C34739311   1.704   1.347   3.213 -0.1857 -0.7897  0.4595
  103MOL   C34839312   1.710   1.334   3.362  0.2078 -0.3683 -0.4669
  103MOL   C34939313   1.586   1.263   3.415  0.0150 -0.5097 -0.0687
  103MOL   C35039314   1.608   1.109   3.420  0.0059  0.2323 -0.2336
  103MOL   H35139315   1.377   1.392   3.006 -0.0379 -0.9249  2.2346
  103MOL   H35239316   1.484   1.260   3.039  1.2468 -1.2735 -2.5137
  103MOL   H35339317   1.661   1.445   2.969 -0.1114 -0.2533  0.4204
  103MOL   H35439318   1.791   1.404   3.179 -0.5752 -1.4646 -1.7559
  103MOL   H35539319   1.705   1.251   3.163  0.7846  0.0871 -1.2562
  103MOL   H35639320   1.717   1.433   3.407  2.3132 -0.3488 -0.7809
  103MOL   H35739321   1.800   1.288   3.404  2.1564  2.2112 -1.6149
  103MOL   H35839322   1.565   1.279   3.521  1.9778  0.0023  0.2472
  103MOL   H35939323   1.497   1.291   3.358  1.3897  0.6013 -1.6920
  103MOL   H36039324   1.702   1.083   3.469  0.8016  1.9657 -0.7899
  103MOL   H36139325   1.637   1.069   3.323  1.1252 -0.9763  0.5825
  103MOL   H36239326   1.531   1.049   3.468  1.6588 -1.5485  0.2532
  103MOL   C36339327   1.532   1.592   3.015  0.1874 -0.2575  0.5426
  103MOL   C36439328   1.640   1.704   3.026 -0.0279  0.1898  0.0342
  103MOL   O36539329   1.576   1.833   3.007  0.7723 -0.0507  0.0325
  103MOL   C36639330   1.678   1.932   3.009  0.0990  0.0803  0.0735
  103MOL   C36739331   1.596   2.066   3.025 -0.6093  1.2259  0.6550
  103MOL   C36839332   1.524   2.089   2.894 -0.4926  0.6863  0.1196
  103MOL   C36939333   1.437   2.212   2.903  0.1169  1.0364 -0.4171
  103MOL   H37039334   1.445   1.609   3.079  0.7174  1.5714  0.8340
  103MOL   H37139335   1.496   1.606   2.913 -0.3882 -0.6552  0.6893
  103MOL   H37239336   1.728   1.692   2.963 -0.2914 -1.8591  0.0157
  103MOL   H37339337   1.741   1.922   2.920  0.7605 -2.3058  0.7753
  103MOL   H37439338   1.746   1.929   3.093  1.0772  3.0394 -0.5327
  103MOL   H37539339   1.658   2.154   3.040  1.9961 -0.6733  1.2819
  103MOL   H37639340   1.530   2.064   3.111  0.6798 -3.0635  1.6332
  103MOL   H37739341   1.462   2.002   2.872  0.3028 -0.0058  0.6278
  103MOL   H37839342   1.604   2.103   2.821 -0.2053 -0.7808  0.1357
  103MOL   H37939343   1.372   2.238   2.819 -2.5197 -1.4390  0.7790
  103MOL   H38039344   1.364   2.194   2.982 -0.5528 -1.0479 -1.4719
  103MOL   H38139345   1.492   2.301   2.932  0.3245  0.7041  0.1986
  103MOL   H38239346   1.672   1.691   3.130 -1.9815  1.4636  0.8170
  104MOL     C139347   3.343   0.050   1.517 -0.0411 -0.5069  0.1234
  104MOL     C239348   3.272   0.177   1.466  0.3503  0.8104 -0.1623
  104MOL     O339349   3.214   0.232   1.583  0.5157  0.0774  0.0806
  104MOL     C439350   3.100   0.324   1.562 -0.1443 -0.2474  0.3097
  104MOL     C539351   3.087   0.419   1.682  0.1766 -0.1755  0.6140
  104MOL     C639352   2.950   0.495   1.683 -0.8558 -0.3491  0.8966
  104MOL     C739353   2.941   0.618   1.775  0.0435  0.6814  0.1445
  104MOL     H839354   3.394   7.798   1.437  1.7013 -1.4118  1.8114
  104MOL     H939355   3.411   0.072   1.599 -1.1959  0.3927  0.8583
  104MOL    H1039356   3.191   0.156   1.396 -0.0377  2.4906 -0.2484
  104MOL    H1139357   3.116   0.392   1.478  0.2896  2.2477  2.3709
  104MOL    H1239358   3.012   0.262   1.541  0.0799 -0.8563  1.1346
  104MOL    H1339359   3.176   0.482   1.681  0.2710 -0.2992 -1.7055
  104MOL    H1439360   3.098   0.370   1.779  0.8228  1.9484  1.6289
  104MOL    H1539361   2.871   0.425   1.710 -0.9612 -0.3577  0.5677
  104MOL    H1639362   2.925   0.537   1.586  0.9031  2.1655  1.4779
  104MOL    H1739363   2.974   0.708   1.724  1.8591  0.6021  1.1459
  104MOL    H1839364   2.987   0.594   1.871 -0.4722  0.1683  0.2665
  104MOL    H1939365   2.842   0.643   1.813 -0.6433 -1.1357 -0.3806
  104MOL    H2039366   3.268   7.786   1.562  0.4374 -1.5309 -0.5544
  104MOL    C2139367   3.378   0.274   1.398 -0.3515  0.1326  0.0393
  104MOL    C2239368   3.456   0.213   1.273  0.0548 -0.1792  0.0213
  104MOL    O2339369   3.383   0.235   1.147 -0.0028 -0.2083 -0.0255
  104MOL    C2439370   3.331   0.105   1.108 -0.6447 -0.3314  0.0092
  104MOL    C2539371   3.222   0.117   1.004 -0.6085 -0.2843  0.4679
  104MOL    C2639372   3.087   0.142   1.073 -0.5589  0.4831 -0.0219
  104MOL    C2739373   2.967   0.169   0.974 -0.3864  0.1364 -0.3545
  104MOL    H2839374   3.447   0.315   1.471  0.6701  0.6528 -1.2041
  104MOL    H2939375   3.318   0.362   1.376 -0.2081  0.2207  0.0051
  104MOL    H3039376   3.486   0.109   1.289  0.5008 -0.4729 -2.4956
  104MOL    H3139377   3.293   0.053   1.196 -0.0933 -0.0498  0.4185
  104MOL    H3239378   3.415   0.050   1.065  0.4483  1.0510  0.3793
  104MOL    H3339379   3.248   0.197   0.934  1.6733 -1.6759 -0.3110
  104MOL    H3439380   3.206   0.032   0.939 -0.9744  0.1109  0.0345
  104MOL    H3539381   3.052   0.056   1.130  0.8492  0.0823  0.2676
  104MOL    H3639382   3.097   0.230   1.136  0.9058 -0.1219  0.6366
  104MOL    H3739383   2.931   0.078   0.924  2.2111 -1.0259 -0.1774
  104MOL    H3839384   2.881   0.217   1.020  1.6296 -0.6502  4.4575
  104MOL    H3939385   3.012   0.223   0.891  0.5303 -1.2289 -0.7719
  104MOL    C4039386   3.588   0.286   1.250  0.8238  0.0174  0.0202
  104MOL    C4139387   3.689   0.206   1.167  0.0122 -0.6641  0.0773
  104MOL    O4239388   3.731   0.095   1.246  0.2303 -0.1701  0.0284
  104MOL    C4339389   3.798   7.790   1.181  0.3876  0.1914  0.5177
  104MOL    C4439390   3.811   7.670   1.282  0.7146  0.4405 -0.4817
  104MOL    C4539391   3.675   7.622   1.332  0.6313 -0.6553 -0.0924
  104MOL    C4639392   3.697   7.529   1.450  0.3819  0.3151 -0.1252
  104MOL    H4739393   3.644   0.291   1.343  2.5186  0.8823 -1.0061
  104MOL    H4839394   3.569   0.388   1.217 -1.7968 -0.6893 -0.7534
  104MOL    H4939395   3.650   0.170   1.072 -1.9418  0.6144  0.3713
  104MOL    H5039396   3.900   0.013   1.152  0.5537  0.1897  1.0900
  104MOL    H5139397   3.745   7.754   1.093  0.3382  2.6972 -0.5156
  104MOL    H5239398   3.861   7.719   1.366 -0.2107  1.6490 -0.6108
  104MOL    H5339399   3.875   7.590   1.248  1.0732  0.5748 -0.1359
  104MOL    H5439400   3.631   7.570   1.246 -1.6966 -1.2159  1.3723
  104MOL    H5539401   3.612   7.709   1.352  0.4177 -0.5886 -1.0173
  104MOL    H5639402   3.606   7.478   1.482 -0.0765 -0.2868 -2.3376
  104MOL    H5739403   3.767   7.451   1.422 -3.4556 -3.0635 -0.6920
  104MOL    H5839404   3.734   7.589   1.534  2.5699 -2.2872  0.8239
  104MOL    C5939405   3.806   0.297   1.120 -0.0478  0.5223 -0.2487
  104MOL    C6039406   3.777   0.418   1.030 -0.2950  0.5052  0.8713
  104MOL    O6139407   3.897   0.472   0.981 -0.3528  0.3343  0.4949
  104MOL    C6239408   3.961   0.568   1.065 -0.1686  0.4571  0.1222
  104MOL    C6339409   4.065   0.638   0.986  0.3137 -0.8880  0.2768
  104MOL    C6439410   4.159   0.731   1.068  0.5562 -0.1117  0.3357
  104MOL    C6539411   4.104   0.879   1.097 -0.6413 -0.5034  0.6284
  104MOL    H6639412   3.850   0.336   1.212  1.7577 -0.1548 -0.8076
  104MOL    H6739413   3.882   0.235   1.074 -1.6792 -1.2729 -0.6117
  104MOL    H6839414   3.729   0.496   1.089 -1.3012  1.8979 -1.7249
  104MOL    H6939415   3.997   0.517   1.155  1.9215 -1.5394 -1.7878
  104MOL    H7039416   3.882   0.638   1.092  0.9127  2.6837 -2.3453
  104MOL    H7139417   4.120   0.564   0.929  0.9900  0.1191 -0.3966
  104MOL    H7239418   4.006   0.693   0.912  1.4485 -0.6491 -0.4654
  104MOL    H7339419   4.196   0.687   1.161 -3.7824  1.2455  2.8794
  104MOL    H7439420   4.240   0.759   1.001  1.3764  0.9486  1.7368
  104MOL    H7539421   4.025   0.881   1.171  0.4777 -1.1272  1.8560
  104MOL    H7639422   4.192   0.933   1.132  0.0996 -0.6167 -1.0104
  104MOL    H7739423   4.072   0.926   1.004  1.2919 -0.4425 -0.0279
  104MOL    C7839424   3.683   0.378   0.916  0.7953  0.2826  0.1289
  104MOL    C7939425   3.651   0.494   0.817 -0.0004 -0.0173 -0.1431
  104MOL    O8039426   3.599   0.609   0.893 -0.1384 -0.5301  0.2742
  104MOL    C8139427   3.597   0.731   0.827 -0.2746 -0.6382  0.0358
  104MOL    C8239428   3.553   0.856   0.910  0.1694 -0.0846  0.1092
  104MOL    C8339429   3.649   0.872   1.034 -0.6683  0.3544 -0.1138
  104MOL    C8439430   3.665   1.020   1.081 -0.3064 -0.0108 -0.0019
  104MOL    H8539431   3.586   0.349   0.956  0.2986  0.7301 -0.7460
  104MOL    H8639432   3.714   0.288   0.863 -0.1858  1.5170 -2.6281
  104MOL    H8739433   3.746   0.524   0.772  0.4027 -0.6842  0.2568
  104MOL    H8839434   3.523   0.736   0.746 -0.5061  2.7763  0.3519
  104MOL    H8939435   3.696   0.756   0.790 -0.6570 -0.7039 -1.0548
  104MOL    H9039436   3.564   0.939   0.840  2.8743 -0.7276 -0.3031
  104MOL    H9139437   3.445   0.851   0.925 -0.2280 -0.7175 -2.6874
  104MOL    H9239438   3.751   0.843   1.007 -0.6122 -1.0441  1.4875
  104MOL    H9339439   3.603   0.811   1.112 -0.7630  0.5711 -0.0014
  104MOL    H9439440   3.563   1.051   1.101 -1.1442 -2.4312 -0.3570
  104MOL    H9539441   3.726   1.037   1.170 -2.0540  4.5024  0.4618
  104MOL    H9639442   3.697   1.079   0.995  0.9119  3.5743  2.7979
  104MOL    C9739443   3.547   0.457   0.711 -0.1175 -0.3132 -0.0719
  104MOL    C9839444   3.579   0.350   0.612 -0.2363 -0.1824  0.2482
  104MOL    O9939445   3.536   0.224   0.674  0.1738 -0.0306 -0.8045
  104MOL   C10039446   3.629   0.117   0.653  0.2367  0.3982 -0.3193
  104MOL   C10139447   3.604   0.027   0.775 -0.5815  0.4572 -0.2126
  104MOL   C10239448   3.472   7.753   0.771  0.1695  0.1572 -0.5991
  104MOL   C10339449   3.472   7.627   0.857  0.2951 -0.4408 -0.2609
  104MOL   H10439450   3.540   0.550   0.654 -2.4690 -0.7902 -0.5985
  104MOL   H10539451   3.444   0.457   0.744 -0.7084  2.3464 -1.7328
  104MOL   H10639452   3.686   0.347   0.595  0.0050  1.9027  1.2806
  104MOL   H10739453   3.735   0.142   0.656  0.8767 -2.2693  2.5818
  104MOL   H10839454   3.606   0.061   0.563  2.7044 -0.3777 -0.5112
  104MOL   H10939455   3.604   0.084   0.867 -0.0369  1.3661 -0.7642
  104MOL   H11039456   3.687   7.758   0.781 -0.1927  0.9527  0.2551
  104MOL   H11139457   3.449   7.725   0.668 -0.8171  0.6098 -0.4973
  104MOL   H11239458   3.397   0.017   0.814  0.8631  0.6109 -0.0749
  104MOL   H11339459   3.382   7.568   0.843 -0.1717 -0.1517  1.4655
  104MOL   H11439460   3.556   7.559   0.839 -1.5136 -3.0880  1.0209
  104MOL   H11539461   3.489   7.643   0.963  0.2686  1.4626 -0.5123
  104MOL   C11639462   3.511   0.360   0.477  0.4140 -0.0022 -0.0440
  104MOL   C11739463   3.559   0.473   0.380 -0.1800 -0.1269  0.4312
  104MOL   O11839464   3.673   0.416   0.317  0.2784 -0.1690  0.3176
  104MOL   C11939465   3.748   0.503   0.229  0.8092 -0.2305  0.2155
  104MOL   C12039466   3.870   0.422   0.186  0.1815  0.0782 -0.3196
  104MOL   C12139467   3.841   0.350   0.049  0.1880  0.0043  0.5988
  104MOL   C12239468   3.972   0.291   0.001  0.8987  0.1279 -0.1333
  104MOL   H12339469   3.514   0.264   0.425  1.1297 -0.7636  1.3863
  104MOL   H12439470   3.406   0.371   0.504 -0.1719  0.0161 -2.2453
  104MOL   H12539471   3.593   0.560   0.436  0.5214  0.3671 -0.7323
  104MOL   H12639472   3.773   0.595   0.282 -0.4726  0.4146 -0.2833
  104MOL   H12739473   3.687   0.531   0.144  0.2728 -0.8341  0.4021
  104MOL   H12839474   3.904   0.350   0.261  2.1005  1.7978  0.5076
  104MOL   H12939475   3.954   0.491   0.172  0.3214  0.1195  0.6985
  104MOL   H13039476   3.759   0.283   0.072 -1.3731  2.0356  1.0631
  104MOL   H13139477   3.813   0.416   7.768 -0.1282  0.5783  1.1610
  104MOL   H13239478   4.041   0.373   7.781 -0.5042  1.4506  0.3533
  104MOL   H13339479   3.959   0.229   7.714 -2.4752  2.4103 -1.3003
  104MOL   H13439480   4.003   0.223   0.080 -0.0401  1.2581  1.2333
  104MOL   C13539481   3.447   0.523   0.279  0.1025 -0.1785 -0.9073
  104MOL   C13639482   3.363   0.415   0.210  0.0814 -0.1045  0.3015
  104MOL   O13739483   3.290   0.496   0.118 -0.3292  0.7558 -0.2504
  104MOL   C13839484   3.167   0.555   0.153 -0.9723  0.0681  0.6622
  104MOL   C13939485   3.094   0.602   0.026  0.0062 -0.6255 -0.1393
  104MOL   C14039486   2.958   0.652   0.066  0.5616 -0.2963 -0.3683
  104MOL   C14139487   2.886   0.690   7.737  0.1701 -0.7829  0.4155
  104MOL   H14239488   3.503   0.594   0.219 -0.8605  0.2888 -1.2640
  104MOL   H14339489   3.382   0.587   0.337  0.2265 -2.0820  1.3979
  104MOL   H14439490   3.302   0.366   0.286  0.9619  1.2071  1.8825
  104MOL   H14539491   3.190   0.641   0.216 -0.2594  0.2027  0.2124
  104MOL   H14639492   3.107   0.471   0.189 -0.7189 -2.1693 -3.8590
  104MOL   H14739493   3.090   0.535   7.742 -2.9122  0.6503 -1.0741
  104MOL   H14839494   3.147   0.689   7.788 -0.2728  0.8634  2.5749
  104MOL   H14939495   2.906   0.572   0.118  2.6236 -1.8272 -0.5643
  104MOL   H15039496   2.963   0.742   0.127  0.6233 -0.1285 -0.6188
  104MOL   H15139497   2.786   0.732   7.750  0.1860 -1.1489  1.7846
  104MOL   H15239498   2.926   0.785   7.700 -0.8244  0.6838  2.9194
  104MOL   H15339499   2.893   0.625   7.650  1.1452 -0.1032 -0.0262
  104MOL   C15439500   3.447   0.314   0.124 -0.3085 -0.1196 -0.5601
  104MOL   C15539501   3.377   0.228   0.011  0.2199 -0.8084 -0.3028
  104MOL   O15639502   3.293   0.124   0.061 -0.0296 -0.2440  0.3784
  104MOL   C15739503   3.181   0.100   7.775 -0.4208  0.1044 -0.2187
  104MOL   C15839504   3.048   0.166   0.025 -0.3654 -0.4694 -1.0026
  104MOL   C15939505   2.924   0.126   7.746  0.3721 -0.0996 -0.3359
  104MOL   C16039506   2.803   0.212   7.779 -0.2081  0.6048  0.0156
  104MOL   H16139507   3.485   0.244   0.199 -0.6520  2.9256  2.5713
  104MOL   H16239508   3.537   0.362   0.086  0.7752 -1.7264 -0.0728
  104MOL   H16339509   3.316   0.303   7.762  0.4525 -0.2721  0.2073
  104MOL   H16439510   3.192   0.133   7.672  0.3761  1.5363  0.3126
  104MOL   H16539511   3.178   7.793   7.783  1.0517  0.0326 -0.3971
  104MOL   H16639512   3.053   0.275   0.016 -0.8772 -0.0991  2.4554
  104MOL   H16739513   3.039   0.160   0.133 -0.0931 -0.7515 -0.9966
  104MOL   H16839514   2.936   0.126   7.637  1.0545 -0.8638 -0.2683
  104MOL   H16939515   2.908   0.023   7.779  1.1112  0.0192  0.3956
  104MOL   H17039516   2.710   0.171   7.739 -1.0125  1.7540  0.6604
  104MOL   H17139517   2.784   0.198   0.083 -0.7271 -2.8012 -0.4728
  104MOL   H17239518   2.812   0.316   7.747 -1.6924  0.2886 -1.5048
  104MOL   C17339519   3.479   0.179   7.709  0.2075 -0.3270 -0.5548
  104MOL   C17439520   3.502   0.277   7.594 -1.4306  0.2873 -0.0382
  104MOL   O17539521   3.590   0.384   7.629 -0.4988  0.2127  0.6501
  104MOL   C17639522   3.533   0.514   7.664 -0.8539 -0.7994 -0.3695
  104MOL   C17739523   3.658   0.614   7.673  0.3206 -0.6887  0.5796
  104MOL   C17839524   3.710   0.642   7.534 -0.4763 -0.0631 -0.6046
  104MOL   C17939525   3.833   0.741   7.526 -0.3422  0.3800 -0.6358
  104MOL   H18039526   3.435   0.091   7.661  1.7405 -1.6207  0.3787
  104MOL   H18139527   3.569   0.165   7.768  0.6558  2.9562 -0.3511
  104MOL   H18239528   3.405   0.322   7.573 -0.7260  2.1805  0.6204
  104MOL   H18339529   3.480   0.503   7.759 -0.2212 -4.0414 -0.3442
  104MOL   H18439530   3.459   0.547   7.592 -0.0252  1.1045 -0.3815
  104MOL   H18539531   3.737   0.586   7.743 -0.0694  0.5607  1.5418
  104MOL   H18639532   3.631   0.712   7.712  3.7308  0.3795  0.4019
  104MOL   H18739533   3.742   0.549   7.486  0.6429  0.9316 -1.8113
  104MOL   H18839534   3.635   0.688   7.470  0.3466  1.2893 -0.6159
  104MOL   H18939535   3.877   0.767   7.430 -1.0328 -1.7242 -1.5271
  104MOL   H19039536   3.804   0.839   7.566  0.2538 -0.0181  0.8174
  104MOL   H19139537   3.913   0.695   7.585 -1.9590 -1.9487 -0.2027
  104MOL   C19239538   3.576   0.206   7.474  0.2222  0.0192  0.0320
  104MOL   C19339539   3.487   0.108   7.389  0.6637  0.2151  0.1691
  104MOL   O19439540   3.368   0.174   7.367 -0.2570  0.5145  0.1913
  104MOL   C19539541   3.253   0.093   7.358  1.0627  0.3996  1.0807
  104MOL   C19639542   3.133   0.187   7.323 -0.5312  0.3495 -0.6461
  104MOL   C19739543   3.014   0.108   7.280 -0.4209  0.2605 -0.1308
  104MOL   C19839544   2.897   0.204   7.271  0.4759 -0.2926  0.2213
  104MOL   H19939545   3.668   0.164   7.514  0.7538  0.4390 -0.7287
  104MOL   H20039546   3.601   0.295   7.415 -2.0124  1.8057  1.6739
  104MOL   H20139547   3.468   0.017   7.446 -0.9104 -0.1563 -0.9306
  104MOL   H20239548   3.230   0.019   7.435 -1.7939 -0.4789 -0.5550
  104MOL   H20339549   3.269   0.037   7.266  0.5447  2.7912 -0.4944
  104MOL   H20439550   3.109   0.236   7.418  1.1353  0.6991 -0.3940
  104MOL   H20539551   3.161   0.268   7.256  1.0009 -0.3110 -0.8015
  104MOL   H20639552   2.991   0.035   7.357 -0.9125  0.4501 -0.0924
  104MOL   H20739553   3.035   0.071   7.180 -0.7482  0.1785 -0.1695
  104MOL   H20839554   2.854   0.226   7.368  0.1614 -0.2776  0.0800
  104MOL   H20939555   2.926   0.296   7.220 -0.7988 -0.8148 -1.5038
  104MOL   H21039556   2.805   0.168   7.225  0.0445 -1.5071  2.0063
  104MOL   C21139557   3.550   0.054   7.252 -0.6073  0.1560 -0.6097
  104MOL   C21239558   3.601   0.168   7.162 -0.0879  0.1877 -0.8488
  104MOL   O21339559   3.726   0.122   7.092  0.0439 -0.4016  0.1142
  104MOL   C21439560   3.833   0.113   7.180  0.2762 -0.1665  0.3134
  104MOL   C21539561   3.945   0.133   7.077 -0.1603 -0.1998 -0.1838
  104MOL   C21639562   3.990   0.004   7.011 -0.0868  0.1301 -0.1918
  104MOL   C21739563   4.103   0.032   6.913 -0.3883 -0.2153 -0.1657
  104MOL   H21839564   3.498   7.785   7.188 -0.9477 -1.0681  0.9951
  104MOL   H21939565   3.639   7.795   7.271 -2.4365 -2.2427  0.5347
  104MOL   H22039566   3.620   0.260   7.217  2.7628 -0.0128 -1.4240
  104MOL   H22139567   3.841   0.196   7.250  1.0224 -0.5368  0.6777
  104MOL   H22239568   3.841   0.021   7.237 -0.2690 -0.2765  0.2167
  104MOL   H22339569   3.923   0.212   7.006  2.7487  0.1220 -0.7553
  104MOL   H22439570   4.028   0.171   7.135  0.1853 -1.1323 -0.0537
  104MOL   H22539571   3.915   7.759   6.947  2.0604  0.0121 -2.7114
  104MOL   H22639572   4.021   7.735   7.088 -1.8381 -0.1588  0.2734
  104MOL   H22739573   4.152   7.739   6.892 -0.8003 -0.6456  0.7800
  104MOL   H22839574   4.171   0.109   6.949  0.7722 -0.6446 -1.4063
  104MOL   H22939575   4.062   0.076   6.821  1.3143 -0.4915 -1.0723
  104MOL   C23039576   3.489   0.208   7.059 -0.3255 -0.8183  0.4538
  104MOL   C23139577   3.512   0.358   7.011  0.8897  0.2368 -0.5557
  104MOL   O23239578   3.512   0.447   7.121 -0.4123  0.3931  0.2527
  104MOL   C23339579   3.391   0.518   7.143 -0.0165  0.3696  0.0704
  104MOL   C23439580   3.407   0.611   7.261 -0.0408  0.6291 -0.0047
  104MOL   C23539581   3.275   0.680   7.298  0.6788 -0.2762 -0.6763
  104MOL   C23639582   3.284   0.765   7.425 -0.7106 -0.5368 -0.5362
  104MOL   H23739583   3.394   0.197   7.111 -0.4526 -3.4998 -0.2630
  104MOL   H23839584   3.485   0.141   6.973 -0.0864  1.6554 -1.5588
  104MOL   H23939585   3.433   0.382   6.939  0.6383 -2.9033 -1.4071
  104MOL   H24039586   3.382   0.575   7.051 -2.1648  0.2084  0.1480
  104MOL   H24139587   3.317   0.438   7.151 -0.6127  0.8936 -0.1632
  104MOL   H24239588   3.448   0.556   7.346 -0.7663  0.5109  0.2708
  104MOL   H24339589   3.481   0.683   7.225  2.4465 -1.6904  0.2679
  104MOL   H24439590   3.190   0.611   7.295 -1.1900  1.9555 -0.3116
  104MOL   H24539591   3.250   0.743   7.213  2.0290  1.5049  0.2291
  104MOL   H24639592   3.355   0.844   7.398  0.3794 -1.1902  0.3896
  104MOL   H24739593   3.323   0.713   7.512 -0.0418  0.3710 -0.2805
  104MOL   H24839594   3.191   0.822   7.433  0.0974  0.8879 -0.9986
  104MOL   C24939595   3.642   0.371   6.925 -0.3616  0.0653 -0.6234
  104MOL   C25039596   3.645   0.492   6.831  0.3646  0.2986  0.1580
  104MOL   O25139597   3.759   0.491   6.744 -0.2130  0.1585  0.0434
  104MOL   C25239598   3.730   0.419   6.625 -0.7269  0.0274  0.0339
  104MOL   C25339599   3.849   0.424   6.525 -0.2105  0.1897  0.1343
  104MOL   C25439600   3.889   0.564   6.470  0.0602 -0.3358 -0.4603
  104MOL   C25539601   4.008   0.561   6.364  0.1792  0.8666 -0.4689
  104MOL   H25639602   3.651   0.277   6.870  2.6854 -1.5974  2.5073
  104MOL   H25739603   3.725   0.370   6.996  0.2615  2.2230 -1.2854
  104MOL   H25839604   3.552   0.488   6.774 -1.2160  2.4149  2.5417
  104MOL   H25939605   3.637   0.451   6.577 -1.8810 -3.3525 -0.1726
  104MOL   H26039606   3.720   0.313   6.647  1.6221 -1.2117 -4.4186
  104MOL   H26139607   3.939   0.385   6.572 -0.2474 -0.0245  0.0285
  104MOL   H26239608   3.821   0.357   6.443  1.9978 -0.0393 -0.4709
  104MOL   H26339609   3.796   0.600   6.426  0.0116  0.4553  0.2721
  104MOL   H26439610   3.911   0.638   6.547  2.3620  0.0259 -1.4281
  104MOL   H26539611   3.982   0.499   6.279  2.8216 -0.6520 -0.2157
  104MOL   H26639612   4.087   0.507   6.417 -0.0240  1.8293  0.8467
  104MOL   H26739613   4.046   0.654   6.321  1.6658 -1.4258 -4.3431
  104MOL   C26839614   3.653   0.625   6.906 -0.1583 -0.6490  0.5338
  104MOL   C26939615   3.637   0.756   6.824 -0.7565  0.4448  0.8962
  104MOL   O27039616   3.525   0.742   6.739 -0.1491  0.3978  0.5076
  104MOL   C27139617   3.533   0.811   6.616  0.4065  0.4104 -0.3092
  104MOL   C27239618   3.411   0.789   6.523 -0.2367  0.3437  0.4271
  104MOL   C27339619   3.399   0.644   6.472  0.3661 -0.1786  0.4628
  104MOL   C27439620   3.277   0.624   6.375  0.4446 -0.0875  0.2370
  104MOL   H27539621   3.575   0.643   6.981 -1.1680  1.3200 -0.9282
  104MOL   H27639622   3.749   0.626   6.958 -0.4864 -1.0038  1.1532
  104MOL   H27739623   3.730   0.764   6.767 -1.0279 -0.6830  0.2820
  104MOL   H27839624   3.554   0.916   6.638  0.5967  0.1653  0.7136
  104MOL   H27939625   3.610   0.762   6.557  0.9911  1.8319 -0.7382
  104MOL   H28039626   3.318   0.820   6.571 -1.7497 -2.0467 -0.8711
  104MOL   H28139627   3.410   0.853   6.436 -1.5015 -1.7347 -1.1533
  104MOL   H28239628   3.366   0.588   6.559 -1.9914 -0.0127 -0.2661
  104MOL   H28339629   3.492   0.598   6.438  1.1931  1.0111  1.0852
  104MOL   H28439630   3.190   0.668   6.424 -1.7627 -1.2112 -2.5333
  104MOL   H28539631   3.257   0.525   6.334 -4.0111  1.0747 -0.7081
  104MOL   H28639632   3.290   0.688   6.287  1.2630  2.3145  2.0426
  104MOL   C28739633   3.646   0.880   6.916  0.1212  0.3468 -0.2537
  104MOL   C28839634   3.778   0.906   6.993  0.9764 -0.5827 -0.0324
  104MOL   O28939635   3.737   0.995   7.096 -0.9039  0.0802 -0.1672
  104MOL   C29039636   3.699   0.936   7.219 -0.6829 -0.4609 -1.0277
  104MOL   C29139637   3.659   1.054   7.310 -0.6437 -0.2621  0.6792
  104MOL   C29239638   3.517   1.111   7.285 -0.6388  0.4075  0.5224
  104MOL   C29339639   3.500   1.248   7.346  0.2032 -0.2895 -0.4725
  104MOL   H29439640   3.570   0.874   6.994  2.5432 -0.5090  2.1037
  104MOL   H29539641   3.628   0.978   6.872 -0.7428  0.9263  1.3696
  104MOL   H29639642   3.822   0.826   7.052 -0.0533 -0.9766  0.1983
  104MOL   H29739643   3.607   0.880   7.206 -0.3459 -1.1833 -0.3361
  104MOL   H29839644   3.784   0.884   7.262 -1.1960  0.3704  1.0661
  104MOL   H29939645   3.744   1.118   7.333  0.0875  0.1364 -2.9019
  104MOL   H30039646   3.638   1.011   7.408 -1.3122 -0.6065  0.3883
  104MOL   H30139647   3.444   1.042   7.328  0.3377 -1.9819 -1.5284
  104MOL   H30239648   3.492   1.122   7.180 -0.3261  0.9598  0.5019
  104MOL   H30339649   3.565   1.323   7.302  0.1228 -0.3753 -0.7376
  104MOL   H30439650   3.400   1.276   7.313 -0.4074 -1.6408  0.1861
  104MOL   H30539651   3.508   1.236   7.454 -0.4585  1.9150 -0.1409
  104MOL   C30639652   3.881   0.976   6.902  0.6530  0.7331 -0.1686
  104MOL   C30739653   4.011   1.012   6.962 -0.4352 -0.5867 -0.6516
  104MOL   O30839654   4.082   1.082   6.861  0.5261 -0.2490 -0.5209
  104MOL   C30939655   4.073   1.229   6.867 -0.1504 -0.2933 -0.4802
  104MOL   C31039656   4.162   1.298   6.761  0.1492 -0.1167 -0.5233
  104MOL   C31139657   4.310   1.274   6.793  0.2715 -0.0600  0.3705
  104MOL   C31239658   4.402   1.358   6.695 -0.5024 -0.6840 -0.7264
  104MOL   H31339659   3.909   0.913   6.817 -0.6953  0.6439 -0.5619
  104MOL   H31439660   3.833   1.067   6.866  0.3994  1.1293  1.1329
  104MOL   H31539661   3.992   1.074   7.050  2.2493 -1.8749  0.8978
  104MOL   H31639662   4.098   1.264   6.967 -1.6772  1.2400 -0.6134
  104MOL   H31739663   3.971   1.265   6.851  1.2196  3.2776 -1.9189
  104MOL   H31839664   4.136   1.403   6.748 -4.7170 -1.1927 -0.4875
  104MOL   H31939665   4.124   1.256   6.668 -0.6269 -2.4828  0.8026
  104MOL   H32039666   4.327   1.305   6.896 -1.5553 -0.7771  0.9037
  104MOL   H32139667   4.336   1.169   6.782  1.8384  0.4934 -1.3779
  104MOL   H32239668   4.391   1.465   6.713 -0.4723 -0.6453 -0.9341
  104MOL   H32339669   4.377   1.330   6.593  0.8997  0.0492 -1.2936
  104MOL   H32439670   4.507   1.348   6.723 -0.8427  3.4361  2.4163
  104MOL   C32539671   4.105   0.899   7.000  0.4090  0.2041 -0.3824
  104MOL   C32639672   4.108   0.862   7.148  0.1797  0.5251  0.3766
  104MOL   O32739673   4.147   0.725   7.149 -0.3730  0.0397 -0.5539
  104MOL   C32839674   4.053   0.636   7.175 -0.0587  0.7037  0.7293
  104MOL   C32939675   4.098   0.488   7.150  0.0734  0.1925  0.5525
  104MOL   C33039676   4.125   0.442   7.008  0.0844 -0.4955  0.6167
  104MOL   C33139677   4.016   0.465   6.908 -0.1169 -0.2983  0.3033
  104MOL   H33239678   4.205   0.902   6.956 -0.4756 -1.1163 -2.5578
  104MOL   H33339679   4.061   0.809   6.957 -1.8565  0.6797  0.8507
  104MOL   H33439680   4.008   0.875   7.189 -0.1491 -0.7672  0.0013
  104MOL   H33539681   3.964   0.655   7.115  0.0004 -0.6993  0.1885
  104MOL   H33639682   4.033   0.650   7.281 -0.3095  0.0810  0.7633
  104MOL   H33739683   4.188   0.475   7.209  1.6475  4.8812 -0.5583
  104MOL   H33839684   4.012   0.438   7.194  0.3982  1.6381  2.8955
  104MOL   H33939685   4.151   0.336   7.007 -0.6591 -0.6780 -0.7285
  104MOL   H34039686   4.201   0.505   6.962  1.1989 -0.3309  2.6230
  104MOL   H34139687   4.039   0.395   6.827  0.9607  0.6790 -0.2435
  104MOL   H34239688   4.009   0.567   6.872  1.7781 -0.4373 -0.5586
  104MOL   H34339689   3.918   0.457   6.954  0.0745  0.1600  0.7864
  104MOL   C34439690   4.215   0.945   7.235  0.2684 -0.2094  0.1589
  104MOL   C34539691   4.204   1.103   7.232  0.0152 -0.3493  0.5026
  104MOL   O34639692   4.318   1.160   7.301  0.7226  0.6575 -0.1372
  104MOL   C34739693   4.436   1.186   7.220 -0.2471  0.0861  0.0573
  104MOL   C34839694   4.564   1.200   7.312  0.0935  0.3682  0.8640
  104MOL   C34939695   4.628   1.064   7.358 -0.2490 -0.1720  0.2205
  104MOL   C35039696   4.751   1.095   7.439 -0.5245 -0.0309 -0.2110
  104MOL   H35139697   4.206   0.910   7.338  0.6324 -0.0225  0.2532
  104MOL   H35239698   4.316   0.910   7.210  0.0275 -0.6659 -0.1976
  104MOL   H35339699   4.196   1.134   7.128  4.1863  0.3226  0.3180
  104MOL   H35439700   4.407   1.269   7.155  0.7531  0.7115  0.4119
  104MOL   H35539701   4.449   1.096   7.160 -0.8291 -0.1128  0.2222
  104MOL   H35639702   4.543   1.270   7.393 -0.7707  2.7703 -1.3752
  104MOL   H35739703   4.633   1.255   7.248  1.3717 -1.1380  0.9077
  104MOL   H35839704   4.554   1.003   7.410 -0.1073 -3.4520 -3.2338
  104MOL   H35939705   4.654   1.010   7.267  0.7130 -0.3107  0.5697
  104MOL   H36039706   4.839   1.117   7.379 -0.9924  3.3537  0.2567
  104MOL   H36139707   4.783   1.011   7.501 -0.8421  1.0589  1.4556
  104MOL   H36239708   4.722   1.169   7.514  1.4769  0.7070 -0.1494
  104MOL   C36339709   4.084   1.149   7.313  0.0781  0.2283  0.7338
  104MOL   C36439710   4.068   1.305   7.317 -0.1287  0.4436 -0.0542
  104MOL   O36539711   3.941   1.334   7.368 -0.0905 -0.0927  0.0966
  104MOL   C36639712   3.921   1.305   7.506 -0.5097 -0.0629  0.5867
  104MOL   C36739713   3.809   1.392   7.559 -0.0882  0.4228  0.3963
  104MOL   C36839714   3.747   1.344   7.690 -0.1674 -0.0073  0.4510
  104MOL   C36939715   3.609   1.390   7.734  0.3292  0.3478 -0.0794
  104MOL   H37039716   4.085   1.100   7.411 -1.6682  0.5586  0.9453
  104MOL   H37139717   4.002   1.109   7.253  1.0981 -1.5450  0.4650
  104MOL   H37239718   4.065   1.346   7.216  1.7105  2.4735  0.6651
  104MOL   H37339719   4.019   1.314   7.551  0.2056 -3.2159 -0.2090
  104MOL   H37439720   3.886   1.202   7.508 -0.1471 -0.1826  0.7785
  104MOL   H37539721   3.728   1.408   7.488 -1.7053 -2.6131  1.4634
  104MOL   H37639722   3.861   1.487   7.568  0.7993 -0.1024  0.8383
  104MOL   H37739723   3.829   1.364   7.759  1.0743 -0.8695 -0.7379
  104MOL   H37839724   3.739   1.235   7.692  2.0042 -0.1905  1.3492
  104MOL   H37939725   3.565   1.337   0.017 -0.1009 -0.9413 -1.0769
  104MOL   H38039726   3.602   1.497   7.754  0.3241  0.3370 -0.0246
  104MOL   H38139727   3.535   1.367   7.657  1.0291 -1.8682 -0.1319
  104MOL   H38239728   4.142   1.369   7.366  0.4317  1.5564 -2.3070
  105MOL     C139729   4.028   6.631   6.870  0.4180 -0.1702 -0.9183
  105MOL     C239730   3.948   6.722   6.774 -0.1253  0.4334 -0.0341
  105MOL     O339731   3.843   6.776   6.859  0.2240  0.0756 -0.0238
  105MOL     C439732   3.724   6.798   6.790 -0.3978 -0.0431 -0.4183
  105MOL     C539733   3.627   6.876   6.881  0.0519  0.1422  0.1276
  105MOL     C639734   3.495   6.898   6.816 -0.4998 -0.4818  0.0630
  105MOL     C739735   3.398   6.954   6.917  1.2656  0.2050 -0.6412
  105MOL     H839736   4.071   6.683   6.956 -0.4321 -1.8404  0.5474
  105MOL     H939737   3.962   6.552   6.909  1.7288 -0.2077  1.3416
  105MOL    H1039738   3.904   6.656   6.701  0.6380 -0.0009 -0.1098
  105MOL    H1139739   3.739   6.849   6.695  0.6612 -0.8036 -0.6777
  105MOL    H1239740   3.675   6.704   6.765  1.3283 -0.7961 -1.1073
  105MOL    H1339741   3.666   6.974   6.908 -2.2920  1.6859 -1.8529
  105MOL    H1439742   3.616   6.826   6.978  0.9316 -1.7341 -0.7159
  105MOL    H1539743   3.475   6.795   6.789 -1.0531 -0.3342 -0.1156
  105MOL    H1639744   3.490   6.956   6.723  2.1390  1.1405  0.8944
  105MOL    H1739745   3.291   6.964   6.895  0.8880 -0.9399  0.5989
  105MOL    H1839746   3.428   7.054   6.948  0.8751  0.2497 -0.3991
  105MOL    H1939747   3.403   6.880   6.997  0.5162 -1.2564 -1.9038
  105MOL    H2039748   4.104   6.570   6.822  0.0149 -0.3998 -1.2706
  105MOL    C2139749   4.027   6.836   6.711 -0.0185 -0.6232 -0.2945
  105MOL    C2239750   4.109   6.782   6.588  0.0933 -0.5647 -0.3632
  105MOL    O2339751   4.027   6.727   6.486  0.0860 -0.4812 -0.4235
  105MOL    C2439752   4.083   6.639   6.394  1.1306 -0.6572 -0.8276
  105MOL    C2539753   4.105   6.502   6.448 -0.6318 -0.0203  0.6507
  105MOL    C2639754   4.156   6.419   6.331  0.3957  0.5194 -0.7888
  105MOL    C2739755   4.214   6.280   6.383  0.3760 -0.3853  0.5420
  105MOL    H2839756   4.086   6.883   6.789  1.8676 -2.0313 -0.8249
  105MOL    H2939757   3.959   6.914   6.680 -1.8207 -2.0797 -0.0971
  105MOL    H3039758   4.170   6.697   6.619 -0.5823 -1.7146 -2.1034
  105MOL    H3139759   4.178   6.674   6.354  1.1086  0.1391 -0.1996
  105MOL    H3239760   4.021   6.647   6.305 -0.9948 -1.8134  0.4909
  105MOL    H3339761   4.188   6.513   6.518  0.1445  0.4641 -0.3323
  105MOL    H3439762   4.029   6.448   6.505 -0.7834 -1.1583 -0.6133
  105MOL    H3539763   4.073   6.410   6.260 -0.4026 -3.0282  0.4781
  105MOL    H3639764   4.238   6.475   6.286 -1.1468  0.9591 -3.1600
  105MOL    H3739765   4.148   6.213   6.438  1.2942 -2.6449 -1.0391
  105MOL    H3839766   4.239   6.221   6.295 -0.9476  1.3819 -1.0395
  105MOL    H3939767   4.307   6.296   6.438  1.6649 -1.8328 -1.1430
  105MOL    C4039768   4.203   6.892   6.529  0.0533  0.2810 -0.2581
  105MOL    C4139769   4.318   6.935   6.612  0.0565  0.5649  0.3145
  105MOL    O4239770   4.385   7.043   6.541  0.2871 -0.0483  0.2425
  105MOL    C4339771   4.371   7.159   6.622  0.8204  0.1700  0.3910
  105MOL    C4439772   4.376   7.272   6.524  0.3020  0.2230  0.6467
  105MOL    C4539773   4.513   7.327   6.504 -0.6537 -0.1257  0.5374
  105MOL    C4639774   4.604   7.228   6.423  0.0678 -0.5179 -0.6867
  105MOL    H4739775   4.146   6.984   6.518  0.4251  0.4906 -0.4088
  105MOL    H4839776   4.237   6.865   6.429  0.6849 -0.8585  0.2580
  105MOL    H4939777   4.276   6.968   6.707 -2.0191  0.2498 -0.4779
  105MOL    H5039778   4.451   7.175   6.694  1.4510 -0.9038 -0.0480
  105MOL    H5139779   4.276   7.165   6.674  0.6845  1.8530 -0.0180
  105MOL    H5239780   4.312   7.357   6.548  2.0439  1.8000 -0.1123
  105MOL    H5339781   4.331   7.242   6.430  1.1185  0.9436  0.0145
  105MOL    H5439782   4.563   7.352   6.598  0.2063 -0.6752  0.2245
  105MOL    H5539783   4.496   7.422   6.454  2.4120  1.4194  2.2579
  105MOL    H5639784   4.630   7.137   6.478  2.5070  1.7572  2.0466
  105MOL    H5739785   4.559   7.200   6.327 -3.1794 -1.2660  0.9730
  105MOL    H5839786   4.694   7.280   6.392 -2.0542  2.7134 -1.6655
  105MOL    C5939787   4.433   6.826   6.634 -0.1743 -0.5522 -0.2008
  105MOL    C6039788   4.446   6.772   6.777  0.4053 -0.1890  0.4257
  105MOL    O6139789   4.507   6.645   6.781  0.1160 -0.0771  0.3222
  105MOL    C6239790   4.414   6.534   6.760 -0.8774 -0.1521  0.8060
  105MOL    C6339791   4.484   6.406   6.799 -0.4205 -0.4118  0.1092
  105MOL    C6439792   4.373   6.292   6.787  0.3722  0.7669  0.2557
  105MOL    C6539793   4.427   6.150   6.819  0.0265 -0.3374  0.3087
  105MOL    H6639794   4.417   6.738   6.573 -1.8617 -0.9636  0.8005
  105MOL    H6739795   4.526   6.870   6.598  0.8644 -2.0003  0.6414
  105MOL    H6839796   4.347   6.754   6.817 -0.9694  2.4648 -1.6406
  105MOL    H6939797   4.371   6.526   6.660  0.0440  1.0792  0.2974
  105MOL    H7039798   4.333   6.539   6.833  0.5173  0.2163  2.3634
  105MOL    H7139799   4.570   6.394   6.733 -0.3992 -0.2254  0.1004
  105MOL    H7239800   4.531   6.417   6.896 -0.3083  0.8800 -0.0887
  105MOL    H7339801   4.284   6.296   6.849  0.5916  0.0162  0.6286
  105MOL    H7439802   4.331   6.294   6.686 -1.1576  0.2391  0.8609
  105MOL    H7539803   4.348   6.082   6.788  1.1202 -0.7312 -1.6682
  105MOL    H7639804   4.521   6.125   6.770 -0.7310 -1.1262 -0.7428
  105MOL    H7739805   4.447   6.144   6.926  0.4022  1.0300  0.3208
  105MOL    C7839806   4.537   6.870   6.856  0.0966 -0.7663  0.2566
  105MOL    C7939807   4.522   6.853   7.005  0.5903  0.8471 -0.1673
  105MOL    O8039808   4.394   6.890   7.042 -0.3740  0.0944  0.9519
  105MOL    C8139809   4.326   6.797   7.117 -0.2540 -0.6540 -0.4426
  105MOL    C8239810   4.194   6.856   7.156 -0.1481 -0.0440 -0.1196
  105MOL    C8339811   4.111   6.769   7.250  0.3047  0.3300  0.2680
  105MOL    C8439812   3.975   6.821   7.274 -0.4484  0.3041  0.7888
  105MOL    H8539813   4.488   6.966   6.837  2.1664  0.1274 -0.6196
  105MOL    H8639814   4.638   6.864   6.816 -0.9142  1.8061 -2.9246
  105MOL    H8739815   4.547   6.751   7.036 -1.3243  0.5382  0.4209
  105MOL    H8839816   4.387   6.762   7.200  0.6389  0.4668 -0.6194
  105MOL    H8939817   4.313   6.704   7.062  0.0419 -0.7948 -0.2765
  105MOL    H9039818   4.202   6.957   7.194  0.4972 -0.5464  1.1187
  105MOL    H9139819   4.141   6.879   7.063 -1.2057  2.0306  0.9667
  105MOL    H9239820   4.164   6.744   7.342 -0.3030 -2.4718 -0.0914
  105MOL    H9339821   4.093   6.678   7.193 -0.5939  0.5022  0.2722
  105MOL    H9439822   3.926   6.840   7.179  0.6693 -1.0473 -0.0721
  105MOL    H9539823   3.915   6.745   7.325  0.4510 -0.2465  1.0351
  105MOL    H9639824   3.987   6.906   7.341 -0.4078  0.2322  0.8734
  105MOL    C9739825   4.609   6.946   7.091 -0.4937  0.1704 -0.3988
  105MOL    C9839826   4.614   6.931   7.247 -0.3789 -0.0846  0.2083
  105MOL    O9939827   4.661   6.799   7.260  0.2032 -0.1125 -0.1415
  105MOL   C10039828   4.647   6.751   7.394  0.2810  0.4223  0.1786
  105MOL   C10139829   4.678   6.605   7.390 -0.2344  0.6876  0.2601
  105MOL   C10239830   4.694   6.545   7.538 -0.3923  0.2441 -0.2011
  105MOL   C10339831   4.711   6.399   7.543 -0.6364 -0.2386  0.1088
  105MOL   H10439832   4.582   7.050   7.071 -1.3723  0.0435  0.1172
  105MOL   H10539833   4.707   6.919   7.051  0.0343 -0.4598  1.2583
  105MOL   H10639834   4.515   6.947   7.291 -1.4441 -0.2238 -2.0117
  105MOL   H10739835   4.541   6.757   7.419  0.5618  0.1557  1.4497
  105MOL   H10839836   4.708   6.801   7.469 -0.2850 -1.2908  1.8065
  105MOL   H10939837   4.768   6.594   7.331 -1.7246  0.0507 -1.9762
  105MOL   H11039838   4.609   6.558   7.319 -0.4402 -0.6005  1.3055
  105MOL   H11139839   4.597   6.578   7.576 -1.9571 -2.1808 -1.9650
  105MOL   H11239840   4.773   6.601   7.589 -0.1679 -0.7769  0.5871
  105MOL   H11339841   4.795   6.364   7.484  0.0178  2.7439 -0.7830
  105MOL   H11439842   4.725   6.371   7.647 -1.3250 -0.9914  0.0070
  105MOL   H11539843   4.620   6.344   7.518 -0.0055 -0.7155 -1.1967
  105MOL   C11639844   4.708   7.025   7.323  0.0619  0.0336 -0.5523
  105MOL   C11739845   4.702   7.173   7.288  0.1189 -0.3881  0.4516
  105MOL   O11839846   4.580   7.237   7.320 -0.3236  0.2236 -0.0208
  105MOL   C11939847   4.500   7.282   7.211  0.4988 -0.1176  0.3762
  105MOL   C12039848   4.388   7.375   7.264 -0.0542  0.2824 -0.1227
  105MOL   C12139849   4.286   7.401   7.159 -0.3650 -0.7281 -0.2071
  105MOL   C12239850   4.180   7.495   7.225 -0.7385 -0.3761  0.0281
  105MOL   H12339851   4.695   7.026   7.431  1.9213  2.4000 -0.2973
  105MOL   H12439852   4.808   6.984   7.317 -1.0397 -2.8631  0.1653
  105MOL   H12539853   4.732   7.175   7.183 -0.0923 -0.6143  0.3867
  105MOL   H12639854   4.442   7.204   7.163 -0.1312  0.9410 -0.6141
  105MOL   H12739855   4.561   7.333   7.136  0.8292 -1.7773 -0.4883
  105MOL   H12839856   4.436   7.467   7.297  0.1360  0.5727 -1.1943
  105MOL   H12939857   4.344   7.328   7.352  2.8919 -1.3220  0.5974
  105MOL   H13039858   4.333   7.459   7.079 -0.9871  2.3731  1.5739
  105MOL   H13139859   4.253   7.308   7.113 -0.1224 -0.1795 -1.5205
  105MOL   H13239860   4.103   7.540   7.162 -0.4822 -0.6894 -0.5126
  105MOL   H13339861   4.231   7.578   7.275  0.0558 -1.4304  0.9893
  105MOL   H13439862   4.121   7.442   7.299  0.0190 -0.4306  0.6042
  105MOL   C13539863   4.822   7.240   7.363 -0.6593 -0.2935  0.2405
  105MOL   C13639864   4.852   7.385   7.324  0.8491 -0.3196  0.6184
  105MOL   O13739865   4.958   7.433   7.405  0.2694 -0.0780  0.0437
  105MOL   C13839866   4.931   7.488   7.533 -0.0437 -0.0116 -0.3944
  105MOL   C13939867   5.059   7.576   7.569  0.2246 -0.4164 -0.0586
  105MOL   C14039868   5.033   7.635   7.707  0.0372 -0.1569 -0.2402
  105MOL   C14139869   5.164   7.689   7.764 -0.4158  0.0767 -0.6752
  105MOL   H14239870   4.912   7.178   7.357 -0.0791  0.2540  2.5200
  105MOL   H14339871   4.818   7.237   7.472  0.7167  1.6459  0.3689
  105MOL   H14439872   4.768   7.445   7.359  0.4258 -0.3435 -0.3477
  105MOL   H14539873   4.892   7.428   7.616 -1.0116 -1.2563 -1.7079
  105MOL   H14639874   4.846   7.556   7.529 -1.0687 -1.2852 -0.5515
  105MOL   H14739875   5.079   7.650   7.491  0.4277 -0.1329  0.2610
  105MOL   H14839876   5.138   7.501   7.569 -1.2898 -2.0190  0.6685
  105MOL   H14939877   4.961   7.716   7.696 -0.3248 -0.1201  2.1798
  105MOL   H15039878   4.990   7.558   7.771  0.3903  0.6415  0.9722
  105MOL   H15139879   5.153   7.711   0.068  1.3762 -1.3839 -0.1462
  105MOL   H15239880   5.243   7.613   7.757  1.5927  1.9859  0.6546
  105MOL   H15339881   5.198   7.784   7.721  1.3509 -0.4776 -0.5673
  105MOL   C15439882   4.881   7.404   7.172 -0.4766  0.7025 -0.2309
  105MOL   C15539883   4.900   7.548   7.132  0.4675 -0.8124  0.1087
  105MOL   O15639884   4.776   7.611   7.144  0.0199 -0.0596 -0.5012
  105MOL   C15739885   4.763   7.707   7.248  0.3032 -0.3771  0.8844
  105MOL   C15839886   4.615   7.732   7.265  0.6122  0.0603 -0.1261
  105MOL   C15939887   4.551   7.791   7.135  0.8097 -0.4119 -0.0093
  105MOL   C16039888   4.404   0.034   7.154  0.7509  0.2021  0.0217
  105MOL   H16139889   4.790   7.367   7.126 -0.6112  1.2043 -0.3716
  105MOL   H16239890   4.972   7.348   7.149 -1.8403 -0.5317 -2.7460
  105MOL   H16339891   4.974   7.601   7.192  2.5516 -1.6825 -1.6304
  105MOL   H16439892   4.817   7.700   7.343  0.5143  0.3740  0.8284
  105MOL   H16539893   4.812   7.797   7.210 -0.1434 -0.5421 -0.1150
  105MOL   H16639894   4.602   7.792   7.356  0.1540 -0.2945  0.0430
  105MOL   H16739895   4.576   7.634   7.291  2.5118 -1.4546 -2.8203
  105MOL   H16839896   4.614   0.068   7.093  0.0266 -1.1630 -2.7545
  105MOL   H16939897   4.555   7.713   7.058 -0.4205 -0.8667  0.3671
  105MOL   H17039898   4.337   0.035   7.069 -1.6161 -1.6305  1.8041
  105MOL   H17139899   4.356   7.771   7.227 -1.5396  0.3595 -1.3147
  105MOL   H17239900   4.400   0.137   7.190 -1.5070  0.1807 -0.1551
  105MOL   C17339901   4.939   7.556   6.982 -0.6357  0.6389 -0.1703
  105MOL   C17439902   4.998   7.688   6.923  0.4894  0.1026  0.2399
  105MOL   O17539903   5.118   7.700   7.001  0.7552 -0.1146  0.1630
  105MOL   C17639904   5.186   0.022   6.989  0.1380 -0.1085 -0.2061
  105MOL   C17739905   5.151   0.127   7.106  0.2924  0.7482 -0.3860
  105MOL   C17839906   5.211   0.091   7.246 -0.1944 -0.0392 -0.5475
  105MOL   C17939907   5.161   0.182   7.362 -0.5172 -1.0279  0.4689
  105MOL   H18039908   4.854   7.520   6.924  1.2626 -1.1943 -1.8820
  105MOL   H18139909   5.022   7.487   6.970 -0.9790  0.2454 -0.2704
  105MOL   H18239910   4.927   7.768   6.945 -1.1234 -1.3205  0.3202
  105MOL   H18339911   5.165   0.061   6.890 -0.0568  0.3847  0.0260
  105MOL   H18439912   5.292   7.801   6.990  0.1309 -0.1610  1.1292
  105MOL   H18539913   5.043   0.138   7.120  0.5213 -0.0077  2.3095
  105MOL   H18639914   5.188   0.225   7.077  0.0586  0.4335 -1.8123
  105MOL   H18739915   5.171   7.793   7.268  0.9569 -0.1203  1.2127
  105MOL   H18839916   5.320   0.084   7.243 -0.1033  0.4208  1.5740
  105MOL   H18939917   5.213   0.151   7.453 -0.7017 -0.1846  0.8656
  105MOL   H19039918   5.174   0.287   7.339 -0.1820 -1.2338 -0.2940
  105MOL   H19139919   5.057   0.173   7.392 -0.3911  0.7510  1.5035
  105MOL   C19239920   5.037   7.675   6.773 -0.5456 -0.1840 -0.3715
  105MOL   C19339921   4.922   7.634   6.683 -0.2171 -0.3560  0.1017
  105MOL   O19439922   4.806   7.722   6.697  0.4302 -0.4804  0.2002
  105MOL   C19539923   4.683   7.662   6.704 -0.0189  0.0176 -0.3214
  105MOL   C19639924   4.582   7.777   6.723  0.5228 -0.6248  0.2598
  105MOL   C19739925   4.436   7.735   6.757  0.1509  0.2962 -0.0567
  105MOL   C19839926   4.364   7.645   6.661  0.5577  0.1046 -0.8589
  105MOL   H19939927   5.115   7.598   6.772 -1.7231 -1.4398  1.9384
  105MOL   H20039928   5.093   7.756   6.726 -0.4021 -0.3088 -0.4181
  105MOL   H20139929   4.883   7.536   6.709 -1.9406  0.1023 -0.6570
  105MOL   H20239930   4.686   7.589   6.785  1.2081  1.5088  1.0074
  105MOL   H20339931   4.660   7.612   6.609 -0.9866 -2.0063  0.9451
  105MOL   H20439932   4.617   0.043   6.801 -1.7650 -0.4413  1.1770
  105MOL   H20539933   4.583   0.024   6.626  0.8329 -0.1523  0.5005
  105MOL   H20639934   4.385   0.025   6.788 -1.0759 -0.2700 -0.3669
  105MOL   H20739935   4.446   7.677   6.849  1.5866  1.0685  0.2943
  105MOL   H20839936   4.406   7.544   6.664  1.5355  0.5553  1.3913
  105MOL   H20939937   4.258   7.651   6.689  0.4372  1.8630 -1.6412
  105MOL   H21039938   4.371   7.673   6.556  2.7329  0.6778 -0.5778
  105MOL   C21139939   4.948   7.634   6.528 -0.2850 -0.2626 -0.3893
  105MOL   C21239940   5.034   7.524   6.466  0.0694  0.5763 -0.0371
  105MOL   O21339941   4.993   7.404   6.533  0.3018  0.2107  0.8829
  105MOL   C21439942   5.082   7.314   6.582 -0.3319  0.0890  0.4132
  105MOL   C21539943   5.039   7.258   6.713 -0.3210 -0.2088  1.5221
  105MOL   C21639944   4.897   7.186   6.707  0.2853  0.1571 -1.2633
  105MOL   C21739945   4.856   7.137   6.839  0.0117  0.1397  0.2179
  105MOL   H21839946   4.988   7.732   6.503  0.5735 -0.5690 -0.2393
  105MOL   H21939947   4.847   7.632   6.488 -2.2432 -0.0756  4.1737
  105MOL   H22039948   5.141   7.537   6.485  0.2937  0.0124 -0.8868
  105MOL   H22139949   5.100   7.234   6.511 -0.3253  1.8025 -1.5432
  105MOL   H22239950   5.181   7.359   6.596  0.2982 -1.8864  2.7620
  105MOL   H22339951   5.114   7.192   6.755  1.6277  2.6306  2.6105
  105MOL   H22439952   5.043   7.341   6.783  3.5834 -1.0521  2.3830
  105MOL   H22539953   4.919   7.103   6.640  2.1607 -0.1232 -0.3097
  105MOL   H22639954   4.822   7.253   6.663 -0.2128 -0.4953 -1.4242
  105MOL   H22739955   4.769   7.072   6.832 -0.6187  0.8442  1.3293
  105MOL   H22839956   4.841   7.216   6.913 -0.7641  0.6327 -0.4585
  105MOL   H22939957   4.935   7.077   6.884  0.6649  0.2771 -0.7433
  105MOL   C23039958   5.005   7.509   6.315 -0.4347  0.4345 -0.3124
  105MOL   C23139959   5.108   7.420   6.234  0.7579 -0.2411  0.1854
  105MOL   O23239960   5.052   7.371   6.114  0.7160 -0.0066 -0.0246
  105MOL   C23339961   4.975   7.249   6.127 -0.1943 -0.5835  0.6200
  105MOL   C23439962   4.937   7.190   5.991 -0.5454 -0.4219  0.2606
  105MOL   C23539963   5.058   7.191   5.898 -0.7218 -0.4481  0.2155
  105MOL   C23639964   5.022   7.131   5.762  0.1702 -0.0949  0.0712
  105MOL   H23739965   4.984   7.607   6.272  0.3390  0.0131 -1.6668
  105MOL   H23839966   4.915   7.450   6.298  0.5758 -1.5645  1.0425
  105MOL   H23939967   5.133   7.330   6.291 -1.7192 -1.5083 -0.6765
  105MOL   H24039968   5.046   7.178   6.170  0.4559 -1.0299 -1.1652
  105MOL   H24139969   4.900   7.253   6.205 -0.5227  0.8999  0.2598
  105MOL   H24239970   4.891   7.091   5.989 -0.7570 -0.3105 -0.6124
  105MOL   H24339971   4.860   7.241   5.933 -0.8370 -1.4794 -0.3013
  105MOL   H24439972   5.143   7.135   5.937  1.2439  0.3752 -2.7084
  105MOL   H24539973   5.106   7.287   5.878  1.7309 -1.7076 -0.1842
  105MOL   H24639974   5.011   7.022   5.762  3.7300 -0.5315  0.3990
  105MOL   H24739975   5.084   7.169   5.680  0.7338  0.4534  0.7521
  105MOL   H24839976   4.924   7.168   5.732 -0.8307 -0.8564  2.3413
  105MOL   C24939977   5.236   7.502   6.216  0.3442 -0.3936 -0.1865
  105MOL   C25039978   5.360   7.404   6.215 -0.1402  0.4809  0.4255
  105MOL   O25139979   5.476   7.473   6.256 -0.1069 -0.2165  0.1294
  105MOL   C25239980   5.556   7.404   6.353 -0.5649  0.3233 -0.2474
  105MOL   C25339981   5.673   7.483   6.406 -0.6034 -0.2162 -0.1042
  105MOL   C25439982   5.789   7.500   6.306  0.4861 -0.2332 -0.1987
  105MOL   C25539983   5.898   7.585   6.374 -0.1725  0.0173  0.3742
  105MOL   H25639984   5.242   7.569   6.302 -3.8921 -0.4407  0.2645
  105MOL   H25739985   5.230   7.567   6.128  2.0298 -0.8289 -0.6434
  105MOL   H25839986   5.340   7.319   6.280 -1.1362 -1.0806 -1.8212
  105MOL   H25939987   5.597   7.317   6.303  2.1025  2.2295 -1.5074
  105MOL   H26039988   5.492   7.392   6.441 -0.8686  1.3324 -0.3152
  105MOL   H26139989   5.631   7.578   6.440  1.2832  0.8158 -0.5861
  105MOL   H26239990   5.721   7.432   6.490  2.3614  1.1664 -0.8929
  105MOL   H26339991   5.839   7.405   6.288 -1.4010 -0.5209 -4.4947
  105MOL   H26439992   5.756   7.535   6.208 -0.3542 -1.9411 -0.5448
  105MOL   H26539993   5.918   7.547   6.474 -0.0457  0.8624  0.6767
  105MOL   H26639994   5.861   7.688   6.382  1.0696  0.5083 -0.0265
  105MOL   H26739995   5.991   7.596   6.318  0.9782 -2.1923  1.7930
  105MOL   C26839996   5.380   7.355   6.069 -0.1419  0.5129  0.2423
  105MOL   C26939997   5.463   7.221   6.054  0.1578 -0.0882  0.1661
  105MOL   O27039998   5.426   7.129   6.155  0.5126  0.6977  0.3531
  105MOL   C27139999   5.496   7.011   6.166 -0.5028  0.0886  0.4921
  105MOL   C27240000   5.448   6.927   6.278 -0.2447 -0.2621 -0.3407
  105MOL   C27340001   5.297   6.887   6.258  1.1604  0.7604  0.2526
  105MOL   C27440002   5.243   6.817   6.382 -0.8638  1.1156 -0.2060
  105MOL   H27540003   5.282   7.339   6.024 -0.9449  1.2033  1.7251
  105MOL   H27640004   5.419   7.444   6.020  0.7663 -0.1560 -0.2740
  105MOL   H27740005   5.566   7.253   6.072  0.3680 -0.6512 -0.0261
  105MOL   H27840006   5.490   6.944   6.080 -1.9890  1.0803 -0.2026
  105MOL   H27940007   5.603   7.023   6.183 -0.2898 -0.9153 -0.1124
  105MOL   H28040008   5.514   6.840   6.284 -1.3076 -1.2653 -2.5901
  105MOL   H28140009   5.457   6.991   6.366 -0.0571 -1.1641  0.3108
  105MOL   H28240010   5.295   6.824   6.169 -2.3095  1.9891 -0.5832
  105MOL   H28340011   5.244   6.981   6.245 -2.5141 -1.1745  0.8063
  105MOL   H28440012   5.300   6.725   6.399 -1.0712  1.0343  0.0405
  105MOL   H28540013   5.141   6.785   6.365 -0.7963  0.5551  0.4015
  105MOL   H28640014   5.251   6.883   6.469  0.3784 -0.2509  0.7470
  105MOL   C28740015   5.452   7.168   5.909 -0.6745  0.3097  0.6059
  105MOL   C28840016   5.591   7.153   5.839 -0.0391 -0.0948 -0.6682
  105MOL   O28940017   5.672   7.061   5.912  0.2082  0.3938 -0.6420
  105MOL   C29040018   5.675   6.929   5.864  0.2946  0.1446  0.3285
  105MOL   C29140019   5.738   6.834   5.968 -0.5989 -0.1044 -0.0354
  105MOL   C29240020   5.862   6.893   6.044  0.3499 -0.2298 -0.0505
  105MOL   C29340021   5.939   6.782   6.107 -0.5984 -0.3460 -0.4260
  105MOL   H29440022   5.390   7.234   5.848 -0.7726  0.5004  0.9121
  105MOL   H29540023   5.408   7.068   5.909  1.3983 -0.6805 -3.5914
  105MOL   H29640024   5.562   7.111   5.742 -3.2050 -0.8122  0.5246
  105MOL   H29740025   5.571   6.901   5.847  0.8554 -0.9672 -1.4404
  105MOL   H29840026   5.733   6.917   5.772  1.4922 -0.4176  1.1495
  105MOL   H29940027   5.763   6.746   5.908 -2.1542  0.4979 -1.6268
  105MOL   H30040028   5.665   6.800   6.041  0.8113 -2.6469  0.2591
  105MOL   H30140029   5.834   6.958   6.127  0.1629 -2.2804  1.5213
  105MOL   H30240030   5.923   6.946   5.971 -0.2230 -1.1693 -1.2189
  105MOL   H30340031   6.026   6.836   6.144 -2.4448  2.7604 -0.4431
  105MOL   H30440032   5.889   6.740   6.194  0.4286  0.1026  0.4009
  105MOL   H30540033   5.975   6.713   6.031  1.0312  0.7656 -0.6950
  105MOL   C30640034   5.682   7.283   5.821  0.1438 -0.0234  0.7958
  105MOL   C30740035   5.615   7.397   5.735  1.3188  0.5196  0.2746
  105MOL   O30840036   5.616   7.370   5.600 -0.1731  0.0818 -0.5590
  105MOL   C30940037   5.741   7.355   5.535 -1.4288 -0.1333 -0.1569
  105MOL   C31040038   5.705   7.308   5.387 -0.0984 -0.3728 -0.6421
  105MOL   C31140039   5.816   7.330   5.279  0.5118  0.7731 -0.1903
  105MOL   C31240040   5.956   7.280   5.315  0.6694 -0.1351 -0.8658
  105MOL   H31340041   5.698   7.327   5.919  1.4137  1.9954 -0.2911
  105MOL   H31440042   5.785   7.258   5.796 -0.3532 -0.6176 -0.7330
  105MOL   H31540043   5.511   7.400   5.766  1.1104  1.6258 -0.5328
  105MOL   H31640044   5.814   7.287   5.579 -0.1370  1.6771  0.5666
  105MOL   H31740045   5.797   7.447   5.517 -0.5076 -0.9571 -1.5555
  105MOL   H31840046   5.613   7.358   5.356 -0.2080 -0.0552  0.1847
  105MOL   H31940047   5.688   7.201   5.404 -0.6655 -0.1794  0.0307
  105MOL   H32040048   5.787   7.290   5.182 -1.0190 -0.0648  0.5911
  105MOL   H32140049   5.826   7.438   5.264 -1.0950  0.7331 -1.8009
  105MOL   H32240050   6.027   7.292   5.233  0.6900  1.8621 -0.5817
  105MOL   H32340051   5.948   7.172   5.321  1.2153 -0.0262  2.3059
  105MOL   H32440052   5.991   7.326   5.407  0.9674 -1.3155 -0.3884
  105MOL   C32540053   5.666   7.535   5.780  0.4556 -0.0396 -0.2742
  105MOL   C32640054   5.584   7.651   5.731  0.8172  0.2079 -0.3857
  105MOL   O32740055   5.447   7.642   5.788 -0.0962  0.3418  0.1848
  105MOL   C32840056   5.348   7.713   5.720 -0.3738  0.1093 -0.0709
  105MOL   C32940057   5.215   7.707   5.791  0.6222  0.8422  0.5740
  105MOL   C33040058   5.146   7.569   5.797 -0.5137 -0.3911 -0.0575
  105MOL   C33140059   5.005   7.576   5.869  0.4514 -0.4357  0.1940
  105MOL   H33240060   5.762   7.549   5.730 -0.1159  1.0442 -1.1115
  105MOL   H33340061   5.674   7.545   5.888  0.2555 -1.9385 -0.0762
  105MOL   H33440062   5.561   7.649   5.625 -0.1496  0.6349 -0.1888
  105MOL   H33540063   5.345   7.681   5.615 -0.4609  1.1394 -0.3861
  105MOL   H33640064   5.391   0.011   5.719  0.8277 -0.3693  1.4754
  105MOL   H33740065   5.224   7.740   5.895 -0.9561  0.3121  0.8915
  105MOL   H33840066   5.147   7.774   5.739 -0.6134 -0.8324 -0.0037
  105MOL   H33940067   5.216   7.508   5.853  0.1028 -1.6804 -2.1425
  105MOL   H34040068   5.135   7.523   5.698  0.2474 -1.7276  0.4727
  105MOL   H34140069   4.978   7.471   5.882 -0.2226 -0.2887 -0.0050
  105MOL   H34240070   4.930   7.628   5.810 -1.1912  0.8263  3.2619
  105MOL   H34340071   4.993   7.630   5.963 -2.6198 -0.5381 -0.0771
  105MOL   C34440072   5.657   7.778   5.782  0.0924 -0.5231 -0.2094
  105MOL   C34540073   5.784   0.005   5.700 -0.3324 -0.4922  0.8739
  105MOL   O34640074   5.824   0.137   5.737 -0.0909  0.7626  1.0251
  105MOL   C34740075   5.884   0.135   5.867  0.2090  1.1629 -0.5569
  105MOL   C34840076   5.938   0.277   5.882 -0.0854  0.5313  1.0504
  105MOL   C34940077   6.068   0.312   5.808  0.1939 -0.6632 -0.1163
  105MOL   C35040078   6.103   0.461   5.807 -0.4872  0.1029  0.6039
  105MOL   H35140079   5.583   0.056   5.768  1.7219  0.4478 -3.7710
  105MOL   H35240080   5.678   7.768   5.888 -0.3053  0.9966  0.0263
  105MOL   H35340081   5.858   7.731   5.726  3.5817  2.8373  0.0138
  105MOL   H35440082   5.961   0.059   5.878 -0.0133  1.1313  0.9557
  105MOL   H35540083   5.803   0.125   5.940  2.2788  0.5436  1.7018
  105MOL   H35640084   5.958   0.286   5.989  0.9047 -0.9618  1.0050
  105MOL   H35740085   5.863   0.349   5.848  1.1775  1.1235 -0.5490
  105MOL   H35840086   6.146   0.259   5.863 -0.2156  0.0095  1.1112
  105MOL   H35940087   6.072   0.264   5.710  0.6721 -1.8715  0.4857
  105MOL   H36040088   6.105   0.493   5.911  1.9219 -0.7675  0.8680
  105MOL   H36140089   6.029   0.510   5.745  1.2295  0.6587 -1.0590
  105MOL   H36240090   6.202   0.480   5.764 -1.0355  1.9981  0.1255
  105MOL   C36340091   5.773   0.013   5.545 -0.3412  0.4253 -0.3450
  105MOL   C36440092   5.664   0.113   5.505  0.0660 -0.1515 -0.3295
  105MOL   O36540093   5.660   0.101   5.372 -0.0241  0.1675 -0.2761
  105MOL   C36640094   5.733   0.196   5.299  0.1478  0.3678  0.5646
  105MOL   C36740095   5.754   0.121   5.161 -0.1615 -0.0472 -0.1981
  105MOL   C36840096   5.809   0.203   5.038 -0.1547  0.0703  0.2460
  105MOL   C36940097   5.962   0.233   5.033  0.7358 -0.2065  0.2034
  105MOL   H37040098   5.750   7.716   5.505  0.2313 -0.5425  1.6695
  105MOL   H37140099   5.868   0.045   5.500  0.3868 -0.3377  0.6342
  105MOL   H37240100   5.688   0.218   5.525  1.2375 -0.4309 -0.1992
  105MOL   H37340101   5.838   0.209   5.325 -0.1880 -0.0799  2.2540
  105MOL   H37440102   5.682   0.290   5.277 -0.2065 -0.0587 -0.4396
  105MOL   H37540103   5.656   0.083   5.132 -0.5328  1.4507 -0.9201
  105MOL   H37640104   5.821   0.035   5.165 -0.2747 -0.0861  0.9940
  105MOL   H37740105   5.758   0.296   5.011 -2.9383 -1.3286  0.5195
  105MOL   H37840106   5.774   0.140   4.956  0.5411 -0.5396  0.4139
  105MOL   H37940107   5.975   0.311   5.108  0.6190 -1.0783  1.1377
  105MOL   H38040108   6.015   0.142   5.061  0.8044  0.4822  2.3765
  105MOL   H38140109   5.981   0.269   4.932 -1.9460  1.5609  0.2689
  105MOL   H38240110   5.561   0.095   5.536 -0.1177 -1.9768 -1.8924
  106MOL     C140111   7.396   3.246   0.650 -0.2018 -0.3102  0.4291
  106MOL     C240112   7.452   3.135   0.731 -0.5248  0.5214  0.4184
  106MOL     O340113   7.521   3.059   0.627  0.1946 -0.1387 -0.2461
  106MOL     C440114   7.515   2.920   0.630 -0.5837  0.7848 -0.3201
  106MOL     C540115   7.578   2.867   0.506 -0.3630 -0.1120 -0.1425
  106MOL     C640116   7.474   2.854   0.389 -0.7903  1.4355  0.0596
  106MOL     C740117   7.541   2.796   0.263 -0.1665 -0.9040 -0.6321
  106MOL     H840118   7.472   3.309   0.605 -0.2748 -0.2395  0.4051
  106MOL     H940119   7.362   3.214   0.551 -0.5813  0.9440  0.1471
  106MOL    H1040120   7.365   3.085   0.773 -0.5083  1.3015  1.3989
  106MOL    H1140121   7.589   2.899   0.708 -0.1572 -0.7913 -1.1112
  106MOL    H1240122   7.418   2.879   0.658 -0.1300  0.0091  0.1429
  106MOL    H1340123   7.622   2.768   0.522 -0.1800  0.0913  0.5973
  106MOL    H1440124   7.664   2.932   0.489  0.8784 -1.4928  0.6918
  106MOL    H1540125   7.451   2.958   0.364 -0.7307  1.4058 -0.1210
  106MOL    H1640126   7.378   2.811   0.417 -0.3617  0.9236  0.7328
  106MOL    H1740127   7.465   2.782   0.187 -3.7319  0.0445  2.5634
  106MOL    H1840128   7.578   2.695   0.277 -0.9043 -0.9993  0.7421
  106MOL    H1940129   7.625   2.864   0.246 -0.0650 -0.9896 -0.4758
  106MOL    H2040130   7.327   3.316   0.698 -0.1206  0.5172 -0.6429
  106MOL    C2140131   7.552   3.172   0.847 -0.1662 -0.2445  0.3195
  106MOL    C2240132   7.489   3.260   0.954  0.1520 -0.1601 -0.1441
  106MOL    O2340133   7.419   3.175   1.045 -0.2002  0.1647 -0.3004
  106MOL    C2440134   7.333   3.241   1.132 -0.0431 -0.0599  1.0109
  106MOL    C2540135   7.339   3.162   1.267 -0.3983 -0.7226 -0.5573
  106MOL    C2640136   7.233   3.189   1.372  0.4546  0.0233 -0.5653
  106MOL    C2740137   7.089   3.189   1.325  0.1897  0.5033 -0.1279
  106MOL    H2840138   7.632   3.231   0.804  0.4968  0.4558  2.4415
  106MOL    H2940139   7.601   3.087   0.894 -0.1734 -2.5551 -3.6005
  106MOL    H3040140   7.421   3.329   0.906  1.5166  1.6105  0.4201
  106MOL    H3140141   7.233   3.226   1.091  1.5497  0.7734 -3.3261
  106MOL    H3240142   7.344   3.347   1.156 -1.6968 -0.1507  2.2754
  106MOL    H3340143   7.346   3.056   1.242  0.7319 -0.5784 -0.8930
  106MOL    H3440144   7.432   3.198   1.310 -0.6687 -0.6826 -0.0030
  106MOL    H3540145   7.242   3.102   1.437 -3.5033  1.4661  2.0594
  106MOL    H3640146   7.253   3.283   1.424 -1.8893 -1.0194  2.3645
  106MOL    H3740147   7.073   3.259   1.243  3.9208 -0.1597 -1.5462
  106MOL    H3840148   7.067   3.091   1.284  0.2579  0.8408 -0.9740
  106MOL    H3940149   7.018   3.199   1.407 -3.0210  2.4313 -3.0176
  106MOL    C4040150   7.605   3.325   1.041  0.1661  0.1162 -0.2717
  106MOL    C4140151   7.696   3.429   0.967 -0.1911  0.3760 -0.1770
  106MOL    O4240152   7.797   3.463   1.062 -0.1697  0.6325  0.1112
  106MOL    C4340153   0.128   3.432   1.028  0.0230  0.1483  0.2078
  106MOL    C4440154   0.219   3.478   1.146 -0.5880 -0.5434 -0.7076
  106MOL    C4540155   0.228   3.629   1.170 -0.0886 -0.3134  0.2579
  106MOL    C4640156   0.332   3.685   1.272 -0.5263  0.0948  0.2124
  106MOL    H4740157   7.667   3.246   1.082  0.1295  0.3388  0.2167
  106MOL    H4840158   7.563   3.369   1.132  2.3294 -2.0134  1.8288
  106MOL    H4940159   7.741   3.389   0.876  0.5791 -1.4975  0.9778
  106MOL    H5040160   0.160   3.476   0.933 -0.8369  1.5335  0.5444
  106MOL    H5140161   0.127   3.324   1.016  0.9168 -0.0870  2.0311
  106MOL    H5240162   0.320   3.443   1.129 -1.1358 -1.9248 -1.2261
  106MOL    H5340163   0.179   3.433   1.238  1.2927 -1.7579 -0.4540
  106MOL    H5440164   0.132   3.660   1.210 -1.0102 -1.5830 -0.9331
  106MOL    H5540165   0.244   3.689   1.080  0.3929  0.6027  0.9415
  106MOL    H5640166   0.313   3.783   1.316  0.5064  1.0097 -1.3539
  106MOL    H5740167   0.350   3.610   1.349 -0.1051 -2.3834 -2.2276
  106MOL    H5840168   0.430   3.691   1.226  0.6130  0.7964  2.6193
  106MOL    C5940169   7.617   3.558   0.947 -0.0881  0.4349 -0.6276
  106MOL    C6040170   7.667   3.666   0.844  0.7509  0.1697  0.3996
  106MOL    O6140171   7.663   3.600   0.725  0.2307 -0.4370 -0.1846
  106MOL    C6240172   7.761   3.619   0.631 -0.3563  0.6449  0.1624
  106MOL    C6340173   7.737   3.517   0.511 -0.5866  0.2462  0.4460
  106MOL    C6440174   7.756   3.366   0.541  0.5218  0.0021 -0.0233
  106MOL    C6540175   7.710   3.277   0.420  0.3900 -0.1469  0.0500
  106MOL    H6640176   7.514   3.529   0.926  0.2758 -0.8420 -0.7049
  106MOL    H6740177   7.611   3.613   1.040  1.4840  1.3360 -1.0273
  106MOL    H6840178   7.770   3.699   0.860  0.6617  0.7679 -0.2446
  106MOL    H6940179   0.061   3.607   0.668 -1.0497 -2.9011  1.1600
  106MOL    H7040180   7.745   3.723   0.605 -2.4829  0.2435 -0.1826
  106MOL    H7140181   7.641   3.536   0.461  0.7837 -0.5405 -2.5857
  106MOL    H7240182   0.011   3.547   0.438 -0.2005 -1.2937  0.2155
  106MOL    H7340183   0.059   3.352   0.568  0.9428  0.4270 -1.3944
  106MOL    H7440184   7.702   3.337   0.631 -2.3496  0.6094 -1.4728
  106MOL    H7540185   7.774   3.285   0.332  0.0596 -0.2001 -0.1949
  106MOL    H7640186   7.722   3.171   0.446  2.6479 -0.8779 -3.6133
  106MOL    H7740187   7.605   3.302   0.410  0.7695  1.9663  0.9646
  106MOL    C7840188   7.568   3.781   0.838 -0.3245 -0.2590  0.1653
  106MOL    C7940189   7.615   3.901   0.752  0.0196 -0.2467 -0.2866
  106MOL    O8040190   7.746   3.937   0.796  0.1269 -0.3514  0.2893
  106MOL    C8140191   0.020   4.010   0.712 -0.5918 -0.7425 -0.3601
  106MOL    C8240192   0.152   4.046   0.776 -0.2594 -0.0835  0.3943
  106MOL    C8340193   0.230   3.930   0.848 -0.3732 -0.6330 -0.3486
  106MOL    C8440194   0.334   3.986   0.943  0.3179  0.2730  0.5053
  106MOL    H8540195   7.545   3.816   0.939 -1.2264 -1.1964  0.2939
  106MOL    H8640196   7.478   3.738   0.795  0.1278 -1.4077  0.3386
  106MOL    H8740197   7.616   3.875   0.646 -1.9788  0.4896 -0.5120
  106MOL    H8840198   7.778   4.099   0.667  1.6581  1.0478  0.8832
  106MOL    H8940199   0.052   3.957   0.622 -1.9948  0.8763 -1.8402
  106MOL    H9040200   0.208   4.104   0.702 -1.0605  1.7632  1.2043
  106MOL    H9140201   0.134   4.128   0.845 -0.3986 -0.1721  0.4637
  106MOL    H9240202   0.284   3.865   0.779 -1.7711  0.3802 -2.4530
  106MOL    H9340203   0.164   3.866   0.907  1.8484 -1.8546  0.8862
  106MOL    H9440204   0.385   3.904   0.993 -1.1177 -1.8525 -1.3945
  106MOL    H9540205   0.411   4.030   0.880  0.9099  0.0114  1.0501
  106MOL    H9640206   0.279   4.051   1.011 -2.8405 -1.2238 -0.5136
  106MOL    C9740207   7.522   4.022   0.771  0.2024 -0.4877 -0.4007
  106MOL    C9840208   7.372   4.011   0.736  0.2040 -0.0445  0.7428
  106MOL    O9940209   7.302   4.127   0.770  0.0508  0.3325  0.2253
  106MOL   C10040210   7.238   4.138   0.898  0.2752  0.0498  0.7443
  106MOL   C10140211   7.135   4.244   0.904 -0.9732  0.3151  0.3339
  106MOL   C10240212   7.001   4.204   0.842 -0.6384  1.1226 -0.5997
  106MOL   C10340213   6.898   4.314   0.829 -0.1190  0.0159 -0.6254
  106MOL   H10440214   7.563   4.105   0.712  3.3271 -2.1846 -0.7217
  106MOL   H10540215   7.538   4.066   0.869  1.0442  0.2467 -0.8498
  106MOL   H10640216   7.325   3.933   0.795  0.6995 -0.7924  0.1587
  106MOL   H10740217   7.318   4.159   0.970  1.7520 -0.9157 -0.5708
  106MOL   H10840218   7.191   4.045   0.930 -2.7864  1.1398 -0.4191
  106MOL   H10940219   7.169   4.338   0.860  1.3415  0.1918  1.7686
  106MOL   H11040220   7.127   4.273   1.008 -0.5978  0.1916  0.3966
  106MOL   H11140221   6.962   4.117   0.894  0.2509  1.5950  0.8827
  106MOL   H11240222   7.022   4.166   0.741 -1.5637  0.4662 -0.5552
  106MOL   H11340223   6.876   4.368   0.921 -0.5662 -1.4191  0.1195
  106MOL   H11440224   6.936   4.392   0.762 -2.4983  0.0869 -1.9374
  106MOL   H11540225   6.805   4.265   0.799 -1.1667  1.2705  0.5400
  106MOL   C11640226   7.348   3.968   0.585  0.1393  0.1346 -0.2309
  106MOL   C11740227   7.218   3.893   0.566 -0.2038  0.0697 -0.4411
  106MOL   O11840228   7.211   3.903   0.419 -0.0451 -0.1415 -0.6012
  106MOL   C11940229   7.082   3.870   0.362 -0.7686  0.4676 -0.0139
  106MOL   C12040230   7.096   3.885   0.211 -0.7142  0.1428 -0.1235
  106MOL   C12140231   6.955   3.856   0.140  1.4475 -0.0794  0.0924
  106MOL   C12240232   6.963   3.847   7.789  0.1684  0.3833 -0.0798
  106MOL   H12340233   7.339   4.065   0.535 -1.8965 -0.3871 -0.9371
  106MOL   H12440234   7.422   3.901   0.541  0.2640 -0.8289  1.4033
  106MOL   H12540235   7.136   3.949   0.609  0.2547  1.2051 -1.0150
  106MOL   H12640236   7.003   3.932   0.406 -0.4717  1.1611 -0.4392
  106MOL   H12740237   7.058   3.769   0.393  0.8395  0.2088  0.4275
  106MOL   H12840238   7.178   3.823   0.176 -1.3982  0.3986 -2.2076
  106MOL   H12940239   7.127   3.987   0.194 -0.3468  0.0247 -0.1564
  106MOL   H13040240   6.902   3.772   0.184  1.0328  0.6077  0.9065
  106MOL   H13140241   6.884   3.938   0.155  0.2456 -0.7979 -1.4907
  106MOL   H13240242   6.988   3.936   7.731 -0.0167 -1.0185 -2.3777
  106MOL   H13340243   6.868   3.821   7.744 -0.3150  1.7225  0.1543
  106MOL   H13440244   7.029   3.765   7.760  0.7382  0.5652  0.6791
  106MOL   C13540245   7.232   3.747   0.608  0.0308  0.5064 -0.4984
  106MOL   C13640246   7.144   3.713   0.725  0.1341  0.1478 -0.0029
  106MOL   O13740247   7.009   3.747   0.699 -0.3546  0.6893  0.3124
  106MOL   C13840248   6.956   3.837   0.800  0.2133  0.5087  0.4274
  106MOL   C13940249   6.808   3.875   0.762  0.6723  0.7625  0.5597
  106MOL   C14040250   6.772   3.877   0.611  0.0144 -0.0773 -0.7065
  106MOL   C14140251   6.623   3.877   0.587 -0.4165 -0.5921 -0.3934
  106MOL   H14240252   7.335   3.723   0.635 -0.3102 -0.8732 -0.3842
  106MOL   H14340253   7.202   3.677   0.529  0.3817  0.0248 -0.2100
  106MOL   H14440254   7.185   3.764   0.812  0.9250 -2.1763  1.0076
  106MOL   H14540255   7.014   3.928   0.786  0.7672  0.2969  1.3435
  106MOL   H14640256   6.979   3.800   0.900 -2.4947 -0.2753  0.7903
  106MOL   H14740257   6.778   3.964   0.818  0.6841  0.9110  0.3295
  106MOL   H14840258   6.736   3.805   0.804 -0.6546  1.2224 -0.8826
  106MOL   H14940259   6.825   3.958   0.560 -1.9922  1.3155 -0.6576
  106MOL   H15040260   6.816   3.788   0.567 -2.1492 -0.7687 -1.5436
  106MOL   H15140261   6.573   3.964   0.631 -0.3406 -1.1236  0.7362
  106MOL   H15240262   6.607   3.892   0.480  1.3153  1.3976 -0.4185
  106MOL   H15340263   6.575   3.789   0.629  0.4963 -1.7189 -1.6912
  106MOL   C15440264   7.145   3.565   0.757 -0.2239  0.3894 -0.5379
  106MOL   C15540265   7.079   3.526   0.891 -0.8863 -0.2966 -0.2514
  106MOL   O15640266   7.181   3.565   0.989  0.1615  0.1972 -0.1571
  106MOL   C15740267   7.135   3.575   1.122  0.3286  0.7273  0.1634
  106MOL   C15840268   7.236   3.669   1.189 -0.2009  0.9276 -0.0216
  106MOL   C15940269   7.245   3.802   1.117 -0.5691 -0.5823 -0.4105
  106MOL   C16040270   7.321   3.894   1.205 -0.5563  0.1735 -0.1465
  106MOL   H16140271   7.247   3.529   0.745 -0.3651 -0.0605 -0.3947
  106MOL   H16240272   7.097   3.522   0.668 -0.9323 -0.4911  0.2584
  106MOL   H16340273   6.994   3.594   0.893  0.5186  1.4748 -0.1284
  106MOL   H16440274   7.030   3.604   1.123 -0.8486 -3.2358 -0.4760
  106MOL   H16540275   7.148   3.480   1.172  1.2740  0.6144 -0.2901
  106MOL   H16640276   7.336   3.626   1.187 -0.7800 -0.4555 -2.5757
  106MOL   H16740277   7.207   3.668   1.294 -1.1165 -0.1971 -0.2671
  106MOL   H16840278   7.292   3.805   1.018  0.2591  0.1299 -0.0063
  106MOL   H16940279   7.146   3.848   1.108 -0.7439 -1.1935 -1.7450
  106MOL   H17040280   7.352   3.987   1.157  0.3186 -0.2529 -0.4234
  106MOL   H17140281   7.258   3.932   1.286 -1.0221  4.5242 -2.4052
  106MOL   H17240282   7.413   3.849   1.243 -0.7259 -0.2738 -0.2619
  106MOL   C17340283   7.058   3.378   0.902 -0.3063 -0.5014  0.4659
  106MOL   C17440284   6.968   3.315   0.792  0.0496 -0.4175  0.0335
  106MOL   O17540285   7.042   3.212   0.736  0.4995  0.1374  0.1745
  106MOL   C17640286   7.032   3.188   0.593  0.5096 -0.1311 -0.3673
  106MOL   C17740287   7.028   3.030   0.585  0.2566 -0.3747  0.1291
  106MOL   C17840288   7.043   2.962   0.447 -0.1528 -1.4004  0.3298
  106MOL   C17940289   7.042   2.808   0.455 -0.3223 -0.3749  0.6324
  106MOL   H18040290   7.025   3.354   1.003  0.3537  0.7094  0.9865
  106MOL   H18140291   7.156   3.336   0.880  0.0578  0.0150  1.0537
  106MOL   H18240292   6.926   3.374   0.711 -0.4674 -0.8210  0.0105
  106MOL   H18340293   7.120   3.233   0.548  1.2966  0.5522  1.7979
  106MOL   H18440294   6.939   3.223   0.548 -0.7321 -1.9944  0.6520
  106MOL   H18540295   6.933   2.997   0.628 -0.1139  0.8597  0.2515
  106MOL   H18640296   7.112   2.987   0.641  0.1051 -0.7456  0.0784
  106MOL   H18740297   6.969   2.994   0.374  2.1490  1.1180 -1.0008
  106MOL   H18840298   7.137   3.000   0.406 -1.7015  1.5900 -0.5490
  106MOL   H18940299   7.088   2.774   0.548  0.7148  0.5831  0.4723
  106MOL   H19040300   6.941   2.774   0.433  0.0934 -0.8341 -0.6082
  106MOL   H19140301   7.106   2.766   0.379  1.1106 -0.0965  1.6642
  106MOL   C19240302   6.841   3.256   0.857  0.2224  0.1614 -0.4788
  106MOL   C19340303   6.731   3.346   0.926 -0.4924  0.1482  0.4979
  106MOL   O19440304   6.785   3.411   1.046 -0.1072 -0.5652  0.3988
  106MOL   C19540305   6.779   3.343   1.171  0.2127 -0.5947  0.3252
  106MOL   C19640306   6.842   3.422   1.284 -0.4888  0.3191 -0.7204
  106MOL   C19740307   6.774   3.556   1.310  0.0204 -0.2432 -0.5096
  106MOL   C19840308   6.803   3.615   1.443 -0.0931  0.3350 -0.1233
  106MOL   H19940309   6.880   3.179   0.923  1.2877  0.3227 -0.9019
  106MOL   H20040310   6.788   3.202   0.779 -0.3574  1.1174 -0.7497
  106MOL   H20140311   6.653   3.274   0.949 -0.8377 -0.0522 -1.1860
  106MOL   H20240312   6.828   3.245   1.166  0.1628 -0.6469  0.9115
  106MOL   H20340313   6.672   3.325   1.181  0.2199 -2.3655 -2.1702
  106MOL   H20440314   6.829   3.360   1.373 -2.5984 -0.5015 -1.5697
  106MOL   H20540315   6.950   3.438   1.279 -0.5528  0.7214 -0.7881
  106MOL   H20640316   6.666   3.560   1.301 -0.0645  2.1763  0.9964
  106MOL   H20740317   6.810   3.626   1.234 -0.0981  0.6979  0.2850
  106MOL   H20840318   6.766   3.556   1.527  2.5355 -1.7082 -0.3091
  106MOL   H20940319   6.912   3.614   1.452 -0.0726  0.5786 -0.3229
  106MOL   H21040320   6.749   3.709   1.452 -2.2527 -0.7878 -1.1409
  106MOL   C21140321   6.678   3.453   0.827  0.4141  0.2429  0.0846
  106MOL   C21240322   6.544   3.511   0.869  0.0632  0.7833 -0.9145
  106MOL   O21340323   6.439   3.418   0.901 -0.3349  0.1539 -0.3199
  106MOL   C21440324   6.379   3.350   0.794  0.4178 -0.2320  0.1372
  106MOL   C21540325   6.266   3.277   0.877 -0.6322 -0.1991  0.2778
  106MOL   C21640326   6.176   3.188   0.782 -0.3202  0.0638  0.2446
  106MOL   C21740327   6.062   3.108   0.837  0.6361 -0.0112 -1.0040
  106MOL   H21840328   6.663   3.408   0.729  0.4907  2.5170 -0.9973
  106MOL   H21940329   6.756   3.526   0.806 -0.3369  1.0056 -0.0924
  106MOL   H22040330   6.512   3.569   0.783 -1.8513 -0.2793 -0.9358
  106MOL   H22140331   6.338   3.431   0.734 -1.4344 -0.1565  1.4609
  106MOL   H22240332   6.456   3.289   0.746  0.1500 -2.0334  1.9500
  106MOL   H22340333   6.299   3.228   0.968 -1.9716 -0.5866  0.5756
  106MOL   H22440334   6.205   3.361   0.911 -1.1238  0.7285 -2.7776
  106MOL   H22540335   6.250   3.122   0.737 -0.0503  2.4592 -3.0847
  106MOL   H22640336   6.139   3.248   0.698  1.8312 -0.8029 -1.3594
  106MOL   H22740337   6.099   3.030   0.903  0.1426 -0.3456 -1.1227
  106MOL   H22840338   6.001   3.064   0.759 -0.4683  1.0627 -0.7682
  106MOL   H22940339   5.987   3.173   0.884  1.4161 -0.4581  0.9173
  106MOL   C23040340   6.554   3.604   0.988  0.3928  0.1702  1.1865
  106MOL   C23140341   6.435   3.704   1.008 -0.2959  0.7065  1.2238
  106MOL   O23240342   6.455   3.763   1.139 -0.0850 -0.3904  0.1058
  106MOL   C23340343   6.366   3.732   1.246  0.0620  0.7886 -0.0709
  106MOL   C23440344   6.383   3.835   1.364 -0.3223  0.1059 -0.2007
  106MOL   C23540345   6.514   3.812   1.443  0.0421  0.0113  0.8128
  106MOL   C23640346   6.531   3.907   1.565 -0.2689  0.1315 -0.4223
  106MOL   H23740347   6.645   3.665   0.981  0.2156  0.2684 -0.6862
  106MOL   H23840348   6.552   3.535   1.072 -2.6660  0.1517  1.1488
  106MOL   H23940349   6.349   3.637   1.013 -0.7424  1.0973 -0.7687
  106MOL   H24040350   6.266   3.741   1.203 -0.0376 -0.7831 -0.1840
  106MOL   H24140351   6.383   3.630   1.281  0.6117  0.7424 -0.4651
  106MOL   H24240352   6.391   3.931   1.313  2.8073  1.0100  1.8608
  106MOL   H24340353   6.297   3.843   1.431 -0.4852 -1.1849 -0.2402
  106MOL   H24440354   6.604   3.830   1.384  1.8048 -1.0574  3.0999
  106MOL   H24540355   6.513   3.707   1.473 -0.8102  0.0007  0.7666
  106MOL   H24640356   6.601   3.861   1.634 -0.7338  1.0415  0.6684
  106MOL   H24740357   6.438   3.919   1.621 -0.2255  0.4802 -0.4208
  106MOL   H24840358   6.570   4.001   1.525 -1.6520  1.2524  0.8160
  106MOL   C24940359   6.428   3.818   0.903  0.6083  0.0631  0.1215
  106MOL   C25040360   6.295   3.905   0.917 -0.0211  0.3296  0.0580
  106MOL   O25140361   6.198   3.822   0.852 -0.3221 -0.0794  0.0589
  106MOL   C25240362   6.092   3.777   0.925  0.3375  0.1112  0.6370
  106MOL   C25340363   6.013   3.678   0.841 -0.6295  0.3898  0.1141
  106MOL   C25440364   5.949   3.742   0.721  0.4905  0.7739  0.6007
  106MOL   C25540365   5.837   3.659   0.651  0.1575 -0.9157  0.0727
  106MOL   H25640366   6.413   3.791   0.799  2.3181  1.6990 -0.5790
  106MOL   H25740367   6.518   3.876   0.924  0.6114  0.2458 -0.4008
  106MOL   H25840368   6.269   3.908   1.022  0.4427 -1.1938  0.2416
  106MOL   H25940369   6.021   3.855   0.954 -0.1354  0.2280 -0.7687
  106MOL   H26040370   6.130   3.719   1.008  1.6674 -0.3610 -0.2896
  106MOL   H26140371   6.071   3.590   0.811  1.8963  2.2590 -0.6375
  106MOL   H26240372   5.937   3.649   0.914 -2.0630  1.4935 -0.9137
  106MOL   H26340373   5.910   3.842   0.740 -0.8499  0.0123  2.0142
  106MOL   H26440374   6.032   3.745   0.651 -0.4976 -2.5380 -0.8199
  106MOL   H26540375   5.875   3.562   0.619  2.0613 -0.0979 -0.1837
  106MOL   H26640376   5.787   3.701   0.564 -0.0673  0.2097  0.7326
  106MOL   H26740377   5.752   3.646   0.719  1.8829  1.1373  2.6791
  106MOL   C26840378   6.303   4.037   0.841 -0.2917  0.3818 -0.1352
  106MOL   C26940379   6.401   4.145   0.903  0.2164 -0.4430 -0.1072
  106MOL   O27040380   6.383   4.256   0.817  0.1138 -0.0083 -0.1019
  106MOL   C27140381   6.500   4.292   0.750 -0.3885  1.0558 -0.5224
  106MOL   C27240382   6.456   4.383   0.642 -0.2726 -0.2075 -0.7758
  106MOL   C27340383   6.401   4.300   0.526  1.1076  0.1209 -0.3303
  106MOL   C27440384   6.379   4.382   0.399  0.7737  0.0619 -0.4724
  106MOL   H27540385   6.333   4.024   0.737  2.7378  0.0985  0.7278
  106MOL   H27640386   6.200   4.065   0.820  0.0200  0.4518 -1.6804
  106MOL   H27740387   6.507   4.122   0.902  0.4837  0.7282 -1.3023
  106MOL   H27840388   6.584   4.332   0.807  0.9562  1.2460 -2.5915
  106MOL   H27940389   6.544   4.203   0.706  0.1214 -0.7225  3.3910
  106MOL   H28040390   6.391   4.465   0.673 -0.6601 -0.2920 -1.3544
  106MOL   H28140391   6.538   4.439   0.598 -0.3316 -0.7119 -1.5420
  106MOL   H28240392   6.308   4.248   0.548  1.8229 -0.5802  1.0839
  106MOL   H28340393   6.467   4.217   0.501 -1.7758 -2.3843  0.1794
  106MOL   H28440394   6.331   4.479   0.414  1.5499  0.7305 -2.1934
  106MOL   H28540395   6.308   4.336   0.330 -0.8525  0.3544  0.9489
  106MOL   H28640396   6.480   4.397   0.362  1.4963  1.6725  1.9994
  106MOL   C28740397   6.367   4.193   1.046  0.1424 -0.0655 -0.8080
  106MOL   C28840398   6.460   4.289   1.117 -0.8490  0.4020 -0.2003
  106MOL   O28940399   6.579   4.201   1.114 -0.6631 -0.0507 -0.7914
  106MOL   C29040400   6.703   4.258   1.146  0.8747  0.2470 -0.4930
  106MOL   C29140401   6.800   4.138   1.136  0.3782  0.2199 -0.0569
  106MOL   C29240402   6.794   4.051   1.260 -0.0226  0.3909 -0.7681
  106MOL   C29340403   6.907   3.946   1.266  0.4138  0.2685 -0.1132
  106MOL   H29440404   6.361   4.106   1.111 -1.3883  1.4429  1.1709
  106MOL   H29540405   6.271   4.244   1.051 -0.0529 -0.6252  3.3350
  106MOL   H29640406   6.487   4.380   1.065  3.0264  0.1432  1.1918
  106MOL   H29740407   6.722   4.337   1.073 -1.9136  2.1498  0.7793
  106MOL   H29840408   6.694   4.308   1.242  0.2713  2.4154 -1.6543
  106MOL   H29940409   6.901   4.176   1.125  0.5065 -0.1884 -0.2997
  106MOL   H30040410   6.776   4.088   1.042 -0.4847  1.0615 -0.2939
  106MOL   H30140411   6.695   4.005   1.255  0.3289 -0.8023  2.3169
  106MOL   H30240412   6.796   4.114   1.349  2.7973  2.0703 -1.9722
  106MOL   H30340413   6.999   3.999   1.291  1.2332 -1.8483  1.5418
  106MOL   H30440414   6.911   3.893   1.362 -0.2956  0.1331 -0.1575
  106MOL   H30540415   6.929   3.883   1.180 -0.4020 -1.3919  0.8629
  106MOL   C30640416   6.419   4.321   1.261  0.0166  0.0774  0.1707
  106MOL   C30740417   6.490   4.447   1.333 -0.2404  0.6654  0.2870
  106MOL   O30840418   6.507   4.433   1.473  0.1091  0.0552  0.4848
  106MOL   C30940419   6.401   4.427   1.560 -0.5185 -0.5476 -0.0953
  106MOL   C31040420   6.467   4.415   1.702  0.0112  0.5414 -0.4365
  106MOL   C31140421   6.475   4.550   1.767  0.9283 -0.2238  0.0401
  106MOL   C31240422   6.558   4.563   1.896 -0.5848  0.6606  0.8186
  106MOL   H31340423   6.310   4.321   1.262  0.0184  0.9764  0.0596
  106MOL   H31440424   6.445   4.232   1.319  1.9454 -0.0788 -0.8835
  106MOL   H31540425   6.590   4.467   1.294  0.3603 -2.1694  0.2310
  106MOL   H31640426   6.343   4.337   1.541 -1.3395  0.1511 -0.9408
  106MOL   H31740427   6.326   4.507   1.557 -0.6166 -0.6631 -1.1571
  106MOL   H31840428   6.572   4.385   1.695 -0.3261 -0.7330 -0.1138
  106MOL   H31940429   6.400   4.346   1.754 -0.7147  1.6072  0.0507
  106MOL   H32040430   6.521   4.617   1.694 -0.1599 -0.7573 -1.1330
  106MOL   H32140431   6.371   4.579   1.779  0.3979 -2.4688  1.0013
  106MOL   H32240432   6.556   4.477   1.963  1.2072 -1.9654 -2.4179
  106MOL   H32340433   6.534   4.654   1.952 -1.2326  2.0307 -1.6500
  106MOL   H32440434   6.661   4.565   1.861 -0.4211 -0.2075  1.2371
  106MOL   C32540435   6.418   4.579   1.302  0.0842  0.5738 -0.4217
  106MOL   C32640436   6.463   4.711   1.376 -0.6519 -0.1043 -0.2411
  106MOL   O32740437   6.588   4.764   1.317  0.4358 -0.4407  0.5809
  106MOL   C32840438   6.705   4.729   1.385  0.0729  0.8894 -0.2769
  106MOL   C32940439   6.811   4.820   1.322 -0.2678  0.2768  0.3106
  106MOL   C33040440   6.783   4.969   1.341 -0.1943 -0.0152 -0.1609
  106MOL   C33140441   6.883   5.065   1.273  0.1790  0.1451  0.7722
  106MOL   H33240442   6.312   4.558   1.312  1.0406 -4.1885  1.0608
  106MOL   H33340443   6.426   4.592   1.194  1.9595 -0.1071 -0.3928
  106MOL   H33440444   6.483   4.692   1.481 -0.0421  3.1301  0.2896
  106MOL   H33540445   6.734   4.623   1.381 -0.5801  0.7490 -1.5332
  106MOL   H33640446   6.701   4.762   1.488 -2.0562  1.2754 -0.4716
  106MOL   H33740447   6.900   4.790   1.377 -0.5695 -0.3117  0.4895
  106MOL   H33840448   6.833   4.797   1.218  1.0705 -0.1628  0.6820
  106MOL   H33940449   6.791   4.990   1.448  0.8008 -0.5590 -0.1276
  106MOL   H34040450   6.686   4.989   1.296  0.5924 -1.1362 -2.3944
  106MOL   H34140451   6.960   5.088   1.347  1.0637  0.9362 -0.3922
  106MOL   H34240452   6.836   5.152   1.229 -1.1737 -2.1263 -2.4539
  106MOL   H34340453   6.939   5.026   1.188 -0.9868  0.0618  0.0329
  106MOL   C34440454   6.363   4.827   1.366 -0.1136 -0.4528 -0.1794
  106MOL   C34540455   6.223   4.807   1.439 -0.4320  0.5000  0.0741
  106MOL   O34640456   6.127   4.898   1.384 -0.3654 -0.0260 -0.2394
  106MOL   C34740457   6.095   4.881   1.246 -0.2117 -0.3992  0.7543
  106MOL   C34840458   5.944   4.863   1.223 -0.1566 -0.2964  0.2108
  106MOL   C34940459   5.904   4.734   1.289 -0.4247  0.9890  0.6326
  106MOL   C35040460   5.748   4.715   1.302 -0.0846 -0.3414  0.4375
  106MOL   H35140461   6.415   4.913   1.409  0.6495 -0.8691 -0.2686
  106MOL   H35240462   6.354   4.862   1.263 -2.1188 -2.0073 -0.5576
  106MOL   H35340463   6.189   4.705   1.419  0.7296  0.3249 -1.0870
  106MOL   H35440464   6.158   4.798   1.214 -0.4797 -0.5426  0.5974
  106MOL   H35540465   6.126   4.971   1.194 -0.2765 -0.3503  0.8009
  106MOL   H35640466   5.924   4.863   1.116 -2.5450  0.5177  0.6399
  106MOL   H35740467   5.892   4.950   1.262 -0.3113 -0.7376  1.0020
  106MOL   H35840468   5.948   4.649   1.237 -2.1852  0.2214  0.3563
  106MOL   H35940469   5.944   4.728   1.390  0.5102 -0.1495  0.1966
  106MOL   H36040470   5.695   4.710   1.207 -3.2069  3.0375  1.8461
  106MOL   H36140471   5.711   4.811   1.339 -0.7738 -1.3052  2.3750
  106MOL   H36240472   5.705   4.649   1.378  1.6309 -1.2096  0.6839
  106MOL   C36340473   6.236   4.827   1.588 -0.0802 -0.6291  0.5183
  106MOL   C36440474   6.109   4.806   1.670  0.7126  0.2575  0.1632
  106MOL   O36540475   6.145   4.818   1.801 -0.0563 -0.5558 -1.1338
  106MOL   C36640476   6.045   4.818   1.903 -0.6765 -0.1556  0.3050
  106MOL   C36740477   6.129   4.832   2.035  0.7209  0.4639 -0.2316
  106MOL   C36840478   6.234   4.720   2.055 -0.0668 -0.5239  0.1292
  106MOL   C36940479   6.323   4.740   2.183  0.2985 -0.3635 -0.0989
  106MOL   H37040480   6.262   4.931   1.608 -1.1401 -0.3608  0.5558
  106MOL   H37140481   6.320   4.766   1.621  1.4206  1.5177  0.7786
  106MOL   H37240482   6.071   4.708   1.643 -1.3319  0.8066  0.9937
  106MOL   H37340483   5.994   4.722   1.909  0.2973 -0.8967 -2.4498
  106MOL   H37440484   5.977   4.902   1.890  1.0256  1.4055  1.1767
  106MOL   H37540485   6.068   4.849   2.124 -0.5512  1.4880 -1.2821
  106MOL   H37640486   6.188   4.922   2.020 -0.1203  1.3240  1.5082
  106MOL   H37740487   6.292   4.703   1.964 -0.7921  1.8715 -0.8242
  106MOL   H37840488   6.170   4.632   2.068  0.3416 -0.8577 -0.1335
  106MOL   H37940489   6.390   4.658   2.208  1.1367 -0.0590 -1.2993
  106MOL   H38040490   6.386   4.828   2.176  1.7558 -1.3906 -0.1086
  106MOL   H38140491   6.271   4.766   2.276  1.1476  0.3243  0.1908
  106MOL   H38240492   6.039   4.886   1.646  0.9402 -0.0517 -1.6662
  107MOL     C140493   2.145   7.595   0.177 -0.3325  0.4389 -0.0316
  107MOL     C240494   2.154   7.743   0.139 -0.1501  0.3836 -0.8618
  107MOL     O340495   2.271   0.010   0.171 -0.8980  0.0078  0.1277
  107MOL     C440496   2.388   7.752   0.115 -0.0366 -0.3346 -0.2495
  107MOL     C540497   2.513   0.042   0.147  0.7011  0.0425  0.0435
  107MOL     C640498   2.555   0.028   0.289 -0.2563 -0.0089 -0.1139
  107MOL     C740499   2.659   0.129   0.346 -0.3099  0.0893  0.9308
  107MOL     H840500   2.047   7.559   0.208  0.6836 -0.6063  2.0700
  107MOL     H940501   2.191   7.528   0.104 -0.9387  1.3758 -1.2952
  107MOL    H1040502   2.084   7.794   0.205  0.9926  0.8602 -0.0166
  107MOL    H1140503   2.403   7.646   0.131  0.5465 -0.2399 -0.1628
  107MOL    H1240504   2.386   7.750   0.006 -1.0229  0.0317 -0.2407
  107MOL    H1340505   2.481   0.143   0.119 -1.0390 -0.3431  0.5795
  107MOL    H1440506   2.591   0.015   0.076  0.9055  0.1052  0.2450
  107MOL    H1540507   2.576   7.724   0.307 -1.1539 -0.3484 -1.0638
  107MOL    H1640508   2.463   0.038   0.347 -0.3845 -2.3511  0.1278
  107MOL    H1740509   2.757   0.113   0.302 -1.0878  0.4241 -0.9722
  107MOL    H1840510   2.663   0.112   0.453  2.4427 -0.1425  0.8339
  107MOL    H1940511   2.629   0.234   0.344 -1.4506 -0.2108  2.1558
  107MOL    H2040512   2.198   7.575   0.270 -0.6635 -1.7811 -0.2872
  107MOL    C2140513   2.106   7.766   7.793  0.2196 -0.4817 -0.2180
  107MOL    C2240514   2.094   0.111   7.747 -0.6340  0.2614 -0.2233
  107MOL    O2340515   2.046   0.104   7.608  0.6899  0.1921 -0.2352
  107MOL    C2440516   2.151   0.106   7.512  0.0007 -0.7938 -0.2007
  107MOL    C2540517   2.091   0.112   7.373  0.0624 -0.4327  0.3396
  107MOL    C2640518   2.021   0.246   7.337  0.0250  0.2936  0.7047
  107MOL    C2740519   1.966   0.259   7.189 -0.1235  0.2810  0.1398
  107MOL    H2840520   2.002   7.735   7.788 -0.7413  2.6814 -1.0394
  107MOL    H2940521   2.170   7.711   7.724 -0.0384 -0.3632 -0.5500
  107MOL    H3040522   2.189   0.163   7.750 -1.3040  1.5371 -0.7603
  107MOL    H3140523   2.216   0.019   7.526  3.9693  2.1779  0.7765
  107MOL    H3240524   2.213   0.194   7.530  0.8389 -1.1946 -1.0341
  107MOL    H3340525   2.176   0.095   7.306  0.5848 -1.2718  1.1911
  107MOL    H3440526   2.020   0.030   7.369 -0.9900  0.3876  1.8407
  107MOL    H3540527   1.948   0.278   7.412  1.9178  0.8101  2.3539
  107MOL    H3640528   2.095   0.326   7.345  0.0296  0.1567  2.1600
  107MOL    H3740529   1.922   0.167   7.149  0.6254  0.3899 -0.9591
  107MOL    H3840530   1.894   0.340   7.178 -0.0287  0.2807 -0.5195
  107MOL    H3940531   2.046   0.293   7.123 -0.0179  0.9391  0.6132
  107MOL    C4040532   1.993   0.188   0.031  0.1064  0.1928 -0.1406
  107MOL    C4140533   1.983   0.339   7.796 -0.1574  0.4558 -0.2022
  107MOL    O4240534   2.108   0.404   0.012 -0.1604  0.4998 -0.7283
  107MOL    C4340535   2.165   0.472   7.707 -0.1033  0.2012 -0.6326
  107MOL    C4440536   2.301   0.532   7.753  0.4861 -0.0439 -0.4713
  107MOL    C4540537   2.410   0.425   7.762  0.1292 -0.5123 -0.3592
  107MOL    C4640538   2.556   0.486   7.769  0.4583 -0.5332 -0.4492
  107MOL    H4740539   2.014   0.163   0.135 -1.6370 -0.3292  0.1011
  107MOL    H4840540   1.896   0.150   0.001  0.3533  0.3794 -1.1796
  107MOL    H4940541   1.952   0.345   7.692 -1.4425 -1.4055  0.0556
  107MOL    H5040542   2.095   0.550   7.679  0.7633  0.7594 -1.2809
  107MOL    H5140543   2.172   0.403   7.624  2.8056 -1.4668  0.8995
  107MOL    H5240544   2.299   0.588   0.045  4.3337 -1.9958  0.8731
  107MOL    H5340545   2.314   0.611   7.679  3.6934 -0.3535 -0.3071
  107MOL    H5440546   2.403   0.367   7.670 -0.8612  0.0185 -0.6262
  107MOL    H5540547   2.384   0.361   0.045  1.2587 -0.6785 -0.1279
  107MOL    H5640548   2.592   0.537   7.680 -0.1677 -0.1281 -0.4778
  107MOL    H5740549   2.565   0.559   0.048 -0.0918 -2.3466  1.2928
  107MOL    H5840550   2.623   0.402   7.784  1.3783 -0.1874 -2.5534
  107MOL    C5940551   1.875   0.405   0.092  0.1104 -0.2765 -0.5056
  107MOL    C6040552   1.820   0.541   0.050 -0.0461  1.0550  0.8550
  107MOL    O6140553   1.722   0.504   7.755  0.1892 -0.0762  0.2366
  107MOL    C6240554   1.680   0.610   7.665  0.1757 -0.0404 -0.4751
  107MOL    C6340555   1.580   0.548   7.572  0.0768 -0.2156  0.0874
  107MOL    C6440556   1.638   0.452   7.468  0.0370  0.3168  0.1104
  107MOL    C6540557   1.533   0.385   7.374  0.6457  0.2361  0.1732
  107MOL    H6640558   1.787   0.343   0.110  0.2663 -0.0302  1.1506
  107MOL    H6740559   1.921   0.418   0.189 -0.7771 -3.7321  0.4240
  107MOL    H6840560   1.896   0.597   7.797 -0.1284 -1.4657 -1.9871
  107MOL    H6940561   1.763   0.651   7.609  0.7864 -2.4872 -1.4471
  107MOL    H7040562   1.632   0.680   7.733  3.4741  1.3947  0.4376
  107MOL    H7140563   1.514   0.491   7.637 -1.6169  1.8070  0.1722
  107MOL    H7240564   1.527   0.622   7.512  1.3433  1.7181  1.3097
  107MOL    H7340565   1.716   0.505   7.412 -1.2092  2.0983 -0.0023
  107MOL    H7440566   1.682   0.370   7.525 -1.2594 -0.1510  0.4459
  107MOL    H7540567   1.456   0.321   7.417  0.0573 -0.2393 -1.5374
  107MOL    H7640568   1.482   0.463   7.318 -1.2417 -1.3516 -0.3779
  107MOL    H7740569   1.584   0.323   7.300 -1.7704 -1.5019 -0.1072
  107MOL    C7840570   1.766   0.622   0.169 -0.2700  0.3761  0.2541
  107MOL    C7940571   1.795   0.777   0.156  0.0826 -0.1845 -0.6230
  107MOL    O8040572   1.912   0.805   0.236  0.1748  0.1983 -0.6220
  107MOL    C8140573   2.029   0.734   0.197 -0.0476 -0.4531  0.1843
  107MOL    C8240574   2.147   0.776   0.287  0.2053  0.0815 -1.4821
  107MOL    C8340575   2.123   0.759   0.434  0.2650  0.3439 -0.7962
  107MOL    C8440576   2.236   0.823   0.520 -1.0592  0.0280  0.2972
  107MOL    H8540577   1.794   0.593   0.270  0.2066  2.9072  0.8707
  107MOL    H8640578   1.660   0.599   0.156  0.1031 -0.0941 -2.1622
  107MOL    H8740579   1.823   0.824   0.062  2.0451 -0.0026  0.0212
  107MOL    H8840580   2.051   0.762   0.094  1.3937  0.2519  0.6651
  107MOL    H8940581   2.015   0.626   0.201 -2.2887 -0.2229 -1.0296
  107MOL    H9040582   2.241   0.729   0.257  0.6073  0.1614 -0.3507
  107MOL    H9140583   2.145   0.884   0.268 -0.0213  0.4219  0.3600
  107MOL    H9240584   2.121   0.652   0.453  3.0292  0.9774  3.5751
  107MOL    H9340585   2.030   0.806   0.465  0.8038  0.6791  0.3205
  107MOL    H9440586   2.230   0.932   0.527 -0.0073  0.0140  1.5871
  107MOL    H9540587   2.219   0.796   0.624  0.1867  0.3033  0.5745
  107MOL    H9640588   2.339   0.797   0.497 -1.2030  0.8475 -1.3013
  107MOL    C9740589   1.678   0.856   0.219 -0.2110 -0.0787  0.5337
  107MOL    C9840590   1.701   1.012   0.235  1.1155 -0.0292 -0.2363
  107MOL    O9940591   1.568   1.070   0.211  0.7822  0.1558  0.0921
  107MOL   C10040592   1.568   1.132   0.083 -0.0877 -0.6366 -0.1205
  107MOL   C10140593   1.436   1.201   0.060 -0.1152  0.0612  0.5907
  107MOL   C10240594   1.406   1.253   7.718  0.2352  0.2777 -0.0969
  107MOL   C10340595   1.387   1.147   7.617 -0.5478  0.7640 -0.0931
  107MOL   H10440596   1.646   0.817   0.315  2.7204 -2.7408  0.4901
  107MOL   H10540597   1.595   0.834   0.151 -0.6102  0.5515  0.8067
  107MOL   H10640598   1.775   1.042   0.160  1.5375  0.6310  0.4383
  107MOL   H10740599   1.571   1.057   0.003  0.0930  0.0581 -0.7750
  107MOL   H10840600   1.649   1.205   0.081  0.4986 -1.2918 -1.4436
  107MOL   H10940601   1.428   1.282   0.133 -1.7361 -0.9508  1.5549
  107MOL   H11040602   1.355   1.134   0.089 -0.1585 -1.2791 -2.4383
  107MOL   H11140603   1.491   1.317   7.694  0.8614 -0.0385  1.2382
  107MOL   H11240604   1.316   1.314   7.727  0.6929  1.4126 -2.6361
  107MOL   H11340605   1.309   1.075   7.644  0.0772 -0.4820 -1.6003
  107MOL   H11440606   1.361   1.181   7.517  0.0019  0.3227 -0.3823
  107MOL   H11540607   1.481   1.097   7.597  0.6697  2.6065  0.8698
  107MOL   C11640608   1.756   1.051   0.371 -0.0275  0.2226 -0.4308
  107MOL   C11740609   1.740   1.200   0.402  0.0268  0.0590 -0.1014
  107MOL   O11840610   1.767   1.230   0.539  0.3224 -0.3221 -0.0392
  107MOL   C11940611   1.666   1.213   0.628 -0.2941 -0.0403 -0.1351
  107MOL   C12040612   1.713   1.220   0.776 -0.1011  0.3337 -0.3424
  107MOL   C12140613   1.801   1.347   0.800 -0.4795 -0.1074  0.5615
  107MOL   C12240614   1.811   1.387   0.951  0.5271 -0.5898 -0.1675
  107MOL   H12340615   1.688   1.000   0.440  0.6933 -0.2970 -0.0964
  107MOL   H12440616   1.859   1.021   0.391 -0.9608 -2.3127  0.8015
  107MOL   H12540617   1.637   1.227   0.379  0.5024  0.4209 -1.9110
  107MOL   H12640618   1.615   1.122   0.597 -2.9594  0.4768  2.4757
  107MOL   H12740619   1.599   1.296   0.602  0.0134 -0.3245 -1.8918
  107MOL   H12840620   1.763   1.124   0.791  1.2698  0.9771 -0.7796
  107MOL   H12940621   1.626   1.222   0.842  0.7917  0.9132  0.8330
  107MOL   H13040622   1.900   1.335   0.756 -1.2763  2.0991 -2.0005
  107MOL   H13140623   1.752   1.428   0.745  0.4378  0.9891  1.3193
  107MOL   H13240624   1.803   1.304   1.020  1.5223  0.0754  0.7683
  107MOL   H13340625   1.727   1.454   0.967  1.2960  0.9725 -2.2361
  107MOL   H13440626   1.902   1.446   0.966 -0.4002  0.6119  0.8003
  107MOL   C13540627   1.829   1.295   0.318  0.2627 -0.4564  0.7783
  107MOL   C13640628   1.778   1.441   0.315 -0.5360  0.5738  0.0901
  107MOL   O13740629   1.884   1.521   0.269  0.0457  0.3756  0.2552
  107MOL   C13840630   1.961   1.590   0.368  0.0454  0.0100  0.1513
  107MOL   C13940631   2.038   1.715   0.303 -0.2695 -0.6654  1.3235
  107MOL   C14040632   1.945   1.797   0.216  0.2880 -0.8102  1.1411
  107MOL   C14140633   2.015   1.921   0.159 -0.3893  0.2825  0.3443
  107MOL   H14240634   1.838   1.259   0.215 -0.2361  1.0374  0.1936
  107MOL   H14340635   1.928   1.297   0.363 -0.1804  0.3286  1.7469
  107MOL   H14440636   1.764   1.466   0.420 -1.0411  0.7308 -0.0131
  107MOL   H14540637   2.026   1.520   0.420  0.4400  0.7057  0.6049
  107MOL   H14640638   1.891   1.630   0.440 -0.1472 -1.8466  1.0150
  107MOL   H14740639   2.113   1.674   0.235 -1.1756 -0.6661  0.3002
  107MOL   H14840640   2.082   1.776   0.382 -1.5744  0.7991  0.9643
  107MOL   H14940641   1.904   1.732   0.139 -0.1679  1.1682 -0.3477
  107MOL   H15040642   1.860   1.831   0.275  0.7887 -2.0237  2.5707
  107MOL   H15140643   1.937   1.975   0.105  0.2123 -0.0951 -0.9326
  107MOL   H15240644   2.042   1.997   0.232 -2.6696  0.8815  0.6068
  107MOL   H15340645   2.100   1.901   0.092  0.2926  0.7572  1.0656
  107MOL   C15440646   1.646   1.473   0.252 -0.1323 -0.0960 -0.3909
  107MOL   C15540647   1.586   1.608   0.303 -0.6234 -0.5303 -0.1723
  107MOL   O15640648   1.554   1.572   0.436  0.0806 -1.0818 -0.7361
  107MOL   C15740649   1.559   1.678   0.529  0.4027 -0.3103  0.1142
  107MOL   C15840650   1.502   1.618   0.650  0.1586  0.3594 -0.5914
  107MOL   C15940651   1.354   1.596   0.647  0.1621  0.1157 -0.9702
  107MOL   C16040652   1.287   1.539   0.777  0.5804  0.6631  0.2466
  107MOL   H16140653   1.572   1.394   0.264  1.4125 -1.5844 -0.4545
  107MOL   H16240654   1.663   1.477   0.144 -1.0184 -0.1448 -0.5351
  107MOL   H16340655   1.659   1.689   0.303  0.4745 -1.4955  1.1459
  107MOL   H16440656   1.659   1.719   0.544 -0.2373  1.1478  0.4551
  107MOL   H16540657   1.504   1.767   0.501  2.1186  1.3770  1.9237
  107MOL   H16640658   1.529   1.683   0.733  1.1077 -1.0476  0.2131
  107MOL   H16740659   1.558   1.529   0.680 -0.0765  0.6323  0.6904
  107MOL   H16840660   1.292   1.683   0.624  0.7612  0.5655 -0.8874
  107MOL   H16940661   1.340   1.518   0.572 -1.8978  0.1606 -0.6637
  107MOL   H17040662   1.317   1.596   0.865 -0.9966  1.2248  0.4491
  107MOL   H17140663   1.180   1.562   0.779  0.1200 -1.3312 -0.0342
  107MOL   H17240664   1.299   1.430   0.781 -0.3183  0.5681  0.5387
  107MOL   C17340665   1.463   1.659   0.233 -0.8606  0.5746  0.2440
  107MOL   C17440666   1.493   1.732   0.099  0.2101 -0.7399 -0.6712
  107MOL   O17540667   1.564   1.652   0.010  0.1084 -0.1941 -0.3288
  107MOL   C17640668   1.628   1.727   7.706  0.1827  0.7335  0.7102
  107MOL   C17740669   1.738   1.641   7.657  0.1541  0.0487  0.0491
  107MOL   C17840670   1.801   1.704   7.537  0.2245  0.4153  0.2900
  107MOL   C17940671   1.939   1.652   7.503 -0.0982 -0.4260  0.1791
  107MOL   H18040672   1.405   1.722   0.301  1.6401  1.0061  2.0409
  107MOL   H18140673   1.386   1.583   0.225 -0.2776  0.0531 -0.4075
  107MOL   H18240674   1.554   1.820   0.121 -1.9322  0.5661  0.1889
  107MOL   H18340675   1.668   1.814   7.759  1.3200  0.7123 -0.0842
  107MOL   H18440676   1.553   1.773   7.641  0.4596  1.5862  0.9905
  107MOL   H18540677   1.705   1.543   7.622 -0.8051  0.1276  0.7030
  107MOL   H18640678   1.818   1.627   7.730  0.7765 -0.4895 -0.7353
  107MOL   H18740679   1.735   1.697   7.451  1.4087  2.0858 -0.7871
  107MOL   H18840680   1.803   1.812   7.548  0.2566  0.3461  0.9730
  107MOL   H18940681   1.975   1.718   7.424 -1.5221  0.8564  0.5715
  107MOL   H19040682   2.005   1.673   7.587  0.6893 -1.2049 -0.2457
  107MOL   H19140683   1.948   1.548   7.472 -2.2962 -0.8958  1.0147
  107MOL   C19240684   1.364   1.787   0.041 -0.2098 -0.5390  0.4129
  107MOL   C19340685   1.290   1.894   0.136  0.0941 -0.0542  0.8507
  107MOL   O19440686   1.381   2.008   0.159 -0.5172  0.0546  0.1337
  107MOL   C19540687   1.427   2.023   0.293 -0.1717 -0.3474 -0.6913
  107MOL   C19640688   1.523   2.147   0.294  0.0426  0.5378 -0.5671
  107MOL   C19740689   1.678   2.118   0.256  0.0364 -0.2073 -0.3293
  107MOL   C19840690   1.759   2.249   0.223 -0.0231 -0.4570  0.7245
  107MOL   H19940691   1.305   1.702   0.005  0.0357 -0.7293  0.4665
  107MOL   H20040692   1.391   1.843   7.753 -3.7321  0.3032 -0.2197
  107MOL   H20140693   1.265   1.854   0.234 -0.2271 -0.9303  0.4185
  107MOL   H20240694   1.478   1.934   0.329  0.4146  0.9771  1.9223
  107MOL   H20340695   1.342   2.051   0.355  0.3089  0.5641 -0.4215
  107MOL   H20440696   1.480   2.222   0.228  1.2619  1.1041 -0.7245
  107MOL   H20540697   1.529   2.189   0.394 -1.9196 -0.1407 -0.1477
  107MOL   H20640698   1.676   2.054   0.169  0.9961  0.6178 -0.9638
  107MOL   H20740699   1.726   2.062   0.336  0.2173  0.6351  0.1588
  107MOL   H20840700   1.783   2.301   0.316 -2.0938  1.1831  0.3622
  107MOL   H20940701   1.849   2.225   0.166 -1.7942 -3.1692 -0.9985
  107MOL   H21040702   1.694   2.312   0.164  1.0857  0.1608  0.1509
  107MOL   C21140703   1.164   1.940   0.063  0.1476  0.0370  0.3112
  107MOL   C21240704   1.055   2.006   0.144  0.6767 -0.7353  0.0797
  107MOL   O21340705   1.001   1.908   0.236  0.1121  0.1691  0.2744
  107MOL   C21440706   0.856   1.896   0.221  0.2637  0.2531  0.1695
  107MOL   C21540707   0.822   1.776   0.315  0.2737 -0.1891 -0.1587
  107MOL   C21640708   0.850   1.803   0.461  0.0595 -0.0042  0.1237
  107MOL   C21740709   0.997   1.770   0.506  0.0646 -0.3926 -0.2257
  107MOL   H21840710   1.123   1.849   0.020 -0.7518  0.2111  0.7943
  107MOL   H21940711   1.179   2.009   7.782 -0.8624 -0.8956 -0.6770
  107MOL   H22040712   0.985   2.029   0.065  0.2420  1.5421  1.1094
  107MOL   H22140713   0.803   1.990   0.238 -0.1293 -0.0099  0.4247
  107MOL   H22240714   0.829   1.863   0.121 -0.4640  0.6419  0.2339
  107MOL   H22340715   0.715   1.771   0.297 -0.0255 -1.9645  1.9067
  107MOL   H22440716   0.874   1.688   0.277  1.1744 -0.2138  1.0709
  107MOL   H22540717   0.782   1.746   0.525 -2.2076 -0.0899 -2.2761
  107MOL   H22640718   0.823   1.906   0.485 -0.9995 -0.2891  0.1793
  107MOL   H22740719   1.047   1.684   0.463  1.1844  1.3805 -2.6323
  107MOL   H22840720   1.005   1.759   0.614 -2.4752  0.7725  0.1303
  107MOL   H22940721   1.052   1.861   0.482  1.8608 -1.5550 -0.5802
  107MOL   C23040722   1.102   2.135   0.211 -0.1243  0.3459  0.5887
  107MOL   C23140723   0.990   2.218   0.272  0.0761 -0.3907  0.7231
  107MOL   O23240724   1.047   2.306   0.358  0.4523  0.0035  0.4092
  107MOL   C23340725   1.009   2.267   0.489  0.1351  0.3317 -0.0836
  107MOL   C23440726   1.044   2.383   0.577  0.3099 -0.3233 -0.5691
  107MOL   C23540727   0.942   2.499   0.553 -0.3860  0.2477 -0.1484
  107MOL   C23640728   0.951   2.601   0.664 -0.8707  0.3143 -0.4392
  107MOL   H23740729   1.170   2.197   0.152  0.8530 -0.6743  0.6446
  107MOL   H23840730   1.155   2.103   0.300 -1.1229 -1.8529  0.4213
  107MOL   H23940731   0.911   2.159   0.318 -0.1333 -0.0874  0.7576
  107MOL   H24040732   0.908   2.230   0.507 -0.9774  2.9111 -0.8794
  107MOL   H24140733   1.072   2.179   0.504 -1.1400 -0.1697  2.5458
  107MOL   H24240734   1.032   2.346   0.678  1.7155 -1.3900 -0.7800
  107MOL   H24340735   1.147   2.419   0.573  0.2762  0.0547  1.5382
  107MOL   H24440736   0.836   2.472   0.550 -0.2259 -0.3961 -0.1237
  107MOL   H24540737   0.973   2.547   0.460 -2.2700  0.1610 -0.8513
  107MOL   H24640738   1.055   2.632   0.674 -0.9423  1.1172 -2.0896
  107MOL   H24740739   0.914   2.549   0.752  0.0485 -1.7425 -1.2220
  107MOL   H24840740   0.900   2.696   0.650  1.1471  1.5916  0.6054
  107MOL   C24940741   0.922   2.318   0.174 -0.7003  0.3972  0.4381
  107MOL   C25040742   0.788   2.379   0.229  0.0552  0.0466  0.2539
  107MOL   O25140743   0.703   2.266   0.241 -0.0189 -0.1735  0.2698
  107MOL   C25240744   0.595   2.279   0.335 -0.6191 -0.0455 -0.1851
  107MOL   C25340745   0.518   2.146   0.344 -0.0112  0.4467  0.0005
  107MOL   C25440746   0.376   2.178   0.388  0.2903  0.1669 -0.0880
  107MOL   C25540747   0.360   2.243   0.524 -0.5196  0.2139 -0.0888
  107MOL   H25640748   0.900   2.268   0.079 -3.0683 -1.0756  1.7165
  107MOL   H25740749   0.999   2.393   0.155  0.3917 -0.4519  1.4112
  107MOL   H25840750   0.809   2.433   0.321 -0.0978  0.2396  0.1754
  107MOL   H25940751   0.517   2.354   0.318 -1.1989 -0.8512 -1.1474
  107MOL   H26040752   0.636   2.292   0.435  0.9592  1.0873 -0.9572
  107MOL   H26140753   0.506   2.112   0.241 -3.5170 -0.4329  0.6431
  107MOL   H26240754   0.561   2.066   0.404  0.4822 -0.0831 -1.0392
  107MOL   H26340755   0.328   2.236   0.309 -0.0911  2.1445  1.5477
  107MOL   H26440756   0.326   2.081   0.390  0.3108  0.1657  0.9309
  107MOL   H26540757   0.256   2.247   0.557  0.1930  0.8369  2.2087
  107MOL   H26640758   0.408   2.341   0.522 -2.6251  1.2907  0.6956
  107MOL   H26740759   0.406   2.190   0.607 -1.0185  0.8166  0.5790
  107MOL   C26840760   0.723   2.476   0.125  0.5621 -0.2316 -0.2737
  107MOL   C26940761   0.784   2.616   0.123  0.3259 -1.0019  0.0008
  107MOL   O27040762   0.912   2.609   0.064 -0.5136 -0.1793 -0.2548
  107MOL   C27140763   1.000   2.715   0.089 -0.8565  0.4373  0.1278
  107MOL   C27240764   1.123   2.703   7.797 -0.5014  0.0861  0.3054
  107MOL   C27340765   1.208   2.582   0.027 -0.5306 -0.6288 -0.1112
  107MOL   C27440766   1.326   2.558   7.729 -0.7506  0.2314  0.1352
  107MOL   H27540767   0.698   2.436   0.027 -0.2125 -0.4803  0.0156
  107MOL   H27640768   0.617   2.485   0.151  1.0048  0.3341  1.3813
  107MOL   H27740769   0.800   2.653   0.224 -1.2226 -3.7900  1.3172
  107MOL   H27840770   0.951   2.810   0.068  0.6756  1.2714  0.2677
  107MOL   H27940771   1.021   2.706   0.196  2.5214 -1.3396 -0.6096
  107MOL   H28040772   1.087   2.704   7.694  0.9252 -2.0402 -0.2402
  107MOL   H28140773   1.174   2.797   0.016  0.3607 -0.1707 -0.6208
  107MOL   H28240774   1.141   2.500   0.003  0.3231 -1.0438 -1.1173
  107MOL   H28340775   1.227   2.573   0.134 -5.2527  0.4431  0.9149
  107MOL   H28440776   1.390   2.647   7.729 -2.0431  1.1684 -0.2311
  107MOL   H28540777   1.294   2.533   7.628 -2.3421 -1.6495  1.0876
  107MOL   H28640778   1.391   2.480   7.769 -0.3421  0.9690  0.9244
  107MOL   C28740779   0.687   2.711   0.050 -0.2497  0.4517  0.1244
  107MOL   C28840780   0.562   2.743   0.149 -0.9202  0.6854 -0.0770
  107MOL   O28940781   0.451   2.739   0.061 -0.0796  0.3410 -0.2163
  107MOL   C29040782   0.374   2.618   0.073  0.2810  0.3429  0.4040
  107MOL   C29140783   0.241   2.614   7.787 -0.8956 -0.7852 -0.1803
  107MOL   C29240784   0.157   2.738   7.796 -0.2311 -0.2933 -0.2574
  107MOL   C29340785   0.041   2.749   7.700  0.4816  0.5481  0.0244
  107MOL   H29440786   0.661   2.671   7.754  0.1919 -0.4102  0.3453
  107MOL   H29540787   0.732   2.809   0.039  1.7038 -0.3865  0.4089
  107MOL   H29640788   0.560   2.669   0.230  2.0601  0.7108  0.0814
  107MOL   H29740789   0.438   2.534   0.048  0.9900 -0.4585  4.5316
  107MOL   H29840790   0.340   2.606   0.176  0.3097  1.7791  0.5984
  107MOL   H29940791   0.180   2.524   7.796  1.4379 -2.3206  0.6438
  107MOL   H30040792   0.273   2.621   7.683  1.8614  0.9016  0.7473
  107MOL   H30140793   0.221   2.826   7.784 -0.4724 -0.1256 -0.3214
  107MOL   H30240794   0.118   2.745   0.096 -0.5059 -1.0270 -0.3106
  107MOL   H30340795   0.071   2.802   7.609 -2.1644  0.6909 -0.7961
  107MOL   H30440796   7.793   2.655   7.676 -0.0795  0.9493 -0.3981
  107MOL   H30540797   7.767   2.809   7.749  0.3126  0.7919 -0.5370
  107MOL   C30640798   0.562   2.885   0.212 -0.1859 -0.2512 -0.4041
  107MOL   C30740799   0.673   2.913   0.311 -0.8002  0.1282  0.1136
  107MOL   O30840800   0.671   2.826   0.420 -0.2017  0.3639  1.0772
  107MOL   C30940801   0.589   2.862   0.531 -0.2778 -0.3677  0.5504
  107MOL   C31040802   0.595   2.767   0.648  0.1520 -0.5636 -0.3045
  107MOL   C31140803   0.543   2.624   0.616 -0.4498  0.7632  0.4599
  107MOL   C31240804   0.572   2.535   0.742  0.3379  0.0771  0.0202
  107MOL   H31340805   0.551   2.960   0.133 -0.8105 -0.8172 -0.8639
  107MOL   H31440806   0.461   2.908   0.247  0.1897  0.8662 -0.0107
  107MOL   H31540807   0.769   2.886   0.268 -1.7882 -2.5738 -0.4894
  107MOL   H31640808   0.486   2.874   0.498 -0.4106 -2.0903  0.2993
  107MOL   H31740809   0.623   2.960   0.566  1.7389 -0.6848 -0.4266
  107MOL   H31840810   0.537   2.819   0.724  1.0223  0.8206 -0.5874
  107MOL   H31940811   0.695   2.771   0.692 -0.0412 -1.5634  0.2451
  107MOL   H32040812   0.435   2.625   0.601 -0.2843 -0.1123 -0.7852
  107MOL   H32140813   0.589   2.583   0.527  1.0431  2.7125  0.3092
  107MOL   H32240814   0.522   2.441   0.715  1.3018  0.0149 -1.6711
  107MOL   H32340815   0.537   2.580   0.834 -1.2417  2.4891 -1.6948
  107MOL   H32440816   0.679   2.517   0.755 -0.3325 -2.8689  1.9343
  107MOL   C32540817   0.699   3.066   0.343 -0.5447  0.3746 -0.4065
  107MOL   C32640818   0.757   3.158   0.230 -1.0346  0.5738 -0.4836
  107MOL   O32740819   0.747   3.298   0.258  1.0138 -0.4854  0.0914
  107MOL   C32840820   0.649   3.367   0.166  0.4782  0.4035 -0.2889
  107MOL   C32940821   0.633   3.511   0.202 -0.1405 -0.3904  0.0925
  107MOL   C33040822   0.569   3.598   0.101  0.9343 -0.3541 -0.2473
  107MOL   C33140823   0.606   3.748   0.129  0.1077  0.1792 -0.2855
  107MOL   H33240824   0.764   3.070   0.430  1.2778  0.8935 -1.7497
  107MOL   H33340825   0.600   3.108   0.360 -0.7007  0.0819 -0.5773
  107MOL   H33440826   0.720   3.127   0.133  1.1653 -0.6078 -0.9903
  107MOL   H33540827   0.551   3.321   0.156  0.5325  0.6428 -1.9791
  107MOL   H33640828   0.681   3.361   0.062  0.7908 -0.1560 -0.1626
  107MOL   H33740829   0.577   3.536   0.292 -0.4372 -0.1867 -0.1475
  107MOL   H33840830   0.735   3.552   0.207 -0.0640 -0.1659 -2.8107
  107MOL   H33940831   0.464   3.570   0.101  1.1965 -1.5301  2.9449
  107MOL   H34040832   0.597   3.570   7.801  0.3166  0.8946 -0.7733
  107MOL   H34140833   0.706   3.756   0.085 -0.5697  0.4913 -1.8098
  107MOL   H34240834   0.603   3.772   0.235  0.2377  2.3548 -0.7532
  107MOL   H34340835   0.534   3.817   0.084 -1.0596 -1.1875 -0.5456
  107MOL   C34440836   0.910   3.131   0.223  0.5711  0.4652  0.0221
  107MOL   C34540837   0.982   3.195   0.103  0.0796  0.8316  0.2479
  107MOL   O34640838   0.931   3.121   7.792  0.4481 -0.3811  0.0958
  107MOL   C34740839   0.913   3.208   7.674  0.7248  0.5481  0.1260
  107MOL   C34840840   0.867   3.114   7.557  0.1814  0.0864 -0.6279
  107MOL   C34940841   0.979   3.034   7.509  0.0289  0.3735 -0.2004
  107MOL   C35040842   0.946   2.929   7.411  0.1953 -0.4065  0.3669
  107MOL   H35140843   0.964   3.153   0.315  0.7730  1.1385 -0.2589
  107MOL   H35240844   0.925   3.025   0.204 -0.5953  0.5451 -1.4151
  107MOL   H35340845   0.941   3.297   0.103 -0.0490  0.7817 -0.8530
  107MOL   H35440846   1.013   3.248   7.659  2.1718 -2.6409  0.7904
  107MOL   H35540847   0.838   3.284   7.694  0.1703 -0.0990  0.5691
  107MOL   H35640848   0.818   3.171   7.478 -2.4011 -0.7002  0.3463
  107MOL   H35740849   0.794   3.042   7.596 -0.7823  0.7155 -1.2437
  107MOL   H35840850   1.061   3.093   7.468 -0.2857  0.1887 -1.1084
  107MOL   H35940851   1.014   2.982   7.598 -0.9391  0.9707  0.5434
  107MOL   H36040852   0.865   2.864   7.445  0.1557 -1.0952 -0.9957
  107MOL   H36140853   1.036   2.871   7.388 -0.1637 -1.6065  1.9076
  107MOL   H36240854   0.912   2.981   7.321  2.2421 -0.8684 -0.7189
  107MOL   C36340855   1.139   3.211   0.116  0.3069  0.1011  0.0943
  107MOL   C36440856   1.222   3.082   0.096 -0.2575 -0.3040 -0.3936
  107MOL   O36540857   1.366   3.108   0.104  0.7418 -0.0631 -0.2197
  107MOL   C36640858   1.442   2.987   0.096  0.3830  0.2287  0.2677
  107MOL   C36740859   1.584   3.004   0.092 -0.1183  0.6349 -0.0562
  107MOL   C36840860   1.646   3.041   0.230 -0.0417 -0.5878  0.3416
  107MOL   C36940861   1.797   3.051   0.222  0.7152  0.1482 -0.5966
  107MOL   H37040862   1.171   3.268   0.204  1.3114 -0.9511  0.4171
  107MOL   H37140863   1.172   3.275   0.034  0.6916 -0.1459  0.0571
  107MOL   H37240864   1.195   3.038   0.000 -1.6527 -0.3684  0.0187
  107MOL   H37340865   1.412   2.932   0.006  0.3963  0.9214 -0.1641
  107MOL   H37440866   1.414   2.919   0.175 -1.4886  2.5051  1.6319
  107MOL   H37540867   1.610   3.087   0.026  1.4642  1.2759  1.3352
  107MOL   H37640868   1.620   2.905   0.064 -0.2297 -0.1576  2.4713
  107MOL   H37740869   1.638   2.951   0.290 -0.2314 -0.7337  0.0998
  107MOL   H37840870   1.588   3.118   0.279 -1.8743 -1.0716 -1.0275
  107MOL   H37940871   1.828   3.131   0.155  2.2169  0.0680 -0.0214
  107MOL   H38040872   1.847   3.069   0.318  1.0302 -0.6129 -0.6165
  107MOL   H38140873   1.835   2.960   0.176 -1.6371 -0.2813 -1.7640
  107MOL   H38240874   1.195   3.009   0.172 -1.7699  0.4054 -0.2256
  108MOL     C140875   0.939   6.675   0.515  0.6493  0.2993 -0.0443
  108MOL     C240876   0.845   6.564   0.563  0.5280 -0.0451 -0.4910
  108MOL     O340877   0.767   6.628   0.667  0.2407  0.4838  0.1455
  108MOL     C440878   0.830   6.621   0.801  0.5268  0.4416 -0.1067
  108MOL     C540879   0.720   6.675   0.892 -0.1550  0.1472 -0.6926
  108MOL     C640880   0.697   6.825   0.869 -0.5242  0.0558  0.5574
  108MOL     C740881   0.612   6.886   0.984  0.3644  0.6460 -0.2499
  108MOL     H840882   0.885   6.758   0.469  1.7711  1.8567  1.3858
  108MOL     H940883   1.005   6.720   0.589 -0.1559  2.1991 -0.4562
  108MOL    H1040884   0.911   6.486   0.602  1.2026  1.2330  0.9941
  108MOL    H1140885   0.854   6.518   0.827  2.3086  0.6723 -0.7689
  108MOL    H1240886   0.925   6.674   0.810  1.3546 -1.0725  0.2343
  108MOL    H1340887   0.747   6.664   0.997 -0.3631 -2.0824 -0.8571
  108MOL    H1440888   0.624   6.623   0.884  0.0515  0.0866 -2.8951
  108MOL    H1540889   0.644   6.834   0.775 -2.1022 -0.5514  1.3742
  108MOL    H1640890   0.790   6.882   0.872  0.3257 -1.3020  0.7640
  108MOL    H1740891   0.520   6.830   1.000 -1.1927  2.6599 -1.8812
  108MOL    H1840892   0.572   6.980   0.947 -1.1928  0.0562 -0.1239
  108MOL    H1940893   0.667   6.884   1.079  1.7090  0.5214 -1.0264
  108MOL    H2040894   1.003   6.635   0.436  0.0933  1.7336 -1.2377
  108MOL    C2140895   0.747   6.527   0.446 -0.4301  0.2325 -0.9659
  108MOL    C2240896   0.630   6.440   0.489 -0.2683  0.3601 -0.5191
  108MOL    O2340897   0.567   6.413   0.364  0.7540 -0.6295 -0.3561
  108MOL    C2440898   0.458   6.498   0.337  0.1582  0.8759  0.6483
  108MOL    C2540899   0.362   6.428   0.237  0.5588 -0.7499 -0.3472
  108MOL    C2640900   0.234   6.512   0.193 -0.4163  0.7701 -0.0297
  108MOL    C2740901   0.124   6.519   0.296  0.0097  0.3689 -0.3888
  108MOL    H2840902   0.802   6.485   0.362 -0.2934  0.7761 -1.1517
  108MOL    H2940903   0.716   6.624   0.405  0.5281  0.3303 -1.4692
  108MOL    H3040904   0.564   6.488   0.562  1.3722  1.5981  0.1645
  108MOL    H3140905   0.495   6.593   0.297 -0.0010  0.2471 -1.0459
  108MOL    H3240906   0.409   6.515   0.433 -1.3944 -0.1880  0.0653
  108MOL    H3340907   0.416   6.420   0.143 -0.8817  0.1441 -1.2561
  108MOL    H3440908   0.330   6.330   0.273  1.0135 -0.6660  0.3159
  108MOL    H3540909   0.267   6.603   0.143 -0.5476  0.4043 -0.7919
  108MOL    H3640910   0.190   6.460   0.108  0.3850  1.9652 -1.1808
  108MOL    H3740911   0.157   6.533   0.399  0.7170  1.3657 -0.7507
  108MOL    H3840912   0.056   6.602   0.276  1.9967  2.1191  0.0177
  108MOL    H3940913   0.067   6.426   0.303  0.1997  0.4415  3.4207
  108MOL    C4040914   0.688   6.307   0.544 -0.2836  0.4322 -0.2549
  108MOL    C4140915   0.617   6.170   0.518 -0.5828  0.5842 -0.7061
  108MOL    O4240916   0.502   6.165   0.600  0.0402 -0.3223 -0.4676
  108MOL    C4340917   0.389   6.137   0.519 -0.1185  0.1728 -0.5031
  108MOL    C4440918   0.272   6.142   0.618  0.6674  0.0294  0.2943
  108MOL    C4540919   0.284   6.053   0.739 -0.4373  0.8068  0.0340
  108MOL    C4640920   0.161   6.067   0.835 -0.1360  0.8590  0.0017
  108MOL    H4740921   0.712   6.320   0.649 -1.0026 -1.8857  0.2221
  108MOL    H4840922   0.784   6.287   0.496  0.1264  0.3567  0.5908
  108MOL    H4940923   0.589   6.165   0.413  0.7060  0.3293 -1.0448
  108MOL    H5040924   0.390   6.041   0.468 -2.3126  0.5063 -1.2341
  108MOL    H5140925   0.386   6.214   0.441  1.4881 -0.1490 -0.9007
  108MOL    H5240926   0.177   6.121   0.569 -0.6584  1.8624  2.0159
  108MOL    H5340927   0.264   6.244   0.656  1.8472  0.7510 -1.3053
  108MOL    H5440928   0.373   6.095   0.787 -0.0816  0.5236 -0.3716
  108MOL    H5540929   0.316   5.951   0.718  1.5671  1.4339 -0.0823
  108MOL    H5640930   0.181   6.010   0.925  0.0547  1.3528  0.2708
  108MOL    H5740931   0.152   6.171   0.865 -0.9639  1.1110 -1.0515
  108MOL    H5840932   0.063   6.046   0.793  0.3035 -0.1764 -0.5377
  108MOL    C5940933   0.695   6.042   0.554 -0.3231 -0.0658  0.3320
  108MOL    C6040934   0.788   5.995   0.441  0.0044  0.1617  0.0268
  108MOL    O6140935   0.890   6.092   0.410 -0.6043  0.2390  0.3711
  108MOL    C6240936   0.886   6.137   0.277  1.0240  1.0974  0.4390
  108MOL    C6340937   1.020   6.198   0.244 -0.3485 -0.2416 -0.0025
  108MOL    C6440938   1.138   6.104   0.254 -0.1946 -0.2659 -0.1126
  108MOL    C6540939   1.278   6.155   0.217  0.1512 -0.0069 -0.0504
  108MOL    H6640940   0.744   6.062   0.650 -0.6731 -1.7471  0.8625
  108MOL    H6740941   0.632   5.956   0.575  0.1855 -0.1765  1.4621
  108MOL    H6840942   0.718   5.976   0.359 -0.4714 -1.1242  0.7161
  108MOL    H6940943   0.805   6.210   0.277  0.8266  0.9655 -3.4592
  108MOL    H7040944   0.857   6.054   0.212 -0.0500 -1.4370  3.9840
  108MOL    H7140945   1.018   6.244   0.145  1.2603  1.1745  0.5895
  108MOL    H7240946   1.039   6.268   0.326  1.3271 -0.7292  0.0483
  108MOL    H7340947   1.146   6.073   0.358 -0.0060  1.1485  0.2910
  108MOL    H7440948   1.127   6.019   0.186  2.8690 -0.1061 -0.8771
  108MOL    H7540949   1.311   6.228   0.290  0.5665 -3.5819  3.5130
  108MOL    H7640950   1.353   6.076   0.211  0.2653  0.1092 -0.1431
  108MOL    H7740951   1.286   6.220   0.130 -0.3077  0.6783  0.4109
  108MOL    C7840952   0.867   5.865   0.467 -0.1854  0.0818  0.2189
  108MOL    C7940953   0.832   5.752   0.365  0.7731 -0.0679  1.1192
  108MOL    O8040954   0.703   5.704   0.402 -0.0568 -0.1775  0.0351
  108MOL    C8140955   0.597   5.730   0.310  0.7974 -0.1195 -0.5095
  108MOL    C8240956   0.477   5.648   0.356 -0.7903  0.4805  1.0917
  108MOL    C8340957   0.429   5.671   0.506 -0.5673  0.3659  0.2048
  108MOL    C8440958   0.302   5.596   0.541  0.8127  0.9836  0.2327
  108MOL    H8540959   0.875   5.845   0.574  3.0712 -1.5547 -0.2854
  108MOL    H8640960   0.970   5.882   0.438 -0.6133 -0.0930 -1.4482
  108MOL    H8740961   0.833   5.807   0.271  1.7926 -1.5116  0.2750
  108MOL    H8840962   0.627   5.715   0.206  1.0308 -2.1754 -0.1647
  108MOL    H8940963   0.577   5.837   0.319 -0.6154 -0.5377  2.0160
  108MOL    H9040964   0.392   5.697   0.310 -0.5863  0.2503  0.4742
  108MOL    H9140965   0.475   5.547   0.316 -0.9218  0.8326  0.2172
  108MOL    H9240966   0.417   5.778   0.526  0.1978  0.7421 -1.2771
  108MOL    H9340967   0.510   5.639   0.573 -0.7089 -0.7576 -0.1549
  108MOL    H9440968   0.321   5.489   0.533  0.8024  0.9771  0.2932
  108MOL    H9540969   0.266   5.619   0.642  0.4646 -0.2867  0.4087
  108MOL    H9640970   0.229   5.629   0.467  0.5467  1.7583  0.8312
  108MOL    C9740971   0.938   5.644   0.360  0.6241  0.6923  0.2736
  108MOL    C9840972   0.929   5.559   0.230  0.2642  0.1796 -0.2978
  108MOL    O9940973   0.947   5.634   0.115 -0.0861 -0.8537 -0.1945
  108MOL   C10040974   1.068   5.706   0.080 -0.7923 -0.0236 -0.0634
  108MOL   C10140975   1.036   5.792   7.759 -0.2729 -0.3568 -0.1429
  108MOL   C10240976   0.970   5.696   7.654  1.2699  0.3479  0.2417
  108MOL   C10340977   0.981   5.749   7.511 -0.7222 -1.0842 -0.8340
  108MOL   H10440978   0.934   5.586   0.452 -1.4023  0.0568 -0.1801
  108MOL   H10540979   1.038   5.687   0.365  1.3982 -1.0348 -0.0079
  108MOL   H10640980   0.826   5.524   0.235  0.6136 -0.8212 -0.0035
  108MOL   H10740981   1.159   5.649   0.058 -0.4098  0.4552  0.2505
  108MOL   H10840982   1.100   5.770   0.163  1.7761  0.8261 -1.6448
  108MOL   H10940983   1.123   5.844   7.719 -1.5830  1.4010 -0.8102
  108MOL   H11040984   0.962   5.864   7.796  2.0136  2.6921 -1.2535
  108MOL   H11140985   0.863   5.691   7.674  1.1060  1.3063 -0.3804
  108MOL   H11240986   1.002   5.592   7.664 -0.2001 -0.3167 -1.6772
  108MOL   H11340987   0.940   5.850   7.513  0.0563 -0.7787  2.0195
  108MOL   H11440988   1.085   5.759   7.481 -0.5488  1.4150  0.5023
  108MOL   H11540989   0.922   5.691   7.439 -4.2926  0.6936  0.5507
  108MOL   C11640990   1.021   5.434   0.232 -0.3375 -0.1226  0.3228
  108MOL   C11740991   1.004   5.335   0.101  0.1055 -0.2950  0.4532
  108MOL   O11840992   1.120   5.261   0.102 -0.0516  0.2178 -0.0078
  108MOL   C11940993   1.155   5.204   7.778  0.1189 -0.1129  0.0094
  108MOL   C12040994   1.271   5.103   7.786 -0.4192  0.0031 -0.7417
  108MOL   C12140995   1.316   5.051   7.646  0.6617 -0.0660  0.7653
  108MOL   C12240996   1.402   4.928   7.640 -0.5264  0.2539 -0.0223
  108MOL   H12340997   1.122   5.474   0.219 -0.3607  0.3059  1.3951
  108MOL   H12440998   1.010   5.385   0.329 -0.1377  1.5460  1.2110
  108MOL   H12540999   0.989   5.401   0.015  0.4079  0.6978  1.1609
  108MOL   H12641000   1.197   5.283   7.717 -0.1990  0.4688  0.5445
  108MOL   H12741001   1.067   5.167   7.724 -1.3315  1.8241  0.9814
  108MOL   H12841002   1.233   5.018   0.041 -0.1460 -0.8555 -1.8286
  108MOL   H12941003   1.356   5.140   0.041 -0.7310 -2.0676  1.1599
  108MOL   H13041004   1.231   5.037   7.578  1.0470  1.7601 -0.1074
  108MOL   H13141005   1.383   5.123   7.598  1.1405 -0.5415  0.7142
  108MOL   H13241006   1.351   4.832   7.657 -0.3890 -0.4746 -3.4606
  108MOL   H13341007   1.465   4.938   7.728  0.7949 -0.3982 -0.8891
  108MOL   H13441008   1.456   4.927   7.546 -1.2938 -0.0082 -0.4625
  108MOL   C13541009   0.879   5.248   0.117 -0.0386  0.3605 -0.0938
  108MOL   C13641010   0.757   5.277   0.022 -0.3006 -0.1314 -0.5504
  108MOL   O13741011   0.805   5.244   7.690 -0.4861 -0.2953  0.0042
  108MOL   C13841012   0.718   5.274   7.587 -0.3462  0.1844  0.5497
  108MOL   C13941013   0.771   5.206   7.464 -0.6669 -0.0657  0.4892
  108MOL   C14041014   0.921   5.248   7.412  0.1114 -0.1267  0.0362
  108MOL   C14141015   0.971   5.167   7.297 -0.3061 -0.9930  0.5139
  108MOL   H14241016   0.842   5.239   0.219  0.1449  2.9918  0.2341
  108MOL   H14341017   0.903   5.143   0.097  0.5374  0.1165  1.8374
  108MOL   H14441018   0.732   5.382   0.032  0.1612 -0.3976  4.4450
  108MOL   H14541019   0.711   5.383   7.583 -3.5976 -0.0467 -2.3321
  108MOL   H14641020   0.616   5.242   7.609  0.3564 -1.6304  1.1824
  108MOL   H14741021   0.699   5.227   7.385  0.6837  2.0635 -0.1855
  108MOL   H14841022   0.769   5.101   7.494  0.2412 -0.5869 -1.2073
  108MOL   H14941023   0.922   5.355   7.396  3.6057  0.2195  1.9980
  108MOL   H15041024   0.985   5.239   7.500  1.0362  2.7537 -0.3095
  108MOL   H15141025   1.071   5.203   7.274 -0.8144  0.4788  0.5780
  108MOL   H15241026   0.986   5.064   7.329  0.9957 -0.8518  0.3933
  108MOL   H15341027   0.900   5.177   7.215  0.3479 -0.2196  0.0395
  108MOL   C15441028   0.636   5.188   0.060  0.7854  0.3684 -0.3664
  108MOL   C15541029   0.644   5.033   0.022 -0.3641 -0.1206  0.3062
  108MOL   O15641030   0.544   5.000   7.734  0.1449  0.0175 -0.4103
  108MOL   C15741031   0.586   4.886   7.652 -0.3734  0.5432 -0.1589
  108MOL   C15841032   0.462   4.844   7.564  0.2077 -0.4745 -0.2777
  108MOL   C15941033   0.484   4.720   7.482 -0.3163  0.7108  0.1660
  108MOL   C16041034   0.369   4.697   7.384 -0.0620 -0.1027 -0.5265
  108MOL   H16141035   0.549   5.219   0.002 -0.1670 -0.3905  0.6426
  108MOL   H16241036   0.599   5.194   0.162 -1.1462  2.0121 -1.1283
  108MOL   H16341037   0.743   5.019   7.780 -0.3974 -2.6216  0.9761
  108MOL   H16441038   0.671   4.919   7.592  0.7243 -2.7065 -0.4573
  108MOL   H16541039   0.617   4.799   7.710  0.0991  1.1365  0.4919
  108MOL   H16641040   0.444   4.920   7.489 -3.4425 -2.1998 -1.2706
  108MOL   H16741041   0.378   4.808   7.624  1.1585 -1.2635  0.6175
  108MOL   H16841042   0.582   4.725   7.437  0.6359 -1.8488  1.8347
  108MOL   H16941043   0.485   4.639   7.554  1.6088 -0.9037 -1.6336
  108MOL   H17041044   0.274   4.690   7.438  1.3132 -2.6134  1.6944
  108MOL   H17141045   0.365   4.777   7.310 -0.5015 -1.1177 -1.6066
  108MOL   H17241046   0.389   4.604   7.332  2.3278 -0.6953  1.3585
  108MOL   C17341047   0.614   4.936   0.139 -0.1856  0.7723 -0.7973
  108MOL   C17441048   0.733   4.917   0.233 -0.0423  0.3667 -0.0361
  108MOL   O17541049   0.685   4.845   0.348  0.3704  0.1687 -0.3732
  108MOL   C17641050   0.590   4.914   0.435 -0.0087 -0.2407 -0.0559
  108MOL   C17741051   0.575   4.817   0.544  0.1848 -0.3916  0.2473
  108MOL   C17841052   0.703   4.805   0.630 -0.1464 -0.4469  0.5061
  108MOL   C17941053   0.682   4.744   0.772  0.0470 -0.2729  0.7374
  108MOL   H18041054   0.569   4.840   0.114 -0.4866  1.5353 -3.3087
  108MOL   H18141055   0.526   4.981   0.186  0.0436  0.1868  0.2172
  108MOL   H18241056   0.766   5.015   0.266  2.2733 -0.6226  0.6425
  108MOL   H18341057   0.492   4.931   0.390  0.0839 -0.1084 -0.2139
  108MOL   H18441058   0.629   5.011   0.466 -0.8411  0.0348  0.1403
  108MOL   H18541059   0.554   4.720   0.498 -1.4947  0.9091 -1.8304
  108MOL   H18641060   0.488   4.853   0.600 -0.6951  1.2506 -2.1069
  108MOL   H18741061   0.785   4.750   0.584 -0.2606 -0.7685  0.6829
  108MOL   H18841062   0.754   4.901   0.626  0.5740 -0.8260  0.5475
  108MOL   H18941063   0.615   4.805   0.833  0.7416 -0.3970  1.6521
  108MOL   H19041064   0.644   4.643   0.786  0.6209 -0.4935  0.7314
  108MOL   H19141065   0.777   4.743   0.825 -0.0208 -0.9988  0.8575
  108MOL   C19241066   0.847   4.843   0.170 -0.1253 -0.4781 -0.4140
  108MOL   C19341067   0.965   4.799   0.272 -0.0575 -0.1269  1.2654
  108MOL   O19441068   1.060   4.717   0.213 -0.1493 -0.2577 -0.2206
  108MOL   C19541069   1.019   4.585   0.195 -0.3252  0.3308  0.3141
  108MOL   C19641070   1.149   4.511   0.168 -0.0071 -0.9391  0.3743
  108MOL   C19741071   1.135   4.368   0.112 -0.0393 -0.4819  1.5116
  108MOL   C19841072   1.266   4.313   0.056 -0.2766 -0.0797 -0.3386
  108MOL   H19941073   0.887   4.903   0.089  0.1042 -1.1167 -0.7794
  108MOL   H20041074   0.814   4.755   0.114 -0.7535  0.9085 -2.2570
  108MOL   H20141075   0.923   4.746   0.358 -0.3606 -2.6823 -0.4085
  108MOL   H20241076   0.952   4.572   0.110  1.1095  3.0149 -1.3082
  108MOL   H20341077   0.970   4.548   0.285 -1.5524 -0.9690 -0.8682
  108MOL   H20441078   1.205   4.567   0.093 -2.2474 -0.3822 -0.9374
  108MOL   H20541079   1.206   4.523   0.260  1.0861  0.0224 -0.4088
  108MOL   H20641080   1.060   4.366   0.034  1.9774  2.8166 -0.6437
  108MOL   H20741081   1.100   4.293   0.184 -0.1419 -1.5271  0.3850
  108MOL   H20841082   1.307   4.389   7.791 -2.6917  0.8847 -0.7797
  108MOL   H20941083   1.346   4.292   0.127 -0.6845 -0.7961 -0.0869
  108MOL   H21041084   1.227   4.229   7.800  0.7442 -1.2872  0.6993
  108MOL   C21141085   1.046   4.918   0.315 -0.2314  0.4238 -0.0493
  108MOL   C21241086   1.160   4.894   0.419  0.1729 -0.2935 -0.6016
  108MOL   O21341087   1.213   5.024   0.464 -0.2585 -0.1594 -0.0056
  108MOL   C21441088   1.318   5.079   0.390  0.1987  0.2971 -0.1588
  108MOL   C21541089   1.351   5.221   0.434  0.1350  0.1675 -0.8269
  108MOL   C21641090   1.450   5.301   0.350 -0.2875  0.7146  0.0246
  108MOL   C21741091   1.584   5.238   0.326 -0.0489  0.1238  0.3357
  108MOL   H21841092   0.979   4.993   0.356  0.6453  0.9590  0.4289
  108MOL   H21941093   1.094   4.960   0.227 -2.3786  0.1710 -1.3605
  108MOL   H22041094   1.237   4.834   0.369 -2.9095 -2.6265 -2.6822
  108MOL   H22141095   1.409   5.020   0.383 -0.4876 -1.0959  2.0319
  108MOL   H22241096   1.293   5.091   0.284  3.5059 -0.0718 -1.0480
  108MOL   H22341097   1.253   5.270   0.427 -0.1007  0.0038  1.1910
  108MOL   H22441098   1.384   5.220   0.537  0.9842 -1.7289 -1.1046
  108MOL   H22541099   1.448   5.394   0.407  1.5611  0.2242  0.9470
  108MOL   H22641100   1.404   5.317   0.252 -0.9786  1.2587  0.4378
  108MOL   H22741101   1.633   5.216   0.421 -0.1534  1.2727  0.6632
  108MOL   H22841102   1.642   5.308   0.267 -1.0400  0.4224 -0.2980
  108MOL   H22941103   1.554   5.149   0.271 -0.7164 -0.2410  1.2716
  108MOL   C23041104   1.111   4.815   0.543  0.0272  0.4365 -1.1061
  108MOL   C23141105   1.216   4.807   0.662 -0.3699 -0.7377  0.1373
  108MOL   O23241106   1.150   4.731   0.756 -0.0982 -0.4661 -0.3481
  108MOL   C23341107   1.166   4.773   0.889  0.3356 -0.1850 -0.5585
  108MOL   C23441108   1.107   4.670   0.986 -0.1273 -0.5735 -0.5806
  108MOL   C23541109   1.109   4.732   1.131 -0.6098 -0.2632 -0.0515
  108MOL   C23641110   1.098   4.625   1.245 -0.3490  0.0419  0.9055
  108MOL   H23741111   1.107   4.713   0.504  0.2651  0.7382 -1.9174
  108MOL   H23841112   1.011   4.838   0.579 -0.3585 -1.5217 -0.8529
  108MOL   H23941113   1.227   4.909   0.698  0.5316 -1.4284  1.8641
  108MOL   H24041114   1.267   4.804   0.916 -0.3417  1.9008 -0.2692
  108MOL   H24141115   1.097   4.857   0.895 -0.7175 -1.2056  3.6413
  108MOL   H24241116   1.006   4.649   0.950  0.0094  0.0963 -1.3774
  108MOL   H24341117   1.162   4.576   0.995 -0.9528 -1.1309 -1.2270
  108MOL   H24441118   1.023   4.799   1.139 -0.4363 -0.1249  0.6770
  108MOL   H24541119   1.194   4.795   1.156 -0.5291 -1.2759  2.3325
  108MOL   H24641120   1.186   4.561   1.250 -0.4141 -0.1275 -0.1417
  108MOL   H24741121   1.011   4.560   1.239  0.4767 -0.9475 -0.3716
  108MOL   H24841122   1.088   4.686   1.335  0.9344  2.5651 -0.5916
  108MOL   C24941123   1.352   4.735   0.614 -0.0306  0.0548  0.8796
  108MOL   C25041124   1.465   4.728   0.721 -0.0826 -0.3173 -0.2900
  108MOL   O25141125   1.594   4.753   0.658 -0.3902  0.1563  0.1935
  108MOL   C25241126   1.619   4.894   0.642  0.1206  0.1473  0.0617
  108MOL   C25341127   1.747   4.916   0.557  0.0084 -0.8761  0.4834
  108MOL   C25441128   1.880   4.877   0.614 -0.3821  0.0615  0.0205
  108MOL   C25541129   2.008   4.925   0.547 -0.5068 -0.4797  0.1412
  108MOL   H25641130   1.395   4.789   0.529  3.3036  1.3252  3.2332
  108MOL   H25741131   1.326   4.635   0.581  2.0574 -0.6553  1.2782
  108MOL   H25841132   1.445   4.814   0.784  0.5287  0.2106 -0.8025
  108MOL   H25941133   1.627   4.960   0.729 -0.7683 -0.5974  0.7254
  108MOL   H26041134   1.535   4.941   0.591 -1.1733 -1.1068  0.9930
  108MOL   H26141135   1.725   4.865   0.463 -0.6316  0.5736 -0.1622
  108MOL   H26241136   1.753   5.023   0.535  3.2062 -1.2970 -1.0440
  108MOL   H26341137   1.876   4.905   0.720 -1.4844  0.6717 -0.1846
  108MOL   H26441138   1.885   4.768   0.612  0.4080 -0.0158  3.0675
  108MOL   H26541139   2.010   5.033   0.541  0.5894 -0.4925  0.0933
  108MOL   H26641140   2.012   4.885   0.445 -3.1737  1.7794 -0.8979
  108MOL   H26741141   2.095   4.889   0.602  0.3590 -0.3077 -1.0870
  108MOL   C26841142   1.453   4.591   0.793 -0.2627 -0.8375  0.2084
  108MOL   C26941143   1.531   4.574   0.923 -0.0005  0.0248  0.4919
  108MOL   O27041144   1.498   4.684   1.011 -0.0161 -0.1048  0.2313
  108MOL   C27141145   1.604   4.771   1.043 -0.4551 -0.4280  0.0156
  108MOL   C27241146   1.555   4.862   1.153 -0.4761 -0.7429  0.2269
  108MOL   C27341147   1.476   4.983   1.099  0.0642  0.0364  0.0263
  108MOL   C27441148   1.431   5.081   1.213 -0.3520  0.6583 -0.4109
  108MOL   H27541149   1.348   4.582   0.821 -0.9770 -1.3150 -2.4869
  108MOL   H27641150   1.479   4.513   0.721 -1.2170 -1.8409  0.9360
  108MOL   H27741151   1.638   4.575   0.904 -0.7034  1.3121 -3.8493
  108MOL   H27841152   1.691   4.720   1.084  0.9568  1.9071  0.0075
  108MOL   H27941153   1.644   4.833   0.963  1.5978 -0.6054  0.8895
  108MOL   H28041154   1.488   4.808   1.220 -0.1936 -0.0634  1.0619
  108MOL   H28141155   1.638   4.895   1.216 -0.8971 -0.9032  0.8640
  108MOL   H28241156   1.389   4.940   1.049  0.2373 -1.4484  0.9751
  108MOL   H28341157   1.527   5.029   1.015  0.7819 -2.1853 -0.8043
  108MOL   H28441158   1.367   5.161   1.173 -0.8170  1.1227  1.2244
  108MOL   H28541159   1.518   5.130   1.258 -0.3739 -0.5481  0.9756
  108MOL   H28641160   1.371   5.031   1.289  1.1377 -3.0754 -1.6015
  108MOL   C28741161   1.474   4.450   0.995  0.1442 -0.3333 -0.4092
  108MOL   C28841162   1.551   4.409   1.123 -0.1708  0.4388  0.2359
  108MOL   O28941163   1.682   4.372   1.086 -0.2682 -0.1638 -0.4926
  108MOL   C29041164   1.791   4.406   1.173 -0.0443 -0.5239 -0.5494
  108MOL   C29141165   1.907   4.326   1.146 -0.5891 -0.1140 -0.0648
  108MOL   C29241166   1.891   4.180   1.188 -0.2695 -0.4858 -0.0945
  108MOL   C29341167   2.019   4.099   1.149  0.4833  0.2958 -0.3061
  108MOL   H29441168   1.488   4.372   0.919  0.9247 -0.6007  0.0009
  108MOL   H29541169   1.368   4.467   1.012  0.0170 -1.2999 -0.1795
  108MOL   H29641170   1.547   4.500   1.183 -0.0128 -1.1758  2.7674
  108MOL   H29741171   1.828   4.505   1.144  1.3198 -0.9338 -0.2208
  108MOL   H29841172   1.778   4.403   1.281  1.6480  1.0341 -0.2699
  108MOL   H29941173   1.989   4.368   1.203 -0.4708 -0.2401 -0.1431
  108MOL   H30041174   1.947   4.327   1.045 -0.9322  1.2948 -0.1966
  108MOL   H30141175   1.805   4.138   1.135 -0.4592 -0.4345  0.1741
  108MOL   H30241176   1.877   4.183   1.296 -1.5071  0.8819 -0.2776
  108MOL   H30341177   2.107   4.153   1.184  0.6353  0.8974 -1.6007
  108MOL   H30441178   2.017   4.005   1.205  0.1874  1.6895  2.1161
  108MOL   H30541179   2.033   4.076   1.044 -2.7620  0.7290 -0.8839
  108MOL   C30641180   1.489   4.288   1.203  0.1554  0.1657 -0.6205
  108MOL   C30741181   1.431   4.173   1.121 -0.6626 -0.2177  0.2834
  108MOL   O30841182   1.293   4.196   1.091  0.0454 -0.4300 -0.3169
  108MOL   C30941183   1.225   4.116   0.996 -0.4413  0.4195  0.5099
  108MOL   C31041184   1.095   4.191   0.951  0.5941  0.4727 -0.8217
  108MOL   C31141185   1.008   4.221   1.073  0.2130  0.3454  0.1723
  108MOL   C31241186   0.922   4.104   1.112  0.0575 -0.4107  0.2323
  108MOL   H31341187   1.574   4.242   1.255 -0.3943 -0.5845 -0.3768
  108MOL   H31441188   1.416   4.307   1.282  0.4296  1.3168 -0.6311
  108MOL   H31541189   1.471   4.173   1.019 -1.9647  0.4815 -0.2386
  108MOL   H31641190   1.204   4.024   1.050 -0.2793  0.4196  0.5735
  108MOL   H31741191   1.296   4.099   0.915 -0.9874 -0.2455  0.1629
  108MOL   H31841192   1.043   4.135   0.873 -0.0537  0.4716 -0.3964
  108MOL   H31941193   1.127   4.285   0.906  1.5716  0.5361 -0.0217
  108MOL   H32041194   1.055   4.259   1.164 -0.9526  0.9738  0.5224
  108MOL   H32141195   0.944   4.305   1.047 -1.5933 -0.4200  2.0212
  108MOL   H32241196   0.975   4.011   1.135  1.8838  0.0766 -1.8603
  108MOL   H32341197   0.868   4.076   1.022 -0.2113  3.4933 -0.8999
  108MOL   H32441198   0.853   4.116   1.196  1.1092 -2.4795  1.4431
  108MOL   C32541199   1.461   4.029   1.178  0.1004 -0.7782 -0.0809
  108MOL   C32641200   1.397   3.992   1.317  0.7566 -0.6763 -0.0664
  108MOL   O32741201   1.393   3.858   1.300  0.7889  0.1228 -0.4482
  108MOL   C32841202   1.271   3.792   1.326  0.3657  0.4574  0.3132
  108MOL   C32941203   1.294   3.640   1.318  0.2052  0.1577 -0.2097
  108MOL   C33041204   1.341   3.585   1.457 -0.8532  0.4721 -0.0027
  108MOL   C33141205   1.356   3.433   1.459 -0.4737 -0.3125  0.5362
  108MOL   H33241206   1.569   4.018   1.181  0.1869  0.2606  0.9113
  108MOL   H33341207   1.430   3.959   1.100 -0.2914  0.7518 -1.3108
  108MOL   H33441208   1.300   4.041   1.325  0.7599 -0.8822  1.2946
  108MOL   H33541209   1.197   3.808   1.248 -0.1795 -0.3028  0.6746
  108MOL   H33641210   1.226   3.825   1.420 -1.1682  0.9551 -0.5715
  108MOL   H33741211   1.199   3.591   1.295  0.4006 -0.0497 -0.5731
  108MOL   H33841212   1.360   3.604   1.239  0.2066  1.0597 -0.6297
  108MOL   H33941213   1.273   3.611   1.538  0.6730  1.3919  1.0169
  108MOL   H34041214   1.435   3.635   1.483 -0.9837 -0.0543  1.5258
  108MOL   H34141215   1.420   3.412   1.544 -0.1325 -1.0981  0.0924
  108MOL   H34241216   1.402   3.404   1.365 -1.3013 -0.2651  0.1120
  108MOL   H34341217   1.257   3.387   1.462 -0.6911  0.1068 -0.2320
  108MOL   C34441218   1.484   4.034   1.435  0.1063 -0.2145 -0.5707
  108MOL   C34541219   1.417   4.026   1.566  0.1136 -0.1864 -0.2030
  108MOL   O34641220   1.311   4.118   1.561  0.9046  0.4576 -0.2938
  108MOL   C34741221   1.191   4.069   1.618 -0.1060  0.0285 -0.8800
  108MOL   C34841222   1.109   4.197   1.625 -0.0728 -0.4314 -0.7252
  108MOL   C34941223   1.155   4.289   1.738 -0.9187 -0.5965  0.0628
  108MOL   C35041224   1.065   4.417   1.743  0.5083  0.4709  0.7117
  108MOL   H35141225   1.567   3.963   1.441 -0.6588 -0.9184  2.0165
  108MOL   H35241226   1.511   4.136   1.407 -0.2352  0.1503  0.4044
  108MOL   H35341227   1.383   3.923   1.580 -0.4194  0.0137 -0.0146
  108MOL   H35441228   1.210   4.021   1.714  1.7848  1.1082 -0.6851
  108MOL   H35541229   1.149   4.009   1.538  0.2560  1.7937 -2.4303
  108MOL   H35641230   1.007   4.175   1.656 -0.0148  0.3035 -0.0038
  108MOL   H35741231   1.102   4.238   1.524 -2.3589 -0.6368 -0.6766
  108MOL   H35841232   1.159   4.226   1.827  1.5651 -0.8503 -0.1879
  108MOL   H35941233   1.256   4.320   1.712 -1.6120  0.2942 -1.5860
  108MOL   H36041234   1.088   4.468   1.650 -1.8960 -0.6715 -0.5638
  108MOL   H36141235   1.098   4.476   1.828  2.2804  1.7423 -0.8252
  108MOL   H36241236   0.958   4.395   1.740  0.4190  1.1298 -2.6904
  108MOL   C36341237   1.510   4.054   1.686 -0.6769  0.0364 -0.6089
  108MOL   C36441238   1.607   3.937   1.723 -0.8654  0.6025 -0.2620
  108MOL   O36541239   1.700   3.990   1.820 -0.7813  0.2013 -0.2138
  108MOL   C36641240   1.786   3.883   1.877  0.1144 -0.9071 -0.2216
  108MOL   C36741241   1.906   3.955   1.956  0.0268  0.6339 -0.6180
  108MOL   C36841242   1.994   3.851   2.021  0.4939 -0.3544  0.4059
  108MOL   C36941243   2.095   3.917   2.122 -0.3106  0.2673  0.1968
  108MOL   H37041244   1.449   4.076   1.773  1.1447  1.2600  0.3899
  108MOL   H37141245   1.556   4.153   1.680 -1.4171  0.4453  0.2986
  108MOL   H37241246   1.662   3.902   1.636 -2.0768  0.3462 -0.9390
  108MOL   H37341247   1.831   3.815   1.805  2.6929 -0.6156  1.0780
  108MOL   H37441248   1.724   3.821   1.942  1.2882  0.5809  2.3883
  108MOL   H37541249   1.865   4.026   2.028  1.3807  2.0797 -1.2464
  108MOL   H37641250   1.953   4.019   1.881  0.5356  2.8062  1.4809
  108MOL   H37741251   2.057   3.802   1.947  3.2970 -0.9327  3.0722
  108MOL   H37841252   1.936   3.771   2.065 -1.3596  0.3576 -0.6637
  108MOL   H37941253   2.045   3.943   2.215 -1.3377 -0.5324 -0.1195
  108MOL   H38041254   2.161   3.836   2.153  0.1756 -0.2716 -2.1546
  108MOL   H38141255   2.154   4.002   2.086 -1.8726  1.0919 -0.4308
  108MOL   H38241256   1.551   3.853   1.763  1.9731 -0.6510  1.1832
  109MOL     C141257   6.458   0.162   0.817 -0.2849 -0.3178  0.7020
  109MOL     C241258   6.389   0.039   0.750 -0.0406  0.0812  0.2409
  109MOL     O341259   6.372   0.051   0.610 -0.0271 -0.3968 -0.7172
  109MOL     C441260   6.239   0.021   0.572  0.1590 -0.2941 -0.3418
  109MOL     C541261   6.250   0.027   0.416  0.2641 -0.2434 -0.6816
  109MOL     C641262   6.332   7.710   0.365 -0.8135 -0.8978  0.3617
  109MOL     C741263   6.349   7.714   0.213  0.2955 -0.1409  0.3375
  109MOL     H841264   6.551   0.182   0.765 -0.0382  0.2817  1.3663
  109MOL     H941265   6.391   0.248   0.811  2.0123  1.4719  0.0343
  109MOL    H1041266   6.292   0.031   0.798  0.1027 -0.8925  0.3822
  109MOL    H1141267   6.202   7.725   0.600 -2.1171 -0.1954 -2.8970
  109MOL    H1241268   6.162   0.094   0.597  1.4220  1.0373 -0.2702
  109MOL    H1341269   6.302   0.120   0.393  3.5976 -2.3777 -2.1631
  109MOL    H1441270   6.153   0.018   0.368  1.0773  1.0238 -2.6228
  109MOL    H1541271   6.289   7.610   0.375 -0.3297 -1.1652 -0.2135
  109MOL    H1641272   6.433   7.711   0.405 -0.4477 -0.3494 -0.5804
  109MOL    H1741273   6.397   0.005   0.180 -1.0842 -0.7573 -3.6910
  109MOL    H1841274   6.251   7.706   0.165  0.7707  1.7268 -1.0183
  109MOL    H1941275   6.410   7.632   0.177  0.1739 -0.8509  1.7354
  109MOL    H2041276   6.472   0.127   0.920 -0.2384  1.6482  1.3708
  109MOL    C2141277   6.468   7.716   0.779  0.5051  0.4632 -0.8555
  109MOL    C2241278   6.392   7.579   0.745 -0.2853  0.7471 -0.1388
  109MOL    O2341279   6.491   7.478   0.754 -0.0197  0.1867 -0.0826
  109MOL    C2441280   6.537   7.426   0.628  0.3802  0.0284  0.5534
  109MOL    C2541281   6.623   7.298   0.646 -0.9608 -0.3651 -0.8080
  109MOL    C2641282   6.761   7.332   0.718 -0.1071 -0.0336 -0.2735
  109MOL    C2741283   6.829   7.195   0.764  0.3654 -1.0316  0.1786
  109MOL    H2841284   6.497   7.704   0.884  1.7349 -1.2180 -1.3634
  109MOL    H2941285   6.564   7.713   0.728  1.0683 -1.3810  0.2599
  109MOL    H3041286   6.350   7.591   0.645 -0.2941 -0.9708 -0.3633
  109MOL    H3141287   6.583   7.507   0.571 -1.1801 -0.0401 -0.8192
  109MOL    H3241288   6.458   7.403   0.556  1.6022  1.1967 -1.2185
  109MOL    H3341289   6.573   7.218   0.701 -0.9031  1.7627  2.4451
  109MOL    H3441290   6.658   7.267   0.548  1.1583 -1.1142  0.1531
  109MOL    H3541291   6.823   7.380   0.642  2.6910 -3.5759 -0.3717
  109MOL    H3641292   6.738   7.398   0.801 -2.6070 -1.0725 -0.1043
  109MOL    H3741293   6.936   7.203   0.782  0.5705 -3.3224  0.1343
  109MOL    H3841294   6.794   7.162   0.862  0.4400  0.3901  0.7047
  109MOL    H3941295   6.817   7.119   0.688 -1.0126 -0.8976  0.2461
  109MOL    C4041296   6.277   7.538   0.839 -0.3168  0.8153  0.0574
  109MOL    C4141297   6.196   7.424   0.781  0.3795  0.5183  0.3294
  109MOL    O4241298   6.108   7.488   0.692 -0.0081  0.0058 -0.4910
  109MOL    C4341299   6.079   7.434   0.569  0.3396  0.1568  0.0548
  109MOL    C4441300   5.954   7.508   0.510 -0.2892  0.0360  0.1796
  109MOL    C4541301   5.816   7.463   0.571 -0.7286  0.5715  0.0232
  109MOL    C4641302   5.695   7.524   0.495  0.0926 -0.1902 -0.6980
  109MOL    H4741303   6.219   7.627   0.864  0.6806  1.7452 -0.8503
  109MOL    H4841304   6.324   7.520   0.936 -2.6431 -0.4266  0.9936
  109MOL    H4941305   6.254   7.349   0.727  0.9254 -0.0337  1.6714
  109MOL    H5041306   6.081   7.325   0.567 -1.4976  0.0742  1.1797
  109MOL    H5141307   6.159   7.477   0.509 -0.8118  0.9288 -0.9724
  109MOL    H5241308   5.940   7.486   0.404  1.0773 -0.7813  0.1589
  109MOL    H5341309   5.966   7.615   0.529 -0.4249 -0.2751  2.1118
  109MOL    H5441310   5.805   7.499   0.673 -1.5345  1.5417 -0.3901
  109MOL    H5541311   5.801   7.357   0.552  2.0607  0.1797 -0.1512
  109MOL    H5641312   5.685   7.630   0.518 -0.2962 -0.1680 -0.9732
  109MOL    H5741313   5.712   7.500   0.390  2.7045 -0.5996 -0.2113
  109MOL    H5841314   5.600   7.482   0.528 -0.3873  1.7777  0.4870
  109MOL    C5941315   6.114   7.346   0.887 -0.2488 -0.3095  0.4817
  109MOL    C6041316   6.185   7.232   0.964 -0.1942  0.5178  0.3780
  109MOL    O6141317   6.075   7.164   1.038  0.1621  0.0040 -0.0246
  109MOL    C6241318   6.064   7.208   1.174  0.3042  0.3990  0.5305
  109MOL    C6341319   5.970   7.109   1.251 -0.5014 -0.1164  0.2504
  109MOL    C6441320   5.820   7.118   1.204 -0.5641 -0.5713 -0.3687
  109MOL    C6541321   5.730   7.068   1.322 -0.5163 -0.0519 -0.4891
  109MOL    H6641322   6.063   7.419   0.948  1.0755 -0.0450  1.2991
  109MOL    H6741323   6.038   7.301   0.823  1.1272 -2.7327  0.4705
  109MOL    H6841324   6.257   7.276   1.034 -0.7607  0.2848  1.1124
  109MOL    H6941325   6.020   7.307   1.187 -3.7001 -1.0606 -1.1823
  109MOL    H7041326   6.158   7.212   1.229 -0.5609 -2.0353  2.2715
  109MOL    H7141327   6.002   7.005   1.252  0.4014  0.1668  1.8258
  109MOL    H7241328   5.963   7.135   1.356 -0.2542  1.6495 -0.1476
  109MOL    H7341329   5.789   7.214   1.165  0.3264  0.6767  1.8647
  109MOL    H7441330   5.806   7.041   1.129  2.0672 -1.1424 -0.3421
  109MOL    H7541331   5.731   7.129   1.412 -1.3805  2.7659 -2.3505
  109MOL    H7641332   5.624   7.069   1.297 -0.5134 -0.2992 -0.5195
  109MOL    H7741333   5.765   6.968   1.348 -0.5537 -0.2522 -1.1786
  109MOL    C7841334   6.243   7.118   0.875 -0.3399  0.1656  0.2268
  109MOL    C7941335   6.333   7.031   0.973 -0.1228  0.8792 -0.0506
  109MOL    O8041336   6.444   7.118   1.006 -0.1181 -0.7334 -0.0273
  109MOL    C8141337   6.481   7.093   1.146 -0.1665 -0.8236  0.3092
  109MOL    C8241338   6.637   7.124   1.160 -0.3664  0.6257  0.4212
  109MOL    C8341339   6.721   7.002   1.127  0.1597  0.3504  0.2091
  109MOL    C8441340   6.874   7.040   1.123 -0.0942 -0.0765  1.1055
  109MOL    H8541341   6.299   7.156   0.790  0.1945  1.1892  1.0219
  109MOL    H8641342   6.166   7.054   0.832 -1.6424 -0.0634  2.7823
  109MOL    H8741343   6.264   7.006   1.053 -0.6156 -1.3782 -1.1443
  109MOL    H8841344   6.453   6.994   1.181 -1.0185 -0.5728  0.3442
  109MOL    H8941345   6.429   7.160   1.215 -1.1837 -1.6499  0.3406
  109MOL    H9041346   6.664   7.207   1.094 -0.6098  0.0470 -0.4146
  109MOL    H9141347   6.677   7.156   1.256  4.7842 -0.0092 -1.3751
  109MOL    H9241348   6.710   6.965   1.025 -0.7803 -0.4365  0.5902
  109MOL    H9341349   6.709   6.918   1.195 -0.1354  1.6957  1.8632
  109MOL    H9441350   6.886   7.125   1.056  1.6054 -0.8099  0.4584
  109MOL    H9541351   6.916   7.053   1.223  1.9204  0.1167  0.2515
  109MOL    H9641352   6.936   6.969   1.069 -3.2479 -0.5025 -2.0858
  109MOL    C9741353   6.394   6.904   0.922  0.7712  0.5528 -0.2021
  109MOL    C9841354   6.315   6.771   0.963  0.5132 -1.0601  0.0466
  109MOL    O9941355   6.192   6.768   0.895  0.0259 -0.1446  0.2552
  109MOL   C10041356   6.084   6.774   0.988  0.7643 -0.3056  0.7545
  109MOL   C10141357   5.946   6.779   0.923 -0.0271  0.4923  0.3996
  109MOL   C10241358   5.844   6.742   1.033 -0.1756  0.0529  0.2256
  109MOL   C10341359   5.694   6.768   0.998 -0.5104 -0.3412  0.3286
  109MOL   H10441360   6.496   6.904   0.961  0.8258 -0.2946 -0.3301
  109MOL   H10541361   6.400   6.909   0.813 -0.7911 -1.7301 -0.4252
  109MOL   H10641362   6.316   6.763   1.071  2.7686 -0.5145  0.0870
  109MOL   H10741363   6.093   6.854   1.061 -1.6330  2.4055 -1.7969
  109MOL   H10841364   6.089   6.679   1.042 -0.9126 -0.9609 -0.1967
  109MOL   H10941365   5.921   6.706   0.845 -1.1834 -1.9435  2.9424
  109MOL   H11041366   5.922   6.878   0.886 -1.1969 -0.1417 -0.6132
  109MOL   H11141367   5.873   6.788   1.127  2.9875 -1.4987  0.0885
  109MOL   H11241368   5.856   6.635   1.048 -1.9057 -0.1451  0.2358
  109MOL   H11341369   5.637   6.735   1.084 -3.0309  0.0843 -1.1344
  109MOL   H11441370   5.682   6.875   0.979  0.0836 -0.1899  0.7919
  109MOL   H11541371   5.659   6.708   0.914 -1.0482 -0.8825  0.9366
  109MOL   C11641372   6.394   6.644   0.931 -0.7605 -0.1838 -0.4907
  109MOL   C11741373   6.360   6.518   1.017 -0.3575  0.0280  0.1859
  109MOL   O11841374   6.317   6.413   0.934 -0.4711 -0.8997 -0.3278
  109MOL   C11941375   6.194   6.432   0.864  0.1257 -0.1502 -0.4112
  109MOL   C12041376   6.169   6.301   0.777  0.0507  0.2724 -0.0875
  109MOL   C12141377   6.127   6.174   0.850  0.2259  0.0636 -0.5540
  109MOL   C12241378   6.246   6.117   0.932 -0.0774 -0.1855 -0.8077
  109MOL   H12341379   6.392   6.617   0.826  0.6963 -1.5682 -0.1746
  109MOL   H12441380   6.498   6.667   0.957 -0.2887 -1.9480 -0.7836
  109MOL   H12541381   6.267   6.538   1.072  0.3517 -0.6122  1.6478
  109MOL   H12641382   6.203   6.527   0.811 -0.1626  1.1692  1.8624
  109MOL   H12741383   6.125   6.432   0.948 -0.6733  0.4881 -1.0580
  109MOL   H12841384   6.270   6.279   0.745 -0.0438  1.2635 -1.0870
  109MOL   H12941385   6.109   6.328   0.690  1.2741 -0.8049 -1.2794
  109MOL   H13041386   6.038   6.206   0.905  1.1413 -0.8526  1.5248
  109MOL   H13141387   6.098   6.103   0.772 -1.0232 -1.7873  1.5161
  109MOL   H13241388   6.339   6.101   0.877 -0.0951 -0.5654 -0.7260
  109MOL   H13341389   6.241   6.016   0.972 -1.4840 -0.3470 -1.3729
  109MOL   H13441390   6.275   6.188   1.009 -0.6859  0.9396 -1.5976
  109MOL   C13541391   6.465   6.461   1.107  0.3859  0.0939 -0.3108
  109MOL   C13641392   6.410   6.368   1.219 -0.6044 -0.1043 -0.9009
  109MOL   O13741393   6.519   6.296   1.268 -0.4548 -0.3967  0.3477
  109MOL   C13841394   6.540   6.180   1.198 -0.4634  0.3838 -0.2755
  109MOL   C13941395   6.649   6.105   1.274  0.1327 -0.4504 -0.2044
  109MOL   C14041396   6.612   6.063   1.418  0.5270 -0.1171 -0.3684
  109MOL   C14141397   6.703   5.965   1.490 -0.0042 -0.0990 -0.4940
  109MOL   H14241398   6.536   6.536   1.142  1.2267 -0.5668 -0.5706
  109MOL   H14341399   6.528   6.403   1.039  0.9171  0.5821 -0.2393
  109MOL   H14441400   6.329   6.315   1.168 -2.0522  1.3168 -0.1432
  109MOL   H14541401   6.581   6.197   1.098  2.5483  1.0734  1.0012
  109MOL   H14641402   6.453   6.115   1.202  0.9282 -1.5615 -0.4785
  109MOL   H14741403   6.745   6.155   1.286  0.3761 -0.8545 -0.4542
  109MOL   H14841404   6.684   6.018   1.217  0.3081  0.0684 -0.8981
  109MOL   H14941405   6.588   6.153   1.476 -2.0388  0.5166 -2.2752
  109MOL   H15041406   6.518   6.007   1.419  1.1224 -1.1395  1.4591
  109MOL   H15141407   6.687   5.866   1.447 -1.2513 -0.5850  1.0645
  109MOL   H15241408   6.809   5.988   1.474 -0.3887  1.4115 -0.9635
  109MOL   H15341409   6.672   5.949   1.593 -1.4398  0.8214 -0.7684
  109MOL   C15441410   6.356   6.444   1.342  0.5280 -0.0763 -0.2588
  109MOL   C15541411   6.215   6.408   1.394  0.3554  0.4182 -0.1711
  109MOL   O15641412   6.161   6.507   1.480 -0.5785  0.1737  0.5355
  109MOL   C15741413   6.074   6.604   1.420 -0.2347  0.2563 -0.7089
  109MOL   C15841414   6.084   6.732   1.502 -0.8685  0.1902 -0.4130
  109MOL   C15941415   6.221   6.806   1.470  0.0048 -0.4164 -0.1754
  109MOL   C16041416   6.257   6.922   1.571  0.3493  0.3543  0.1646
  109MOL   H16141417   6.345   6.547   1.307 -0.5705  0.2884  1.1202
  109MOL   H16241418   6.420   6.459   1.429 -1.3411  0.8289  0.9925
  109MOL   H16341419   6.144   6.409   1.311  0.7036 -3.0356 -0.5806
  109MOL   H16441420   6.085   6.627   1.314 -1.5738  1.4368 -0.6079
  109MOL   H16541421   5.974   6.566   1.438  0.4671 -0.7704  1.2033
  109MOL   H16641422   6.063   6.709   1.606 -1.0818  1.6876 -0.1092
  109MOL   H16741423   6.000   6.793   1.468 -3.4075 -2.8412  0.1646
  109MOL   H16841424   6.290   6.724   1.485  0.5114 -0.5655 -2.9720
  109MOL   H16941425   6.220   6.835   1.365  1.2578 -0.7593 -0.2851
  109MOL   H17041426   6.352   6.967   1.544  0.0880 -0.0633 -1.5618
  109MOL   H17141427   6.177   6.996   1.579 -0.3100  0.0025 -2.5952
  109MOL   H17241428   6.262   6.885   1.673  1.7559 -0.0145 -0.0287
  109MOL   C17341429   6.192   6.289   1.483  1.0673  0.1926  0.0123
  109MOL   C17441430   6.042   6.264   1.515  0.5406  0.3841  0.4766
  109MOL   O17541431   5.974   6.247   1.392  0.1857  0.0175  0.0742
  109MOL   C17641432   5.831   6.259   1.392  0.2135 -0.2914  0.3357
  109MOL   C17741433   5.763   6.274   1.257 -0.0224  0.0235 -0.8247
  109MOL   C17841434   5.803   6.384   1.164  1.0405 -0.5673 -0.4022
  109MOL   C17941435   5.742   6.366   1.027  0.2812 -0.4969  0.2257
  109MOL   H18041436   6.251   6.294   1.575  0.1396 -0.7658  0.6707
  109MOL   H18141437   6.226   6.194   1.443 -0.7466 -0.1431 -0.7505
  109MOL   H18241438   6.004   6.350   1.570  0.1144  0.7336 -0.3540
  109MOL   H18341439   5.802   6.352   1.441  0.9553  0.2839 -0.3080
  109MOL   H18441440   5.772   6.205   1.466 -2.5698  0.9546 -0.9349
  109MOL   H18541441   5.656   6.288   1.265  0.1683  1.0967 -0.0510
  109MOL   H18641442   5.783   6.183   1.201  0.4823 -1.3206  1.4496
  109MOL   H18741443   5.771   6.479   1.207 -3.5061 -1.2706 -1.9908
  109MOL   H18841444   5.911   6.390   1.153  0.7405  1.7012 -2.5446
  109MOL   H18941445   5.755   6.454   0.963  1.7213 -1.8468 -1.3783
  109MOL   H19041446   5.776   6.269   0.991  0.4268 -0.7112  0.9152
  109MOL   H19141447   5.634   6.366   1.037  0.2345 -2.6128 -0.1074
  109MOL   C19241448   6.021   6.138   1.597 -0.6614  0.3965  0.1838
  109MOL   C19341449   6.071   6.129   1.743 -0.1912  0.1132 -0.1980
  109MOL   O19441450   6.211   6.149   1.751 -0.2387  0.1977  0.0370
  109MOL   C19541451   6.292   6.046   1.707  0.5465 -0.2593 -0.5665
  109MOL   C19641452   6.429   6.065   1.766 -0.1313  0.0139 -0.2610
  109MOL   C19741453   6.440   6.030   1.913  0.7793 -0.1598 -0.2811
  109MOL   C19841454   6.584   6.020   1.962 -0.0900  0.0431 -0.0262
  109MOL   H19941455   6.070   6.056   1.545  0.6363 -0.6719  2.9651
  109MOL   H20041456   5.916   6.112   1.603 -0.2096 -1.5751 -0.2824
  109MOL   H20141457   6.045   6.031   1.783  0.2341 -0.1808 -0.6443
  109MOL   H20241458   6.294   6.043   1.598  0.9767 -0.1641 -0.5625
  109MOL   H20341459   6.258   5.946   1.734  0.0880 -0.7924 -2.9999
  109MOL   H20441460   6.503   6.015   1.705  0.6173  1.0931 -0.2348
  109MOL   H20541461   6.452   6.169   1.746 -0.8273  0.4793  1.2426
  109MOL   H20641462   6.407   5.926   1.913  0.3262 -0.0381 -2.1370
  109MOL   H20741463   6.375   6.080   1.984 -0.3972 -2.0980  0.0538
  109MOL   H20841464   6.645   6.105   1.933  1.7917 -1.7949 -1.6956
  109MOL   H20941465   6.600   5.995   2.067  1.3803  3.0255  0.5052
  109MOL   H21041466   6.630   5.936   1.908 -1.2210  0.1109 -1.1232
  109MOL   C21141467   6.022   6.252   1.838 -0.2327 -0.4596 -0.0627
  109MOL   C21241468   5.873   6.290   1.844 -0.1704  0.9660 -0.0312
  109MOL   O21341469   5.798   6.207   1.930 -0.3261 -0.1069  0.1800
  109MOL   C21441470   5.751   6.084   1.873 -0.8857  0.2087  0.3310
  109MOL   C21541471   5.671   6.007   1.986  0.8681 -0.3114  0.1896
  109MOL   C21641472   5.525   6.063   1.998  1.2038 -0.5299 -0.5054
  109MOL   C21741473   5.437   5.971   2.078  0.2274 -0.2064 -0.1360
  109MOL   H21841474   6.093   6.333   1.823  0.0691 -1.1995 -2.8110
  109MOL   H21941475   6.056   6.215   1.935  1.0306  1.3602  0.2222
  109MOL   H22041476   5.826   6.296   1.746  0.8213  1.7313 -0.4660
  109MOL   H22141477   5.702   6.090   1.776 -1.3089 -0.2500  0.5149
  109MOL   H22241478   5.847   6.032   1.866 -1.4446 -0.6881 -0.8022
  109MOL   H22341479   5.657   5.902   1.960 -2.0803  0.3688 -1.1341
  109MOL   H22441480   5.721   6.016   2.083 -1.1431 -0.7960  1.2976
  109MOL   H22541481   5.479   6.079   1.901  2.8215 -1.0691 -1.3828
  109MOL   H22641482   5.536   6.159   2.049  0.9116 -1.0808  0.6115
  109MOL   H22741483   5.444   5.872   2.032  3.1672  0.3435 -0.9442
  109MOL   H22841484   5.329   5.990   2.085  0.4134  1.0823 -0.7338
  109MOL   H22941485   5.483   5.946   2.174 -0.2548  0.2556  0.2243
  109MOL   C23041486   5.861   6.430   1.901 -0.4556  0.1485 -0.4471
  109MOL   C23141487   5.730   6.511   1.877 -0.3550 -0.3205 -0.1145
  109MOL   O23241488   5.706   6.529   1.739 -0.2971 -0.0797  0.9219
  109MOL   C23341489   5.722   6.662   1.692  0.0587 -0.5930 -0.7585
  109MOL   C23441490   5.694   6.673   1.539 -0.7346 -0.2984 -0.6441
  109MOL   C23541491   5.553   6.647   1.487 -0.3817  0.0807  0.0190
  109MOL   C23641492   5.544   6.655   1.339  0.1555 -0.0520 -0.2028
  109MOL   H23741493   5.942   6.482   1.850 -0.8076 -0.5453 -1.7257
  109MOL   H23841494   5.891   6.426   2.006  1.9391  1.5982 -1.0360
  109MOL   H23941495   5.732   6.609   1.923 -0.2342 -0.1113 -0.5571
  109MOL   H24041496   5.670   6.740   1.748 -0.2847 -0.2193 -1.5864
  109MOL   H24141497   5.826   6.689   1.712 -0.2747 -0.8178  1.4728
  109MOL   H24241498   5.733   6.773   1.522  0.1382 -0.6164 -0.5329
  109MOL   H24341499   5.762   6.596   1.502  0.5949 -0.6226  2.3076
  109MOL   H24441500   5.492   6.724   1.535 -1.6999  0.0003 -1.4608
  109MOL   H24541501   5.517   6.549   1.519 -1.4898  0.6086  0.4313
  109MOL   H24641502   5.571   6.749   1.289 -1.8034 -0.0514 -1.2912
  109MOL   H24741503   5.444   6.627   1.306  0.0202 -0.0619  0.2111
  109MOL   H24841504   5.605   6.581   1.287  0.8419 -0.3228  0.9628
  109MOL   C24941505   5.605   6.439   1.930  0.5808  0.6578 -0.2002
  109MOL   C25041506   5.486   6.534   1.951  0.2215  0.5028  0.2149
  109MOL   O25141507   5.520   6.614   2.064  0.0937 -0.4000 -0.4940
  109MOL   C25241508   5.500   6.756   2.037 -1.0657 -0.1654  0.4612
  109MOL   C25341509   5.563   6.841   2.149  0.9104  0.7101 -0.2722
  109MOL   C25441510   5.712   6.804   2.175 -0.0772 -0.5206 -0.4078
  109MOL   C25541511   5.768   6.836   2.315 -0.5587 -0.0247 -0.3316
  109MOL   H25641512   5.625   6.391   2.026 -1.5507  1.4717  0.6700
  109MOL   H25741513   5.589   6.367   1.849  2.6940  0.2323 -0.2673
  109MOL   H25841514   5.473   6.596   1.862 -0.9258 -0.4559 -0.2886
  109MOL   H25941515   5.394   6.777   2.044 -0.9142  0.8405 -0.1298
  109MOL   H26041516   5.541   6.786   1.940 -1.5488  2.0646  0.9112
  109MOL   H26141517   5.552   6.949   2.136 -1.8750  0.3155 -1.5548
  109MOL   H26241518   5.494   6.816   2.230 -0.7723  1.0856 -1.5564
  109MOL   H26341519   5.713   6.696   2.161  0.9789 -0.4817 -0.7206
  109MOL   H26441520   5.764   6.840   2.086 -1.1660  1.9937 -0.0719
  109MOL   H26541521   5.706   6.799   2.397 -1.1605  2.0782  0.1893
  109MOL   H26641522   5.788   6.942   2.322 -0.9103  0.1173 -1.4040
  109MOL   H26741523   5.867   6.792   2.328 -1.0815 -1.3443 -0.6827
  109MOL   C26841524   5.357   6.461   1.992 -0.2567 -0.5115 -0.4390
  109MOL   C26941525   5.227   6.523   1.946  0.7127 -0.2801  0.1102
  109MOL   O27041526   5.214   6.536   1.806 -0.2506 -0.0129 -0.1018
  109MOL   C27141527   5.152   6.651   1.751 -0.0141  0.2041  0.3896
  109MOL   C27241528   5.180   6.670   1.602 -0.6245 -0.4967 -0.0092
  109MOL   C27341529   5.157   6.540   1.521 -0.7986  0.1050 -0.0802
  109MOL   C27441530   5.138   6.576   1.376 -0.2030  0.0719 -0.6147
  109MOL   H27541531   5.362   6.360   1.953  1.7391 -0.9723  0.9015
  109MOL   H27641532   5.360   6.448   2.100  0.2649  1.1941 -0.2258
  109MOL   H27741533   5.223   6.626   1.982  2.7180 -0.3577  0.6494
  109MOL   H27841534   5.045   6.632   1.765  0.4565 -0.5744  3.1848
  109MOL   H27941535   5.184   6.745   1.797  0.6258 -1.2434  3.0121
  109MOL   H28041536   5.114   6.751   1.570  0.8147  1.4319  1.7509
  109MOL   H28141537   5.281   6.709   1.592 -0.5997 -0.0272  1.8300
  109MOL   H28241538   5.074   6.489   1.570  2.2722 -3.2563  1.9226
  109MOL   H28341539   5.242   6.474   1.539 -0.2640  0.9847  0.7002
  109MOL   H28441540   5.225   6.630   1.337 -0.0384 -0.3833 -0.8851
  109MOL   H28541541   5.055   6.646   1.372  2.0122  2.7038 -2.2328
  109MOL   H28641542   5.114   6.494   1.307 -2.5883  0.5298 -0.3667
  109MOL   C28741543   5.103   6.436   1.979 -0.3278  0.1265  0.0017
  109MOL   C28841544   5.080   6.428   2.131  0.6429 -0.2231  0.5491
  109MOL   O28941545   4.978   6.327   2.158 -0.0170  0.2376  0.2159
  109MOL   C29041546   5.030   6.200   2.185  0.4198 -0.2571 -0.3587
  109MOL   C29141547   4.919   6.129   2.255 -0.4457  0.6676 -0.2852
  109MOL   C29241548   4.875   6.205   2.375  0.4364  0.0900 -1.2917
  109MOL   C29341549   4.753   6.143   2.444 -0.4718  1.0626  0.3812
  109MOL   H29441550   5.118   6.339   1.933 -1.9486 -1.0089  1.7793
  109MOL   H29541551   5.009   6.478   1.943 -0.2858  0.3644  0.1655
  109MOL   H29641552   5.169   6.406   2.190  0.2247 -0.4627  1.0952
  109MOL   H29741553   5.073   6.159   2.093  1.0886  1.4637 -0.8256
  109MOL   H29841554   5.104   6.212   2.264 -0.4198  1.2375  0.1996
  109MOL   H29941555   4.951   6.028   2.279  1.2514  0.8511 -1.6788
  109MOL   H30041556   4.839   6.118   2.182 -2.2487  1.8288  1.4577
  109MOL   H30141557   4.847   6.308   2.353  1.4945  0.4479 -0.9600
  109MOL   H30241558   4.953   6.213   2.450 -0.8987 -0.6838  0.2244
  109MOL   H30341559   4.713   6.184   2.536 -0.4694 -1.0615  1.3342
  109MOL   H30441560   4.669   6.143   2.374  0.4713  0.2070 -0.7790
  109MOL   H30541561   4.769   6.037   2.460  4.0147  1.6442  0.6091
  109MOL   C30641562   5.018   6.551   2.195 -0.2128  0.5026  0.0367
  109MOL   C30741563   5.065   6.568   2.336 -0.3400  0.6993 -0.0065
  109MOL   O30841564   4.970   6.647   2.395  0.5747  0.6463  0.0556
  109MOL   C30941565   4.867   6.576   2.465  0.0719  0.2330  0.0555
  109MOL   C31041566   4.796   6.699   2.526 -0.3218  0.6199  0.2878
  109MOL   C31141567   4.871   6.772   2.643  0.9652  0.1284 -0.2107
  109MOL   C31241568   4.795   6.868   2.737  0.5538  0.4675  0.0307
  109MOL   H31341569   5.045   6.639   2.136 -1.7667  0.7170 -0.3771
  109MOL   H31441570   4.910   6.548   2.179 -0.1197 -2.8336 -0.3196
  109MOL   H31541571   5.064   6.471   2.385 -1.2407  0.2875 -0.8342
  109MOL   H31641572   4.913   6.508   2.537  2.7740  0.5242 -1.3289
  109MOL   H31741573   4.799   6.517   2.403  0.0610 -1.2737  1.4549
  109MOL   H31841574   4.700   6.662   2.562  0.1268  0.3812  1.2568
  109MOL   H31941575   4.776   6.781   2.457 -1.7319 -1.6718 -2.0840
  109MOL   H32041576   4.900   6.683   2.698  1.2582 -0.2220 -0.9227
  109MOL   H32141577   4.962   6.819   2.605  1.1675 -0.9240 -1.0350
  109MOL   H32241578   4.767   6.817   2.830 -0.5935  3.3420  1.3022
  109MOL   H32341579   4.698   6.895   2.695  1.6272 -0.3786 -3.1026
  109MOL   H32441580   4.861   6.953   2.751  2.4639 -0.5525 -2.4901
  109MOL   C32541581   5.206   6.624   2.351  0.2423 -0.3810  0.5717
  109MOL   C32641582   5.266   6.630   2.495  0.1585 -0.5541 -0.0562
  109MOL   O32741583   5.407   6.593   2.486 -0.2713 -0.0680 -0.6247
  109MOL   C32841584   5.423   6.453   2.481  0.6596  0.4710  0.8613
  109MOL   C32941585   5.546   6.425   2.383 -0.1798 -0.2378  0.1526
  109MOL   C33041586   5.607   6.292   2.407 -0.2319 -0.3737 -0.6018
  109MOL   C33141587   5.725   6.267   2.303 -0.3840 -0.6637  0.0254
  109MOL   H33241588   5.209   6.719   2.298 -0.9219 -1.5442 -1.6758
  109MOL   H33341589   5.276   6.562   2.295 -0.5383  0.1114 -0.9743
  109MOL   H33441590   5.212   6.565   2.563  1.3013 -1.9492 -0.4599
  109MOL   H33541591   5.341   6.391   2.447  2.9015 -2.0342 -0.1904
  109MOL   H33641592   5.456   6.416   2.579  1.3702 -1.1644  0.0386
  109MOL   H33741593   5.502   6.428   2.283  0.8366  0.6723 -0.2693
  109MOL   H33841594   5.622   6.502   2.396 -2.5434  2.1528  0.2359
  109MOL   H33941595   5.522   6.228   2.385  0.5184 -1.2016 -1.0956
  109MOL   H34041596   5.639   6.291   2.510 -2.1933 -0.5764  0.0370
  109MOL   H34141597   5.704   6.252   2.197  1.1910 -1.9158 -0.1373
  109MOL   H34241598   5.783   6.182   2.339  2.2410 -0.6819 -3.9304
  109MOL   H34341599   5.800   6.346   2.294 -0.0230 -0.7354  2.2531
  109MOL   C34441600   5.271   6.775   2.545  0.3034  0.9312 -0.1635
  109MOL   C34541601   5.301   6.786   2.688  0.6286  0.4497  0.2604
  109MOL   O34641602   5.278   6.918   2.745  0.4150  0.2452  0.0341
  109MOL   C34741603   5.206   6.913   2.863 -0.9957 -0.0791  0.5829
  109MOL   C34841604   5.190   7.054   2.920 -0.7723  0.0270  0.1688
  109MOL   C34941605   5.088   7.042   3.031  0.6955 -0.2043  0.3012
  109MOL   C35041606   5.080   7.157   3.119  0.3478  0.2696  0.1507
  109MOL   H35141607   5.340   6.838   2.489  2.6907 -1.8460 -0.5075
  109MOL   H35241608   5.172   6.820   2.543  0.2910  0.9239  0.3157
  109MOL   H35341609   5.234   6.717   2.740 -1.3283  0.6410 -1.9302
  109MOL   H35441610   5.266   6.848   2.927  0.9659 -0.0163 -1.1519
  109MOL   H35541611   5.112   6.872   2.826  0.9711 -2.8588 -1.4841
  109MOL   H35641612   5.159   7.133   2.851 -0.7365  0.0220  0.1465
  109MOL   H35741613   5.283   7.087   2.964 -1.3664 -1.2357  2.4507
  109MOL   H35841614   4.987   7.036   2.990  0.9976  3.0219 -0.9911
  109MOL   H35941615   5.108   6.952   3.090 -0.7850 -1.7809 -1.5368
  109MOL   H36041616   5.020   7.126   3.205 -0.5814 -0.7042 -0.8316
  109MOL   H36141617   5.022   7.241   3.082  0.1941  0.4303  0.7440
  109MOL   H36241618   5.181   7.183   3.151  1.2209 -1.2432 -1.3154
  109MOL   C36341619   5.439   6.732   2.736 -0.0337  0.4400  0.9769
  109MOL   C36441620   5.554   6.816   2.681 -0.2144  0.6560 -0.2161
  109MOL   O36541621   5.691   6.777   2.728 -0.5117  0.2790 -0.2792
  109MOL   C36641622   5.736   6.647   2.685 -0.4033 -0.4870 -0.5011
  109MOL   C36741623   5.884   6.640   2.717 -0.1577 -0.1195 -0.0868
  109MOL   C36841624   5.962   6.508   2.697  0.3505  0.7995  0.1954
  109MOL   C36941625   5.904   6.392   2.767  0.7507  0.5843 -0.0064
  109MOL   H37041626   5.446   6.625   2.715 -0.9895  0.4879  0.3690
  109MOL   H37141627   5.454   6.734   2.844 -2.8297  0.0417  1.4227
  109MOL   H37241628   5.538   6.921   2.708  2.2368  0.6564  1.4331
  109MOL   H37341629   5.735   6.646   2.576 -2.6875  1.2312 -0.5380
  109MOL   H37441630   5.665   6.572   2.722  2.5691 -3.1566 -0.0123
  109MOL   H37541631   5.890   6.673   2.821 -2.0808 -1.6849  0.5734
  109MOL   H37641632   5.924   6.713   2.648 -1.6404  1.7881  1.0333
  109MOL   H37741633   6.066   6.524   2.729  0.8225 -0.4416 -0.6903
  109MOL   H37841634   5.966   6.484   2.591 -1.7770 -1.6523  0.6347
  109MOL   H37941635   5.970   6.310   2.736  1.9153  0.7979  1.8430
  109MOL   H38041636   5.915   6.406   2.874 -0.8783  0.4935  0.1740
  109MOL   H38141637   5.797   6.387   2.746  0.6357  2.0265  0.2196
  109MOL   H38241638   5.557   6.818   2.572 -2.7677  0.0344 -0.3098
  110MOL     C141639   4.653   1.002   1.662  0.0585 -0.2213  0.3359
  110MOL     C241640   4.560   0.997   1.784  0.1523 -0.4327  0.9726
  110MOL     O341641   4.639   0.942   1.886 -0.0475  0.1743 -0.2131
  110MOL     C441642   4.668   0.803   1.884  0.1017 -0.9297 -0.3788
  110MOL     C541643   4.818   0.799   1.889 -0.0162 -0.1752 -0.5171
  110MOL     C641644   4.876   0.845   2.019  0.0150 -0.5048 -0.2479
  110MOL     C741645   5.030   0.850   2.020  0.5403  0.2390 -0.4454
  110MOL     H841646   4.742   1.063   1.674 -0.5655  0.8541 -0.4943
  110MOL     H941647   4.687   0.902   1.634  0.2212  0.1652 -0.9027
  110MOL    H1041648   4.470   0.936   1.772  0.2907 -0.4345 -0.0605
  110MOL    H1141649   4.604   0.762   1.962 -1.4218 -0.6860 -1.4773
  110MOL    H1241650   4.622   0.761   1.794 -0.2224  1.5879 -1.4217
  110MOL    H1341651   4.865   0.860   1.812  0.7890 -1.4356 -1.0417
  110MOL    H1441652   4.845   0.696   1.865  0.1268 -0.0634 -0.8429
  110MOL    H1541653   4.845   0.770   2.092 -0.3673  0.3843  0.5178
  110MOL    H1641654   4.834   0.939   2.055  0.3422 -0.0861 -0.9568
  110MOL    H1741655   5.064   0.903   2.109 -1.1773 -1.2505  1.1598
  110MOL    H1841656   5.091   0.872   1.932  0.2486 -0.2844 -0.7773
  110MOL    H1941657   5.048   0.745   2.044  1.0183  0.6234  0.9660
  110MOL    H2041658   4.585   1.031   1.581 -0.7798 -2.7752  0.0651
  110MOL    C2141659   4.549   1.151   1.832 -0.0562 -0.1292 -0.5653
  110MOL    C2241660   4.487   1.264   1.740  0.5113  0.0333  0.2267
  110MOL    O2341661   4.404   1.335   1.831 -0.5363 -0.5709 -0.4443
  110MOL    C2441662   4.266   1.319   1.803  0.0959  0.0778 -0.7637
  110MOL    C2541663   4.184   1.389   1.925 -0.0065  0.2622  0.6375
  110MOL    C2641664   4.034   1.344   1.925 -0.1762 -0.3953 -0.1542
  110MOL    C2741665   3.950   1.416   1.818  0.2690  0.1214 -0.4587
  110MOL    H2841666   4.644   1.185   1.871 -0.1354 -1.1923  0.6021
  110MOL    H2941667   4.489   1.144   1.923 -0.8430  1.4412 -0.9553
  110MOL    H3041668   4.430   1.209   1.664  1.5130 -0.4649 -0.1785
  110MOL    H3141669   4.248   1.212   1.816  1.1249 -0.1336 -1.0083
  110MOL    H3241670   4.241   1.349   1.701  0.2550  0.0835 -0.8016
  110MOL    H3341671   4.224   1.353   2.019 -0.4343 -2.1475 -0.0729
  110MOL    H3441672   4.201   1.497   1.920  0.1778  0.1754 -1.1403
  110MOL    H3541673   4.033   1.235   1.918  1.9458 -0.4313 -0.3692
  110MOL    H3641674   3.991   1.378   2.019  2.3889  1.9715  0.2457
  110MOL    H3741675   3.850   1.383   1.791  1.0224 -1.2669 -1.6408
  110MOL    H3841676   3.941   1.518   1.856  0.6712 -0.0548  0.1007
  110MOL    H3941677   3.998   1.431   1.721  2.9040  1.9003  1.0527
  110MOL    C4041678   4.598   1.343   1.668  0.1594 -0.9533 -0.5053
  110MOL    C4141679   4.546   1.436   1.562  0.2449  0.3192 -0.0651
  110MOL    O4241680   4.491   1.354   1.457 -0.0522  0.0441  0.6683
  110MOL    C4341681   4.392   1.410   1.372 -0.3813  0.2504  0.1079
  110MOL    C4441682   4.360   1.293   1.284 -0.2182  0.4332 -0.2111
  110MOL    C4541683   4.255   1.336   1.172 -0.0107  0.2443 -0.3686
  110MOL    C4641684   4.212   1.225   1.074  0.5798  0.1366 -0.1337
  110MOL    H4741685   4.664   1.279   1.609  1.8068  0.8805 -0.7068
  110MOL    H4841686   4.664   1.397   1.737 -0.1178 -2.6923  1.1635
  110MOL    H4941687   4.471   1.489   1.621 -0.4990 -1.3924  0.5354
  110MOL    H5041688   4.435   1.497   1.322  0.5039 -1.1287 -1.6051
  110MOL    H5141689   4.308   1.442   1.432  0.8975  1.9292  1.0511
  110MOL    H5241690   4.336   1.204   1.343 -1.6388  1.0162  0.1160
  110MOL    H5341691   4.449   1.272   1.225 -0.2933  1.2397 -0.6174
  110MOL    H5441692   4.305   1.416   1.119  0.1663  0.2204 -0.2384
  110MOL    H5541693   4.175   1.387   1.227 -1.0563 -1.9676  0.2318
  110MOL    H5641694   4.171   1.256   0.978 -1.0911  1.3361  0.9435
  110MOL    H5741695   4.296   1.156   1.063  0.3960  0.0817 -1.2702
  110MOL    H5841696   4.131   1.169   1.120 -1.3174  1.0447 -2.2707
  110MOL    C5941697   4.659   1.525   1.508  0.2796 -0.0405  0.0097
  110MOL    C6041698   4.624   1.677   1.513  0.2191 -0.1408  0.0077
  110MOL    O6141699   4.676   1.730   1.635  0.3590 -0.0404  1.0353
  110MOL    C6241700   4.598   1.712   1.748  0.2004  0.4267  0.7336
  110MOL    C6341701   4.708   1.715   1.854  0.2385 -0.1261  0.3397
  110MOL    C6441702   4.661   1.651   1.991  1.0727 -0.0891  0.4776
  110MOL    C6541703   4.770   1.658   2.099 -0.5370  0.4792  0.6563
  110MOL    H6641704   4.754   1.508   1.558  0.7163  0.8832 -0.4788
  110MOL    H6741705   4.677   1.490   1.406 -1.1360 -0.2744 -0.1652
  110MOL    H6841706   4.517   1.692   1.495 -0.0313 -0.4314  1.2212
  110MOL    H6941707   4.539   1.624   1.775  1.2586  0.4428  3.2638
  110MOL    H7041708   4.540   1.801   1.772  0.4939  0.8385 -0.0893
  110MOL    H7141709   4.792   1.653   1.823  0.6051  0.5470 -0.0295
  110MOL    H7241710   4.742   1.817   1.872  2.3468 -1.0818  1.9156
  110MOL    H7341711   4.573   1.699   2.034 -2.0572 -5.2124  0.2616
  110MOL    H7441712   4.630   1.546   1.988 -2.0929  0.8218 -3.2091
  110MOL    H7541713   4.734   1.604   2.187  1.5081 -0.4877  0.9417
  110MOL    H7641714   4.866   1.613   2.070 -0.1755  3.0608 -2.4258
  110MOL    H7741715   4.793   1.761   2.125 -2.7734  0.9155  0.9668
  110MOL    C7841716   4.700   1.755   1.400 -0.2534  0.4674  0.0068
  110MOL    C7941717   4.701   1.909   1.420  0.0877  0.4112 -0.1449
  110MOL    O8041718   4.579   1.971   1.380 -0.2958  0.3519 -0.4973
  110MOL    C8141719   4.493   1.995   1.493 -0.1589  0.0226 -0.0619
  110MOL    C8241720   4.383   2.084   1.445 -0.3577  0.1555 -0.7244
  110MOL    C8341721   4.407   2.232   1.436 -0.2900  1.0237  0.2265
  110MOL    C8441722   4.291   2.309   1.374 -0.0718 -0.5315 -0.0537
  110MOL    H8541723   4.647   1.720   1.312 -1.8059  2.2668  0.1898
  110MOL    H8641724   4.801   1.715   1.390 -0.6849 -1.2544  2.2143
  110MOL    H8741725   4.735   1.919   1.524 -2.1554  2.9730  0.3856
  110MOL    H8841726   4.545   2.040   1.578  0.1244  0.6035 -0.5350
  110MOL    H8941727   4.457   1.900   1.531 -3.1567  1.4053  0.7471
  110MOL    H9041728   4.342   2.038   1.355 -3.1738  0.3031  0.4534
  110MOL    H9141729   4.306   2.071   1.520  0.9723 -1.2488  0.4369
  110MOL    H9241730   4.498   2.247   1.378 -1.2575  2.6856 -0.9170
  110MOL    H9341731   4.435   2.292   1.523  1.0837  0.6388  0.0575
  110MOL    H9441732   4.196   2.307   1.428  0.1423 -0.2943  0.3288
  110MOL    H9541733   4.309   2.416   1.360 -0.3601 -0.6204 -1.1656
  110MOL    H9641734   4.263   2.267   1.277 -1.4966  0.5687 -0.1465
  110MOL    C9741735   4.817   1.973   1.344  0.2366 -0.6237 -0.3942
  110MOL    C9841736   4.849   2.121   1.375  0.4216  0.6789  0.3469
  110MOL    O9941737   4.877   2.121   1.517 -0.5596  1.1082  0.0919
  110MOL   C10041738   4.829   2.236   1.583 -0.0402  0.1059 -0.4355
  110MOL   C10141739   4.865   2.219   1.738  0.2718  0.0568  0.2392
  110MOL   C10241740   4.797   2.100   1.805  0.8303 -0.1752 -0.0914
  110MOL   C10341741   4.832   2.077   1.955  0.0073 -0.0503 -0.2409
  110MOL   H10441742   4.794   1.973   1.237  3.0490 -0.1043 -1.0552
  110MOL   H10541743   4.909   1.915   1.356  0.7341  0.3279  0.4813
  110MOL   H10641744   4.765   2.186   1.348  0.8392  1.8931  1.9216
  110MOL   H10741745   4.722   2.232   1.565 -0.1046  1.0115 -0.2953
  110MOL   H10841746   4.874   2.329   1.548  0.4020  0.8099  1.8825
  110MOL   H10941747   4.837   2.315   1.781 -0.6571  0.2779 -0.8144
  110MOL   H11041748   4.971   2.219   1.761  0.5571 -0.2789 -1.0362
  110MOL   H11141749   4.819   2.009   1.748 -1.7635 -1.8232  1.4415
  110MOL   H11241750   4.691   2.122   1.795  1.6354  4.0351 -0.1431
  110MOL   H11341751   4.805   2.158   2.023  0.3746 -0.4615  0.3948
  110MOL   H11441752   4.777   1.995   2.002  2.7936 -1.2540  1.0408
  110MOL   H11541753   4.939   2.058   1.962 -0.4250 -2.3675  0.3698
  110MOL   C11641754   4.965   2.178   1.294 -0.7931 -0.1306  0.6840
  110MOL   C11741755   4.958   2.180   1.140 -0.6036 -0.0540 -0.5182
  110MOL   O11841756   4.847   2.261   1.107 -0.0216  0.1394  0.0415
  110MOL   C11941757   4.723   2.198   1.075  0.3514 -0.0625  0.7564
  110MOL   C12041758   4.632   2.289   0.992 -0.3481  0.2184 -0.1054
  110MOL   C12141759   4.541   2.366   1.089 -0.1892 -0.3621  0.8352
  110MOL   C12241760   4.415   2.420   1.029  0.1491 -0.3140  0.2245
  110MOL   H12341761   4.976   2.279   1.335 -0.9999  0.0720  0.2393
  110MOL   H12441762   5.055   2.131   1.333 -1.0996  0.1658  1.7738
  110MOL   H12541763   4.940   2.078   1.105 -1.9586 -0.4288  1.2401
  110MOL   H12641764   4.669   2.162   1.162  1.5394  0.2353  1.6322
  110MOL   H12741765   4.745   2.115   1.007  1.1915  1.1693 -0.5056
  110MOL   H12841766   4.572   2.217   0.936  0.0029 -0.7377  0.7278
  110MOL   H12941767   4.695   2.345   0.923 -1.3326 -1.4497 -2.4691
  110MOL   H13041768   4.503   2.302   1.169 -1.4207 -1.4039 -0.5459
  110MOL   H13141769   4.582   2.450   1.144  2.6859  0.9007 -3.0074
  110MOL   H13241770   4.347   2.466   1.101 -1.8983  0.2486 -2.0038
  110MOL   H13341771   4.356   2.341   0.983  0.6958 -0.7582  0.2883
  110MOL   H13441772   4.459   2.488   0.955 -1.2586 -0.5879 -0.8867
  110MOL   C13541773   5.071   2.244   1.063 -0.3743  0.0494  1.0306
  110MOL   C13641774   5.188   2.152   1.010 -0.0247 -0.0648 -0.0827
  110MOL   O13741775   5.260   2.221   0.905 -0.3402 -0.0865  0.6801
  110MOL   C13841776   5.213   2.192   0.778 -0.0189 -0.2075  0.2605
  110MOL   C13941777   5.276   2.287   0.679 -0.2075  0.1927  0.3856
  110MOL   C14041778   5.226   2.254   0.538  0.1712  0.7784 -0.0828
  110MOL   C14141779   5.288   2.352   0.444 -0.1775 -1.1752 -0.2152
  110MOL   H14241780   5.101   2.328   1.125  0.0360  1.7681 -1.4131
  110MOL   H14341781   5.038   2.291   0.970  0.1382 -0.0851  0.7777
  110MOL   H14441782   5.144   2.055   0.985  0.1050  0.7712 -3.9408
  110MOL   H14541783   5.105   2.201   0.766  0.1126  0.1316 -0.7135
  110MOL   H14641784   5.235   2.090   0.750  2.4186 -0.2014  1.9629
  110MOL   H14741785   5.384   2.284   0.690 -0.1186 -1.0770 -0.6813
  110MOL   H14841786   5.244   2.389   0.698 -2.7472 -0.4449 -0.2610
  110MOL   H14941787   5.253   2.152   0.513 -1.0756  0.9262 -2.1893
  110MOL   H15041788   5.119   2.268   0.549  0.1325  0.6421 -0.2875
  110MOL   H15141789   5.394   2.328   0.427  0.2596  0.5774 -0.0466
  110MOL   H15241790   5.238   2.346   0.348 -3.3433 -0.2701  1.3060
  110MOL   H15341791   5.277   2.454   0.480  1.5676 -1.3853  1.0201
  110MOL   C15441792   5.300   2.134   1.117  0.1549 -0.5487  0.4684
  110MOL   C15541793   5.377   2.009   1.099 -0.0326 -0.0050  0.0117
  110MOL   O15641794   5.288   1.900   1.105  0.3927  0.1199  0.2761
  110MOL   C15741795   5.268   1.824   0.983 -0.5055  0.1120 -0.2890
  110MOL   C15841796   5.141   1.738   1.008 -0.6430 -0.1258  0.2522
  110MOL   C15941797   5.023   1.825   1.028 -0.0933  0.3750 -1.0787
  110MOL   C16041798   4.892   1.738   1.041  0.2101 -0.6004  0.0535
  110MOL   H16141799   5.254   2.138   1.216 -2.7287  1.3366 -0.8646
  110MOL   H16241800   5.371   2.217   1.111 -1.1188  0.4666 -1.2661
  110MOL   H16341801   5.435   2.008   1.007 -0.5308  0.4293 -0.3076
  110MOL   H16441802   5.271   1.890   0.897  1.6725  0.9268  0.3740
  110MOL   H16541803   5.356   1.759   0.976 -0.4271  0.1432  0.3385
  110MOL   H16641804   5.175   1.667   1.083  1.9510 -0.8748 -1.5737
  110MOL   H16741805   5.139   1.674   0.919 -1.7061  0.7788 -0.3947
  110MOL   H16841806   5.044   1.881   1.119  0.1447 -1.9662  0.3427
  110MOL   H16941807   5.013   1.905   0.954  2.4709 -0.2506 -2.1498
  110MOL   H17041808   4.810   1.805   1.014 -0.1803 -0.4897  1.4381
  110MOL   H17141809   4.887   1.653   0.973  3.2162 -1.3032  0.6259
  110MOL   H17241810   4.870   1.692   1.138  0.9833  0.9449  0.9944
  110MOL   C17341811   5.484   1.987   1.204 -0.6255  0.1554 -0.3675
  110MOL   C17441812   5.593   1.886   1.163  0.1246 -0.2485 -0.0836
  110MOL   O17541813   5.671   1.956   1.066  0.0907 -0.0660  0.1011
  110MOL   C17641814   5.785   1.882   1.004  0.3239 -0.1996 -0.0002
  110MOL   C17741815   5.718   1.761   0.924  0.1562  0.0227 -0.2782
  110MOL   C17841816   5.814   1.702   0.829 -0.5447  0.1278 -0.3213
  110MOL   C17941817   5.761   1.597   0.727  0.2035  0.1685  0.6127
  110MOL   H18041818   5.437   1.948   1.295 -0.9837 -1.0714 -1.0609
  110MOL   H18141819   5.534   2.081   1.227  2.2857 -0.8217 -2.3854
  110MOL   H18241820   5.549   1.791   1.132 -0.5639  0.2593 -0.6860
  110MOL   H18341821   5.864   1.859   1.075  2.1513 -2.3758 -2.6413
  110MOL   H18441822   5.828   1.949   0.930  2.2730  1.2092  2.3100
  110MOL   H18541823   5.633   1.803   0.870  0.4684  1.2865  0.2045
  110MOL   H18641824   5.671   1.675   0.973 -0.4572 -0.6263 -1.9839
  110MOL   H18741825   5.872   1.778   0.777  0.3646 -1.6647 -2.0430
  110MOL   H18841826   5.900   1.663   0.883 -0.6950 -3.0837 -2.2476
  110MOL   H18941827   5.675   1.625   0.665 -0.1725 -0.1011  1.0103
  110MOL   H19041828   5.833   1.584   0.646  0.3088 -0.3629  0.7884
  110MOL   H19141829   5.747   1.502   0.779  0.8279 -0.0886  0.3255
  110MOL   C19241830   5.683   1.854   1.285  0.0815 -0.0354 -0.4909
  110MOL   C19341831   5.617   1.746   1.368  1.0108 -1.0324 -0.7037
  110MOL   O19441832   5.637   1.622   1.302  0.4814  0.3020 -0.5658
  110MOL   C19541833   5.522   1.541   1.314 -0.9371  0.2310  0.3282
  110MOL   C19641834   5.545   1.409   1.248  0.2679  0.4870 -0.3118
  110MOL   C19741835   5.423   1.320   1.239 -0.0468 -0.0270  0.0738
  110MOL   C19841836   5.430   1.211   1.130 -0.2940  0.1864 -0.2205
  110MOL   H19941837   5.702   1.947   1.338  1.3256  0.1920 -1.3166
  110MOL   H20041838   5.783   1.818   1.261  1.2623  1.4760  1.9541
  110MOL   H20141839   5.513   1.770   1.387  1.5897 -0.3067  1.7114
  110MOL   H20241840   5.437   1.588   1.264  0.5336  0.1060 -2.3921
  110MOL   H20341841   5.504   1.533   1.421  1.8676 -0.1167  0.8178
  110MOL   H20441842   5.591   1.429   1.151 -0.3590  0.1942 -0.6680
  110MOL   H20541843   5.620   1.356   1.307 -1.1314 -0.2132  0.8586
  110MOL   H20641844   5.336   1.381   1.217 -1.5067 -2.6090 -1.5860
  110MOL   H20741845   5.418   1.272   1.337  1.8699  1.6964  1.0545
  110MOL   H20841846   5.456   1.257   1.035 -0.5927 -2.8290 -1.8250
  110MOL   H20941847   5.513   1.141   1.136  2.1123  2.8168 -2.0149
  110MOL   H21041848   5.341   1.149   1.118 -0.5866  0.3143  1.1823
  110MOL   C21141849   5.686   1.737   1.503 -0.2081 -0.1648 -0.0537
  110MOL   C21241850   5.620   1.825   1.615  0.9162 -0.3990  0.4316
  110MOL   O21341851   5.482   1.783   1.616  0.4149 -0.5960 -0.3910
  110MOL   C21441852   5.390   1.884   1.638  0.4485  0.0930  0.2550
  110MOL   C21541853   5.253   1.812   1.626  0.4231  0.5870  0.8635
  110MOL   C21641854   5.213   1.771   1.481 -0.3742 -0.3347 -0.2527
  110MOL   C21741855   5.069   1.709   1.469  0.4981 -0.3217  0.2212
  110MOL   H21841856   5.791   1.766   1.497 -0.6308  1.6414  1.0972
  110MOL   H21941857   5.678   1.635   1.540 -0.0513 -0.3956 -0.6453
  110MOL   H22041858   5.618   1.930   1.589  3.5926 -0.2326  0.8327
  110MOL   H22141859   5.402   1.932   1.735 -0.3634 -0.9227  0.8680
  110MOL   H22241860   5.405   1.966   1.567 -0.7856  0.4843  0.4337
  110MOL   H22341861   5.241   1.718   1.678  0.8921 -0.4967 -0.9428
  110MOL   H22441862   5.171   1.873   1.664 -0.5305  0.2818 -0.6531
  110MOL   H22541863   5.277   1.693   1.443 -0.7884  0.0365 -1.7463
  110MOL   H22641864   5.213   1.856   1.413 -1.5457  0.7888  1.1159
  110MOL   H22741865   5.046   1.708   1.362  3.1043  0.1726 -0.3968
  110MOL   H22841866   4.997   1.765   1.528  1.5951  0.6521  0.6642
  110MOL   H22941867   5.066   1.605   1.500 -3.7642 -1.5132 -3.5961
  110MOL   C23041868   5.672   1.802   1.759  0.5545  0.1247 -0.3960
  110MOL   C23141869   5.827   1.841   1.788  0.2359  0.1425  0.5396
  110MOL   O23241870   5.849   1.978   1.793  0.2948 -0.2011  0.3593
  110MOL   C23341871   5.892   2.023   1.667  0.1199 -0.9299 -0.1215
  110MOL   C23441872   5.884   2.178   1.668 -0.1974 -0.1281 -0.2503
  110MOL   C23541873   5.743   2.238   1.680 -0.0020  0.3460  0.5418
  110MOL   C23641874   5.663   2.210   1.802  0.4690 -0.7460  0.0302
  110MOL   H23741875   5.670   1.694   1.770  2.0386  0.0533 -0.7050
  110MOL   H23841876   5.614   1.864   1.827  0.2782 -0.4213 -0.1373
  110MOL   H23941877   5.879   1.782   1.713 -0.8665 -1.3804  0.9534
  110MOL   H24041878   5.996   1.992   1.658  0.2263 -0.2113 -1.6053
  110MOL   H24141879   5.849   1.981   1.577  0.6828 -0.4716 -0.6144
  110MOL   H24241880   5.951   2.208   1.749  0.2630  0.2422 -0.7618
  110MOL   H24341881   5.927   2.201   1.571 -1.7200  0.5651 -0.7729
  110MOL   H24441882   5.686   2.196   1.597  0.7607  2.1827 -0.9573
  110MOL   H24541883   5.756   2.346   1.674 -2.7473  0.6652 -0.3763
  110MOL   H24641884   5.568   2.260   1.820  0.3252 -1.3337  0.9807
  110MOL   H24741885   5.718   2.248   1.888  0.7124  1.1529 -0.9407
  110MOL   H24841886   5.638   2.106   1.826 -1.8686 -0.9376 -2.9192
  110MOL   C24941887   5.867   1.792   1.932  0.7939  0.4164  0.7253
  110MOL   C25041888   5.898   1.647   1.937 -0.8102  0.1249  0.1953
  110MOL   O25141889   5.849   1.603   2.064 -0.3759  0.8377 -0.3273
  110MOL   C25241890   5.717   1.555   2.060 -0.4079 -0.5537  0.2848
  110MOL   C25341891   5.656   1.548   2.197  0.3481 -0.2398  0.7972
  110MOL   C25441892   5.654   1.687   2.275 -0.0559 -0.2401 -0.1387
  110MOL   C25541893   5.640   1.679   2.423 -0.1231  0.3864 -0.1624
  110MOL   H25641894   5.784   1.828   1.992 -1.4894  0.0918 -2.1411
  110MOL   H25741895   5.945   1.854   1.977  0.4965 -1.0709  3.3391
  110MOL   H25841896   5.844   1.593   1.859  0.3182  0.2974 -0.7282
  110MOL   H25941897   5.719   1.459   2.008  1.1393 -0.5437  0.2901
  110MOL   H26041898   5.669   1.629   1.997  1.0226 -1.9547 -2.5393
  110MOL   H26141899   5.554   1.511   2.191  0.2656  0.1669 -0.5452
  110MOL   H26241900   5.718   1.478   2.252 -2.3608 -2.7764  0.7043
  110MOL   H26341901   5.749   1.739   2.262  0.6827 -1.6740 -0.5355
  110MOL   H26441902   5.585   1.756   2.227 -1.1872 -1.0154  0.3527
  110MOL   H26541903   5.650   1.773   2.478  1.5060  0.5046 -0.6285
  110MOL   H26641904   5.718   1.621   2.473  1.2116  0.1706 -2.4289
  110MOL   H26741905   5.542   1.636   2.445  0.2767 -1.0796 -1.1540
  110MOL   C26841906   6.052   1.609   1.919 -0.5900  0.3223  0.0864
  110MOL   C26941907   6.116   1.601   1.783 -0.2026 -0.1411 -0.3135
  110MOL   O27041908   6.251   1.544   1.810  0.1281 -0.0869  0.7668
  110MOL   C27141909   6.354   1.640   1.842  0.1294 -0.0794  0.7507
  110MOL   C27241910   6.484   1.573   1.852  0.0510  0.1386  0.0246
  110MOL   C27341911   6.548   1.511   1.720 -0.2132 -0.5520 -0.4156
  110MOL   C27441912   6.689   1.450   1.735  0.2387 -0.6953  0.3304
  110MOL   H27541913   6.114   1.680   1.976  0.7173  0.4131 -1.4089
  110MOL   H27641914   6.053   1.511   1.966 -1.1346 -0.2891 -1.1741
  110MOL   H27741915   6.126   1.704   1.751 -0.6662  0.3102  0.9725
  110MOL   H27841916   6.358   1.711   1.760 -0.1863  1.3482  1.9463
  110MOL   H27941917   6.323   1.694   1.932 -2.8154  1.5438 -1.1389
  110MOL   H28041918   6.564   1.640   1.883  0.8673 -0.5946 -0.4753
  110MOL   H28141919   6.485   1.502   1.935  0.1822 -1.7242 -1.5529
  110MOL   H28241920   6.548   1.587   1.641  0.3596  2.3305  2.2771
  110MOL   H28341921   6.482   1.430   1.689 -0.9403 -0.1909  0.1658
  110MOL   H28441922   6.758   1.529   1.766  1.3415 -1.3536 -0.4279
  110MOL   H28541923   6.717   1.399   1.643 -0.4966 -2.1605  0.9102
  110MOL   H28641924   6.679   1.388   1.824  0.9579 -0.7587  0.3647
  110MOL   C28741925   6.049   1.515   1.681  0.4161  0.1768  0.2482
  110MOL   C28841926   6.115   1.516   1.544 -0.0732  0.2275  0.3036
  110MOL   O28941927   6.097   1.647   1.499 -0.1934  0.4882 -0.1088
  110MOL   C29041928   6.219   1.708   1.452 -0.4577 -0.3747 -0.0117
  110MOL   C29141929   6.207   1.857   1.424  0.0530 -0.6400 -0.7783
  110MOL   C29241930   6.076   1.888   1.339  1.5881 -0.0455  0.0604
  110MOL   C29341931   6.067   2.038   1.304 -0.3745  0.5354  0.0002
  110MOL   H29441932   5.947   1.554   1.676  0.3560 -0.0718 -0.4895
  110MOL   H29541933   6.031   1.420   1.731  0.7160 -0.6826 -1.2559
  110MOL   H29641934   6.216   1.484   1.572 -0.0076  1.7106  1.8787
  110MOL   H29741935   6.300   1.697   1.524  0.1756 -1.0853 -0.8177
  110MOL   H29841936   6.256   1.657   1.363 -0.9913  0.1214 -0.5286
  110MOL   H29941937   6.299   1.888   1.375  0.6929 -1.5594 -0.1570
  110MOL   H30041938   6.217   1.916   1.516 -0.2228 -3.0086  0.8130
  110MOL   H30141939   5.991   1.873   1.405  0.1508  0.8216 -1.5480
  110MOL   H30241940   6.065   1.816   1.257  1.7598 -0.2731  0.2366
  110MOL   H30341941   6.067   2.097   1.396 -0.4317 -1.0896  1.0824
  110MOL   H30441942   6.147   2.062   1.234 -1.9329 -0.5119 -2.1932
  110MOL   H30541943   5.973   2.058   1.253  0.6118  1.7501 -1.3430
  110MOL   C30641944   6.050   1.424   1.438  0.5243  0.0510  0.1212
  110MOL   C30741945   6.130   1.301   1.398 -0.3244  0.2687  0.5335
  110MOL   O30841946   6.056   1.240   1.283  0.3877  0.0297  0.0862
  110MOL   C30941947   6.117   1.276   1.161  0.0697 -0.5997  0.4342
  110MOL   C31041948   6.012   1.227   1.057 -0.1381  0.4838  0.2304
  110MOL   C31141949   5.883   1.315   1.063  0.1032 -0.6841  0.6256
  110MOL   C31241950   5.774   1.266   0.956  0.0802  0.2818 -0.1136
  110MOL   H31341951   5.959   1.384   1.483  0.3885 -2.8974 -2.6170
  110MOL   H31441952   6.032   1.481   1.346 -0.7732  0.5962  0.6955
  110MOL   H31541953   6.226   1.346   1.369 -0.5930  1.6454  1.7205
  110MOL   H31641954   6.216   1.230   1.154 -0.5304 -1.6850 -1.5578
  110MOL   H31741955   6.129   1.383   1.147  0.8065 -0.7378 -0.0478
  110MOL   H31841956   5.999   1.119   1.066  0.6329  0.2522 -1.1850
  110MOL   H31941957   6.052   1.229   0.955  0.6554  0.4930  0.5391
  110MOL   H32041958   5.840   1.310   1.163  0.8656  3.3821  1.2495
  110MOL   H32141959   5.914   1.414   1.029 -0.2928 -0.8470 -0.2205
  110MOL   H32241960   5.676   1.312   0.962  0.1538  0.1138  2.9220
  110MOL   H32341961   5.749   1.160   0.962  0.6681  0.2184  1.4228
  110MOL   H32441962   5.814   1.279   0.855 -0.7761 -0.8091 -0.6025
  110MOL   C32541963   6.134   1.197   1.514 -0.3410 -0.4789  0.1979
  110MOL   C32641964   6.249   1.093   1.499 -0.6915  0.7245  0.3198
  110MOL   O32741965   6.292   1.065   1.626 -0.1470  0.1944  0.5176
  110MOL   C32841966   6.392   1.146   1.678  0.0173 -0.2861  0.1512
  110MOL   C32941967   6.427   1.119   1.826  0.1937 -0.6088  0.2916
  110MOL   C33041968   6.309   1.125   1.923 -0.3341 -0.0111  0.4091
  110MOL   C33141969   6.332   1.045   2.052 -0.6875 -0.3822 -0.3047
  110MOL   H33241970   6.037   1.148   1.514 -1.1420  1.0723  0.8514
  110MOL   H33341971   6.138   1.259   1.604 -0.0453  0.9823 -0.7940
  110MOL   H33441972   6.333   1.134   1.443 -2.1150  1.0754 -1.6071
  110MOL   H33541973   6.351   1.247   1.669  1.3330  0.1786 -0.8305
  110MOL   H33641974   6.474   1.145   1.605 -1.1263  2.4654 -1.2677
  110MOL   H33741975   6.469   1.018   1.830  2.2594  0.1996  0.0141
  110MOL   H33841976   6.510   1.185   1.852  0.2182  0.3040 -1.9969
  110MOL   H33941977   6.229   1.068   1.875  1.5922 -1.2651 -1.3712
  110MOL   H34041978   6.269   1.226   1.930  1.0583  0.5609  0.2372
  110MOL   H34141979   6.424   1.079   2.100 -0.4459  0.5001 -1.3655
  110MOL   H34241980   6.357   0.941   2.030  0.3381 -0.0133 -0.9429
  110MOL   H34341981   6.240   1.058   2.109  0.7237 -2.4371  2.5705
  110MOL   C34441982   6.205   0.962   1.438  0.2298  0.5184 -0.0032
  110MOL   C34541983   6.308   0.849   1.429 -0.7184  0.1764 -0.5187
  110MOL   O34641984   6.410   0.877   1.327 -0.1908 -1.1342 -0.1142
  110MOL   C34741985   6.539   0.882   1.385 -0.5599 -0.6242  0.1420
  110MOL   C34841986   6.647   0.888   1.279 -0.3755 -0.2519  0.5341
  110MOL   C34941987   6.650   1.028   1.207  1.0363  0.1110 -0.7337
  110MOL   C35041988   6.745   1.032   1.095 -1.1287  0.5584  0.0023
  110MOL   H35141989   6.124   0.929   1.502  0.9160  1.8437  1.5670
  110MOL   H35241990   6.157   0.987   1.343 -0.3247  0.5227  0.2787
  110MOL   H35341991   6.351   0.841   1.528  0.3843 -0.9637 -1.0804
  110MOL   H35441992   6.558   0.799   1.453  1.6049 -0.4905 -0.2755
  110MOL   H35541993   6.547   0.961   1.460  1.7445 -0.0872 -0.6240
  110MOL   H35641994   6.626   0.810   1.205 -0.5773 -0.3704  0.7174
  110MOL   H35741995   6.745   0.870   1.322 -0.7975 -1.3646  1.0347
  110MOL   H35841996   6.551   1.049   1.165  0.7975  0.3122 -0.0686
  110MOL   H35941997   6.689   1.101   1.278 -0.0420 -1.2174  1.2567
  110MOL   H36041998   6.843   1.004   1.133 -1.5882  0.1231  0.8835
  110MOL   H36141999   6.736   1.126   1.040 -0.8881  1.0801  0.8582
  110MOL   H36242000   6.753   0.951   1.022  0.6991  0.1706  0.5982
  110MOL   C36342001   6.240   0.724   1.383  0.2390  0.7459 -0.0562
  110MOL   C36442002   6.320   0.597   1.383  0.7130  0.1995  1.2348
  110MOL   O36542003   6.356   0.569   1.518 -0.2425  0.0346  0.3452
  110MOL   C36642004   6.473   0.492   1.522 -0.5482  0.2651  0.2612
  110MOL   C36742005   6.500   0.441   1.668  0.4611  0.0048  0.9497
  110MOL   C36842006   6.399   0.343   1.724 -0.2260 -0.2815  0.1360
  110MOL   C36942007   6.380   0.218   1.646  0.2931 -0.0789 -0.4402
  110MOL   H37042008   6.195   0.741   1.285  0.2076 -2.1847 -0.5933
  110MOL   H37142009   6.158   0.710   1.454 -0.8316 -0.1452 -1.4344
  110MOL   H37242010   6.408   0.616   1.321 -0.1715  3.8643  0.9892
  110MOL   H37342011   6.552   0.565   1.504  2.0846 -2.2946  1.0141
  110MOL   H37442012   6.488   0.419   1.442 -0.2898 -0.1356  0.6684
  110MOL   H37542013   6.502   0.531   1.729 -2.6264  1.7203 -1.3105
  110MOL   H37642014   6.599   0.395   1.666  0.9855  1.0536  2.5422
  110MOL   H37742015   6.312   0.408   1.722 -0.2625 -0.3495 -2.2795
  110MOL   H37842016   6.425   0.329   1.829  0.5525 -0.8591 -0.1290
  110MOL   H37942017   6.393   0.231   1.538  3.6052  0.8131  0.0094
  110MOL   H38042018   6.465   0.152   1.664  1.0708  0.4021 -2.2158
  110MOL   H38142019   6.282   0.173   1.660  0.8055 -0.6244  1.5234
  110MOL   H38242020   6.275   0.505   1.346 -4.0440  2.5366  0.8742
  111MOL     C142021   3.579   1.550   6.740  0.2061 -0.5721  0.4375
  111MOL     C242022   3.589   1.470   6.872  0.3359 -0.8859 -0.3387
  111MOL     O342023   3.569   1.335   6.841  0.4599 -0.3595  0.4778
  111MOL     C442024   3.435   1.299   6.817 -0.7944 -0.1726 -0.3685
  111MOL     C542025   3.418   1.161   6.873  0.7343 -0.6243 -0.2905
  111MOL     C642026   3.274   1.133   6.911  0.7228  0.2628  0.2644
  111MOL     C742027   3.273   1.006   6.990 -0.3207  0.4451  0.2169
  111MOL     H842028   3.485   1.516   6.696  1.5288  0.5564 -3.4689
  111MOL     H942029   3.571   1.658   6.742  0.4533 -0.5427 -0.0447
  111MOL    H1042030   3.514   1.508   6.940  1.7736  0.0760  0.7376
  111MOL    H1142031   3.366   1.362   6.873 -1.2402  0.0877 -1.1999
  111MOL    H1242032   3.406   1.301   6.712  0.0046 -1.7056 -0.6401
  111MOL    H1342033   3.486   1.148   6.957  1.6968  0.0287 -0.9644
  111MOL    H1442034   3.445   1.086   6.799  0.6480 -1.0489  0.1101
  111MOL    H1542035   3.210   1.140   6.823  1.6240 -1.6007 -0.5746
  111MOL    H1642036   3.228   1.195   6.988  1.1751 -0.9713  1.5500
  111MOL    H1742037   3.332   1.003   7.082  1.1854  1.0533 -0.7177
  111MOL    H1842038   3.320   0.931   6.928 -0.8983  0.3798 -0.1506
  111MOL    H1942039   3.170   0.971   6.998 -1.5125  3.4000 -1.1418
  111MOL    H2042040   3.651   1.512   6.667  0.5057 -0.3483  0.6190
  111MOL    C2142041   3.727   1.474   6.946  0.2884  0.4562 -0.8016
  111MOL    C2242042   3.768   1.617   6.999 -0.0649  0.9157  0.1872
  111MOL    O2342043   3.690   1.643   7.117  0.3827 -0.1441 -0.0735
  111MOL    C2442044   3.662   1.775   7.153 -0.3859  0.5806  0.0145
  111MOL    C2542045   3.711   1.783   7.298  0.2612 -0.2561 -0.0971
  111MOL    C2642046   3.625   1.691   7.399  0.4324  0.4279 -0.5073
  111MOL    C2742047   3.660   1.722   7.542  0.0586  0.5151 -0.2672
  111MOL    H2842048   3.802   1.427   6.883  2.4043  2.6752 -0.0142
  111MOL    H2942049   3.726   1.413   7.036 -0.3944  1.7920  0.1201
  111MOL    H3042050   3.738   1.694   6.928 -0.0739  0.4271 -0.3435
  111MOL    H3142051   3.557   1.807   7.151  0.5256  3.7707 -0.7166
  111MOL    H3242052   3.723   1.846   7.096 -1.6081  0.2899 -1.6890
  111MOL    H3342053   3.818   1.765   7.298  0.2341 -0.5061 -1.3388
  111MOL    H3442054   3.693   1.887   7.326  0.7571 -0.3043  0.4032
  111MOL    H3542055   3.518   1.703   7.387 -0.0789 -1.7405  1.5215
  111MOL    H3642056   3.655   1.589   7.372  0.0350  0.2780 -0.3782
  111MOL    H3742057   3.760   1.690   7.571  0.2540  0.8878 -0.5269
  111MOL    H3842058   3.652   1.825   7.577 -0.5260 -0.2422  1.9080
  111MOL    H3942059   3.601   1.659   7.608  0.4221  1.5370  1.0471
  111MOL    C4042060   3.926   1.633   7.022 -0.0558  0.4932  0.4778
  111MOL    C4142061   4.009   1.664   6.891  0.9986 -0.0169  0.5021
  111MOL    O4242062   4.149   1.628   6.900 -0.1991 -0.6061  0.4392
  111MOL    C4342063   4.215   1.700   7.003  0.2661  0.3909  0.4266
  111MOL    C4442064   4.346   1.632   7.012 -1.2630 -0.2741 -0.5215
  111MOL    C4542065   4.443   1.691   7.121 -0.4653 -0.2393  0.0924
  111MOL    C4642066   4.403   1.675   7.268  0.4002 -0.5480 -0.2412
  111MOL    H4742067   3.975   1.547   7.067  0.4392  1.9684  2.8615
  111MOL    H4842068   3.938   1.711   7.097 -0.8000  2.0468 -0.9846
  111MOL    H4942069   3.969   1.602   6.811  0.2470 -0.0568  0.9105
  111MOL    H5042070   4.158   1.693   7.095  0.7810  1.2698  0.8170
  111MOL    H5142071   4.231   1.806   6.982 -1.4131  0.5268 -0.2957
  111MOL    H5242072   4.403   1.640   6.919  0.3444  0.4388  0.5088
  111MOL    H5342073   4.348   1.525   7.035 -0.0594 -0.3316 -0.8582
  111MOL    H5442074   4.453   1.794   7.088 -1.6884 -0.4072 -0.8358
  111MOL    H5542075   4.548   1.663   7.122 -0.2968  0.3786 -0.4089
  111MOL    H5642076   4.448   1.757   7.324 -1.9455 -1.1990  2.7034
  111MOL    H5742077   4.295   1.686   7.272  0.4386  0.7895 -2.2712
  111MOL    H5842078   4.423   1.574   7.305  0.9500 -1.1060 -2.0246
  111MOL    C5942079   3.977   1.806   6.831  0.2810  0.8727 -1.0369
  111MOL    C6042080   4.053   1.836   6.697  0.9954  0.2178 -0.3172
  111MOL    O6142081   4.006   1.736   6.605 -0.2846  0.0311 -0.3359
  111MOL    C6242082   4.103   1.678   6.521 -0.7626 -0.0586 -0.1866
  111MOL    C6342083   4.025   1.601   6.415 -0.1861  0.1919 -0.3472
  111MOL    C6442084   3.919   1.509   6.467  0.1340 -0.0356 -0.6486
  111MOL    C6542085   3.855   1.440   6.351 -0.2318 -0.7781 -0.5852
  111MOL    H6642086   3.870   1.824   6.819  0.3409  0.8115 -1.7044
  111MOL    H6742087   4.006   1.875   6.910  0.7199 -0.0942 -0.3472
  111MOL    H6842088   4.159   1.813   6.710  0.6797 -1.7202 -1.0021
  111MOL    H6942089   4.181   1.635   6.582  1.1279 -0.2695 -2.6550
  111MOL    H7042090   4.157   1.764   6.482 -3.4425  2.1703  0.8446
  111MOL    H7142091   3.981   1.669   6.342 -3.0239 -0.1176  1.0036
  111MOL    H7242092   4.104   1.549   6.362  2.9247  1.2596  2.9713
  111MOL    H7342093   3.948   1.432   6.538 -0.7609 -0.5891 -0.8703
  111MOL    H7442094   3.855   1.577   6.524  0.9701  0.4067 -0.2324
  111MOL    H7542095   3.798   1.347   6.359  1.5515 -1.8788 -0.2993
  111MOL    H7642096   3.808   1.511   6.283  1.4665 -0.8815 -1.9164
  111MOL    H7742097   3.929   1.397   6.284  0.9766 -0.0289  0.2569
  111MOL    C7842098   4.015   1.975   6.623 -0.6069  0.7212 -0.5894
  111MOL    C7942099   4.054   2.092   6.710 -0.1919 -0.1061  0.0169
  111MOL    O8042100   3.994   2.218   6.677  0.2854 -0.3747 -0.2112
  111MOL    C8142101   3.853   2.238   6.709  0.0820  0.0733 -0.9457
  111MOL    C8242102   3.827   2.294   6.850  0.4937 -0.0468  0.5258
  111MOL    C8342103   3.814   2.185   6.956  0.0892 -1.1454  0.2364
  111MOL    C8442104   3.828   2.250   7.092  0.5821  0.4790  0.0984
  111MOL    H8542105   3.909   1.989   6.601 -0.5924  2.2930  0.2380
  111MOL    H8642106   4.063   1.973   6.525  2.9431  2.3544  1.0228
  111MOL    H8742107   4.029   2.059   6.811  0.6201  0.3415  0.3696
  111MOL    H8842108   3.798   2.147   6.688 -0.4564  0.5439 -1.6153
  111MOL    H8942109   3.822   2.299   6.624  1.5114 -0.0613 -1.5911
  111MOL    H9042110   3.912   2.350   6.890  0.0412 -0.3543  1.9463
  111MOL    H9142111   3.745   2.366   6.852 -0.7898 -1.4695 -0.1516
  111MOL    H9242112   3.899   2.118   6.962  0.7226 -0.3152  0.7037
  111MOL    H9342113   3.722   2.131   6.935  0.0599 -0.5106 -1.3885
  111MOL    H9442114   3.758   2.331   7.114 -1.5814 -1.5163  0.8021
  111MOL    H9542115   3.814   2.184   7.178 -1.0533  0.2509 -0.3230
  111MOL    H9642116   3.929   2.289   7.108  1.1494 -0.1963 -1.7612
  111MOL    C9742117   4.205   2.123   6.712 -0.3609 -0.1104 -0.5333
  111MOL    C9842118   4.245   2.185   6.854 -0.8356 -0.6117  0.9494
  111MOL    O9942119   4.220   2.088   6.958  0.1002 -0.2996  0.6656
  111MOL   C10042120   4.184   2.133   7.084 -0.2439  0.1972 -0.1550
  111MOL   C10142121   4.109   2.030   7.166  0.5326 -0.5480  0.1620
  111MOL   C10242122   4.108   2.068   7.316 -0.2680  0.5165  0.3613
  111MOL   C10342123   4.074   1.952   7.402 -0.1776 -0.0143  0.1584
  111MOL   H10442124   4.228   2.197   6.636  0.1241  0.1866 -0.1050
  111MOL   H10542125   4.270   2.039   6.684 -0.4120  0.1418 -1.4238
  111MOL   H10642126   4.185   2.274   6.873 -0.6241 -0.6833  1.9921
  111MOL   H10742127   4.140   2.232   7.093  0.0580  0.2778  0.5084
  111MOL   H10842128   4.286   2.150   7.120 -0.0476  2.2417 -1.5987
  111MOL   H10942129   4.167   1.940   7.144  2.1392 -0.6006  4.1013
  111MOL   H11042130   4.006   2.021   7.133 -0.1738  1.8532  1.5714
  111MOL   H11142131   4.034   2.147   7.332  0.0934  1.2467 -1.3878
  111MOL   H11242132   4.202   2.116   7.345  1.7865 -3.0954 -0.0895
  111MOL   H11342133   3.975   1.908   7.389 -0.4860 -0.2475  2.9499
  111MOL   H11442134   4.145   1.869   7.390  1.3135  1.2105  0.3168
  111MOL   H11542135   4.071   1.978   7.508 -1.1186 -1.2264  0.4430
  111MOL   C11642136   4.384   2.239   6.857  0.4601 -0.2304 -0.8659
  111MOL   C11742137   4.422   2.362   6.770  0.0968  0.2337  0.6431
  111MOL   O11842138   4.355   2.473   6.824  0.5694  0.0630  0.4855
  111MOL   C11942139   4.235   2.508   6.746  0.2062  0.4226 -0.5551
  111MOL   C12042140   4.135   2.615   6.798 -0.0763  0.7262  0.4851
  111MOL   C12142141   4.019   2.648   6.706 -0.0508  0.2077 -0.2130
  111MOL   C12242142   4.047   2.773   6.622  0.3622 -0.3145  0.4771
  111MOL   H12342143   4.422   2.262   6.957 -1.4543 -0.8063  0.0083
  111MOL   H12442144   4.452   2.158   6.830  0.4604 -0.0878 -1.2950
  111MOL   H12542145   4.388   2.347   6.668 -0.5240 -0.6704  0.9753
  111MOL   H12642146   4.165   2.424   6.739 -1.4270  1.9309 -2.8081
  111MOL   H12742147   4.261   2.537   6.644  0.0509  0.8456 -0.4739
  111MOL   H12842148   4.185   2.712   6.803 -3.6599  2.7632 -1.2380
  111MOL   H12942149   4.101   2.581   6.896 -1.8446  0.9521 -0.0387
  111MOL   H13042150   4.012   2.569   6.631 -0.7442 -1.6671  1.7547
  111MOL   H13142151   3.923   2.650   6.758  0.4398  1.6119  0.6601
  111MOL   H13242152   4.143   2.768   6.572  1.0174  1.0959  1.5462
  111MOL   H13342153   4.046   2.865   6.682 -1.1290 -0.2555  0.3983
  111MOL   H13442154   3.984   2.785   6.534  1.0519  0.9311  0.1445
  111MOL   C13542155   4.572   2.398   6.770  0.3816 -0.6049  0.4194
  111MOL   C13642156   4.677   2.298   6.732  0.0686 -0.4034  0.2772
  111MOL   O13742157   4.650   2.263   6.599  0.3235 -0.1211  0.1060
  111MOL   C13842158   4.705   2.144   6.570 -0.2226  0.6016 -0.6685
  111MOL   C13942159   4.642   2.088   6.439 -0.4320  0.0238  0.1397
  111MOL   C14042160   4.495   2.061   6.450 -0.1638  0.5846 -0.3140
  111MOL   C14142161   4.429   1.983   6.338 -0.0212  0.2952 -0.7026
  111MOL   H14242162   4.584   2.445   6.868 -2.3072 -1.2298  1.0913
  111MOL   H14342163   4.584   2.491   6.714 -0.7054  0.3202  1.6899
  111MOL   H14442164   4.667   2.217   6.805  0.2712 -0.0048  0.7487
  111MOL   H14542165   4.696   2.072   6.652  1.5667  0.6067 -0.4552
  111MOL   H14642166   4.813   2.154   6.568 -0.0236 -1.3515 -3.0067
  111MOL   H14742167   4.684   1.993   6.406 -1.5358  0.3688 -2.3192
  111MOL   H14842168   4.667   2.168   6.369  0.7968  0.5573  1.1678
  111MOL   H14942169   4.474   2.020   6.548 -1.9495  1.0116 -0.5026
  111MOL   H15042170   4.434   2.151   6.459  1.4914  1.5913  1.1499
  111MOL   H15142171   4.323   1.973   6.361  0.5351 -3.9054  0.4805
  111MOL   H15242172   4.433   2.055   6.256  0.4414 -0.0920 -1.0208
  111MOL   H15342173   4.483   1.894   6.307  0.6239  1.2057 -2.2454
  111MOL   C15442174   4.822   2.361   6.748  0.5109  0.1293 -0.6520
  111MOL   C15542175   4.890   2.345   6.885 -0.0603  0.4839 -0.6852
  111MOL   O15642176   4.810   2.410   6.984  0.2160  0.1890  0.2043
  111MOL   C15742177   4.816   2.360   7.120  0.8064  0.4047  0.1038
  111MOL   C15842178   4.712   2.246   7.126  0.2400  0.3778  0.6700
  111MOL   C15942179   4.707   2.163   7.250 -0.0062 -0.2985 -0.4446
  111MOL   C16042180   4.619   2.043   7.240  0.1552  0.3186 -0.4339
  111MOL   H16142181   4.820   2.468   6.730  1.1078  0.4944  1.3427
  111MOL   H16242182   4.884   2.315   6.671  0.0519 -1.0009 -0.3634
  111MOL   H16342183   4.882   2.240   6.914  0.1234  0.8243  0.6138
  111MOL   H16442184   4.916   2.329   7.150  1.0664 -0.2719 -1.3996
  111MOL   H16542185   4.789   2.439   7.190 -1.6515 -1.9497  1.9437
  111MOL   H16642186   4.734   2.171   7.050 -0.4138 -1.7820  2.5684
  111MOL   H16742187   4.617   2.290   7.096  0.8958  0.1086 -1.8780
  111MOL   H16842188   4.808   2.136   7.281  0.9439 -0.2364 -3.3171
  111MOL   H16942189   4.676   2.230   7.330  0.6444  1.0013 -1.2655
  111MOL   H17042190   4.636   1.993   7.335  0.0816  2.1111  0.5500
  111MOL   H17142191   4.513   2.067   7.227 -0.0188  0.2818  0.8370
  111MOL   H17242192   4.649   1.976   7.159 -1.5100 -1.1538  0.1257
  111MOL   C17342193   5.030   2.401   6.894 -0.6286  0.5128 -0.5397
  111MOL   C17442194   5.137   2.314   6.837  0.1231 -0.0426  0.4004
  111MOL   O17542195   5.250   2.402   6.815 -0.9395  0.3246  0.3548
  111MOL   C17642196   5.347   2.353   6.720  0.0937  0.6938 -0.0201
  111MOL   C17742197   5.450   2.460   6.689 -0.2143 -0.3437 -0.2442
  111MOL   C17842198   5.521   2.497   6.824  0.4341 -0.9824  0.1218
  111MOL   C17942199   5.592   2.641   6.818 -0.3389  0.1311 -0.1186
  111MOL   H18042200   5.053   2.412   7.000  0.5797  1.2129 -0.8635
  111MOL   H18142201   5.025   2.503   6.855 -1.8059  1.0654  1.0246
  111MOL   H18242202   5.109   2.285   6.736 -0.6611 -0.9460  0.8703
  111MOL   H18342203   5.303   2.329   6.623 -0.1524  1.5752 -0.1287
  111MOL   H18442204   5.400   2.265   6.756  0.1699  0.5461 -0.4845
  111MOL   H18542205   5.396   2.550   6.660 -0.0914 -0.0738  0.3581
  111MOL   H18642206   5.522   2.433   6.612 -0.8306  1.1046 -1.3376
  111MOL   H18742207   5.449   2.485   6.904  0.2142 -0.5855 -0.0160
  111MOL   H18842208   5.588   2.418   6.858  0.2329 -0.8615  0.8061
  111MOL   H18942209   5.516   2.710   6.781 -0.2401  0.4346  0.2438
  111MOL   H19042210   5.621   2.669   6.919 -0.3656 -0.6721  0.1151
  111MOL   H19142211   5.690   2.639   6.771  0.9935  1.0173  2.5374
  111MOL   C19242212   5.168   2.194   6.929 -0.0669  0.3590  0.2319
  111MOL   C19342213   5.205   2.072   6.835 -0.5543 -0.3942  0.2865
  111MOL   O19442214   5.266   1.969   6.914 -0.1517 -0.1179 -0.5944
  111MOL   C19542215   5.409   1.974   6.893 -0.0267  0.1421  0.1411
  111MOL   C19642216   5.486   1.901   7.008 -0.2157  0.1857 -0.3912
  111MOL   C19742217   5.464   1.747   7.015 -0.4127  0.2142 -0.0444
  111MOL   C19842218   5.584   1.674   7.066  0.2967  0.0040 -0.6700
  111MOL   H19942219   5.083   2.153   6.984  0.9708  0.3617  1.8741
  111MOL   H20042220   5.259   2.212   6.986  1.8312 -1.5715 -2.0684
  111MOL   H20142221   5.266   2.104   6.750 -1.9955  1.3797 -0.1173
  111MOL   H20242222   5.440   2.078   6.899  0.6464  0.0837 -1.8139
  111MOL   H20342223   5.432   1.923   6.799  0.8245  1.8188 -0.5914
  111MOL   H20442224   5.589   1.931   6.990 -0.3822  0.0134 -1.7057
  111MOL   H20542225   5.464   1.939   7.108  0.4162 -2.0486  0.6296
  111MOL   H20642226   5.437   1.707   6.917 -0.0581  0.0192 -0.0618
  111MOL   H20742227   5.381   1.716   7.078  0.0111  0.0583  0.4366
  111MOL   H20842228   5.671   1.706   7.009 -0.0175 -1.1312 -1.7984
  111MOL   H20942229   5.599   1.709   7.168  0.0346 -0.9701 -0.2882
  111MOL   H21042230   5.571   1.566   7.063 -1.6854  0.1694  0.9948
  111MOL   C21142231   5.077   2.008   6.770  0.4154 -0.2425  1.0691
  111MOL   C21242232   5.095   1.885   6.683  0.1293  0.5540 -0.6155
  111MOL   O21342233   4.960   1.856   6.644 -0.3222  0.1178 -0.1846
  111MOL   C21442234   4.921   1.717   6.660  0.0221 -0.0599  0.0796
  111MOL   C21542235   4.766   1.711   6.633  0.5854  0.0033  0.7658
  111MOL   C21642236   4.680   1.760   6.749 -0.4214 -0.3593 -0.4556
  111MOL   C21742237   4.531   1.766   6.723  0.4404 -0.2320 -0.4134
  111MOL   H21842238   5.029   2.077   6.701  0.1131 -1.1946  0.3250
  111MOL   H21942239   5.009   1.983   6.851  0.8856  0.8040  1.7969
  111MOL   H22042240   5.143   1.819   6.755  0.4681  1.1336 -0.3019
  111MOL   H22142241   4.965   1.651   6.586 -0.8497 -1.7040  1.0109
  111MOL   H22242242   4.964   1.683   6.754 -1.8195  1.4123  1.5014
  111MOL   H22342243   4.751   1.772   6.544  1.5284  0.1106  0.6801
  111MOL   H22442244   4.733   1.614   6.597  1.8137  0.0997 -0.6426
  111MOL   H22542245   4.715   1.861   6.771 -1.0563 -0.1494 -0.3876
  111MOL   H22642246   4.710   1.712   6.843  0.6614  2.6713  0.8058
  111MOL   H22742247   4.490   1.665   6.718 -1.6909  0.5165  1.1038
  111MOL   H22842248   4.504   1.820   6.633 -1.1214 -0.1592  0.0863
  111MOL   H22942249   4.468   1.821   6.792 -1.3348 -0.0851 -2.1087
  111MOL   C23042250   5.190   1.901   6.568  0.7745 -0.2102 -0.2064
  111MOL   C23142251   5.169   2.020   6.478 -0.0661  0.6822  0.5799
  111MOL   O23242252   5.281   2.009   6.394  0.1425 -0.4994  0.2490
  111MOL   C23342253   5.378   2.106   6.378  0.8094 -0.4392 -0.2602
  111MOL   C23442254   5.482   2.034   6.287 -0.2596  0.2616  0.2685
  111MOL   C23542255   5.603   2.125   6.278 -0.1410 -0.1434  0.8270
  111MOL   C23642256   5.692   2.091   6.167  0.3262  0.5331 -0.2550
  111MOL   H23742257   5.176   1.813   6.505  0.5347 -0.6037  0.3986
  111MOL   H23842258   5.292   1.900   6.607  0.1961 -0.5619  1.3267
  111MOL   H23942259   5.174   2.118   6.527  1.7092  0.1217  1.5515
  111MOL   H24042260   5.342   2.197   6.331  0.2245  0.3169  1.6095
  111MOL   H24142261   5.413   2.140   6.475 -1.1070  0.2814  0.1967
  111MOL   H24242262   5.502   1.938   6.335 -0.3649  1.0214  1.8583
  111MOL   H24342263   5.427   2.004   6.198  1.3832 -0.4966 -0.5192
  111MOL   H24442264   5.658   2.109   6.371  1.3668  1.0477  0.1778
  111MOL   H24542265   5.567   2.227   6.267 -1.3326 -0.5353  1.1333
  111MOL   H24642266   5.773   2.163   6.169  0.5731  0.2389  0.6274
  111MOL   H24742267   5.641   2.095   6.070  0.3001  0.6592 -0.2351
  111MOL   H24842268   5.737   1.992   6.177 -1.4363 -0.3632 -0.7921
  111MOL   C24942269   5.044   2.014   6.394  0.2154 -0.1778 -0.5139
  111MOL   C25042270   5.024   2.114   6.282 -0.0264 -0.1657 -0.2172
  111MOL   O25142271   4.980   2.236   6.349  0.1859  0.2053 -0.2681
  111MOL   C25242272   4.979   2.350   6.262  0.0711  0.7155  0.1710
  111MOL   C25342273   4.955   2.479   6.335 -0.1984 -0.4310 -0.3081
  111MOL   C25442274   5.063   2.500   6.441 -0.7882  0.3733  0.2289
  111MOL   C25542275   5.063   2.628   6.531  0.9459 -0.4252  1.0375
  111MOL   H25642276   4.949   1.996   6.446 -0.1208 -1.2631 -1.4786
  111MOL   H25742277   5.062   1.916   6.349  1.0787 -0.6475  0.8357
  111MOL   H25842278   5.118   2.131   6.230  1.2071  0.6228  2.1851
  111MOL   H25942279   4.894   2.338   6.194  1.0268 -0.6224 -0.8021
  111MOL   H26042280   5.069   2.356   6.202  0.3515  3.5197  0.7750
  111MOL   H26142281   4.954   2.564   6.267  0.4013 -1.8936 -2.1899
  111MOL   H26242282   4.858   2.480   6.385  0.5570 -2.9143  1.3102
  111MOL   H26342283   5.048   2.415   6.508  2.1340 -0.9736 -0.7580
  111MOL   H26442284   5.163   2.491   6.398 -1.5982  1.9011 -2.0230
  111MOL   H26542285   5.040   2.722   6.482  3.4816  0.4382  1.3855
  111MOL   H26642286   5.161   2.643   6.578  0.7624 -1.7027  1.8469
  111MOL   H26742287   4.989   2.623   6.610 -1.1589  1.2488 -0.7597
  111MOL   C26842288   4.929   2.054   6.172 -0.7781 -0.5331 -0.4169
  111MOL   C26942289   4.962   1.918   6.118 -0.0638 -0.4152 -0.2986
  111MOL   O27042290   4.876   1.876   6.009  0.4419 -0.0430 -0.4880
  111MOL   C27142291   4.750   1.831   6.055 -0.1422 -0.4156  0.6304
  111MOL   C27242292   4.633   1.866   5.957  0.0125 -0.5785  0.0632
  111MOL   C27342293   4.628   2.004   5.903 -0.0901 -0.3839 -0.0500
  111MOL   C27442294   4.552   2.021   5.771  0.0451 -0.4182 -0.6920
  111MOL   H27542295   4.828   2.059   6.214  0.3557  0.7428  2.2212
  111MOL   H27642296   4.926   2.121   6.086 -1.9998  0.3925  0.3411
  111MOL   H27742297   4.963   1.839   6.193 -1.6590  0.5686  0.7665
  111MOL   H27842298   4.760   1.723   6.063  1.0157 -0.2461  1.7382
  111MOL   H27942299   4.724   1.867   6.155 -3.4848  0.1343 -0.3624
  111MOL   H28042300   4.644   1.806   5.866 -0.8893  0.6060 -0.8382
  111MOL   H28142301   4.542   1.824   6.001 -0.6987 -0.7867 -1.5911
  111MOL   H28242302   4.732   2.029   5.881 -0.2611 -0.8683 -1.4214
  111MOL   H28342303   4.586   2.075   5.974  2.2262 -1.2923  2.3011
  111MOL   H28442304   4.595   2.109   5.723  1.8222  0.1026  1.7660
  111MOL   H28542305   4.446   2.034   5.791  0.8078  0.8232  2.8074
  111MOL   H28642306   4.568   1.946   5.694 -2.5880 -2.1971  0.4368
  111MOL   C28742307   5.106   1.909   6.066 -0.4428 -0.1727  0.4624
  111MOL   C28842308   5.167   1.773   6.026 -0.1202  0.7086 -1.0424
  111MOL   O28942309   5.190   1.702   6.144  0.0182  0.1457 -0.2284
  111MOL   C29042310   5.095   1.603   6.178  0.3283  0.3074 -0.4601
  111MOL   C29142311   5.110   1.568   6.328  0.0039  1.0228  0.1702
  111MOL   C29242312   5.251   1.523   6.358 -0.0158  0.4496  0.7599
  111MOL   C29342313   5.274   1.488   6.504  1.2304 -0.2478  0.6390
  111MOL   H29442314   5.184   1.966   6.117 -2.4549  2.2687  0.8942
  111MOL   H29542315   5.095   1.960   5.970  3.4724  1.2555  0.6826
  111MOL   H29642316   5.099   1.718   5.960 -1.2103  0.6280  0.1391
  111MOL   H29742317   4.992   1.632   6.158  0.0465 -0.5933 -0.3197
  111MOL   H29842318   5.113   1.517   6.114  3.2772 -0.7005  1.5737
  111MOL   H29942319   5.031   1.499   6.358  1.4667 -1.7494 -2.1315
  111MOL   H30042320   5.092   1.654   6.393  0.2355 -0.9378  2.9126
  111MOL   H30142321   5.318   1.599   6.318  0.3512 -1.3868 -2.2643
  111MOL   H30242322   5.286   1.442   6.294 -1.9303  0.2209 -0.0049
  111MOL   H30342323   5.258   1.565   6.579 -1.6227  0.3797 -0.5637
  111MOL   H30442324   5.203   1.408   6.528 -0.5167  1.2754  0.6239
  111MOL   H30542325   5.377   1.460   6.522  1.1304 -1.2434 -0.2439
  111MOL   C30642326   5.305   1.781   5.955 -0.2053 -0.1448 -0.2782
  111MOL   C30742327   5.370   1.646   5.922  0.2428 -0.0040  0.7933
  111MOL   O30842328   5.502   1.666   5.877  0.6220 -0.0199  0.1348
  111MOL   C30942329   5.591   1.676   5.986  0.6285  0.4910 -0.2236
  111MOL   C31042330   5.718   1.691   5.901  0.0597  0.1823 -0.1406
  111MOL   C31142331   5.719   1.811   5.806 -0.3250  0.5674 -0.8084
  111MOL   C31242332   5.860   1.831   5.764 -0.1369  0.4909 -0.0595
  111MOL   H31342333   5.290   1.841   5.865  0.0928 -0.1900 -0.3555
  111MOL   H31442334   5.373   1.844   6.012  0.2460  0.1455 -1.1332
  111MOL   H31542335   5.375   1.580   6.008 -0.2945  0.3446  1.0991
  111MOL   H31642336   5.586   1.585   6.046 -3.5129 -0.3990 -1.7731
  111MOL   H31742337   5.580   1.760   6.054  1.3629 -1.5179  2.4795
  111MOL   H31842338   5.725   1.597   5.847 -1.0158  0.3903 -0.6701
  111MOL   H31942339   5.798   1.699   5.974 -1.9572  1.5501  2.0304
  111MOL   H32042340   5.664   1.796   5.713  0.6179 -0.3080 -1.2282
  111MOL   H32142341   5.679   1.898   5.858  0.0355 -0.2398  0.8486
  111MOL   H32242342   5.910   1.866   5.855 -1.5864 -1.4498  1.5249
  111MOL   H32342343   5.878   1.918   5.701  0.1469 -0.6038 -1.5072
  111MOL   H32442344   5.904   1.742   5.720  0.8656 -0.4511  2.7500
  111MOL   C32542345   5.283   1.567   5.819 -0.4118  0.7785  0.6309
  111MOL   C32642346   5.302   1.415   5.811  0.9935 -0.1086 -1.1706
  111MOL   O32742347   5.193   1.354   5.756  0.2716  0.4409 -0.0564
  111MOL   C32842348   5.074   1.328   5.833 -0.3489 -0.2337 -0.0326
  111MOL   C32942349   4.984   1.248   5.738 -0.5371 -0.2976  0.5839
  111MOL   C33042350   4.859   1.187   5.796 -0.0292  0.1441 -0.4783
  111MOL   C33142351   4.834   1.048   5.751 -0.9640 -0.2533  0.0339
  111MOL   H33242352   5.289   1.607   5.718  2.3436  1.0771  0.8638
  111MOL   H33342353   5.178   1.584   5.843 -0.4432 -0.0931  1.1217
  111MOL   H33442354   5.310   1.373   5.911  0.5037 -0.9885 -1.5013
  111MOL   H33542355   5.024   1.419   5.867 -1.2860 -1.7953  2.9744
  111MOL   H33642356   5.103   1.268   5.919 -4.7654 -1.5417  0.6417
  111MOL   H33742357   4.949   1.305   5.651 -1.2374 -1.3608  0.1570
  111MOL   H33842358   5.049   1.172   5.693 -0.9304  0.6442 -1.6444
  111MOL   H33942359   4.776   1.254   5.772 -0.6199 -1.0321 -1.7454
  111MOL   H34042360   4.876   1.195   5.904 -1.4936  1.7016 -0.3519
  111MOL   H34142361   4.918   0.982   5.774 -3.6148 -3.7856 -0.0548
  111MOL   H34242362   4.817   1.035   5.644  0.4434 -0.3781 -0.1856
  111MOL   H34342363   4.751   0.990   5.791 -0.1372 -0.8329  0.9544
  111MOL   C34442364   5.422   1.375   5.730  0.6282  0.0308  0.3204
  111MOL   C34542365   5.450   1.224   5.730 -0.2895  0.1665  0.0972
  111MOL   O34642366   5.518   1.209   5.852 -0.3071 -0.2771  0.0442
  111MOL   C34742367   5.534   1.073   5.889 -0.0653  1.3381  0.0535
  111MOL   C34842368   5.620   1.080   6.018 -0.7374  0.2362  0.2610
  111MOL   C34942369   5.749   1.154   5.996  0.4499  0.1623 -0.7871
  111MOL   C35042370   5.848   1.113   6.111  0.0725  0.3222 -0.3120
  111MOL   H35142371   5.413   1.406   5.626 -0.5086 -0.2321  0.3396
  111MOL   H35242372   5.511   1.425   5.768  0.1695  0.8751  0.3007
  111MOL   H35342373   5.354   1.172   5.737 -1.2016  1.6831 -0.9691
  111MOL   H35442374   5.590   1.011   5.819 -0.7010 -0.5946  1.2463
  111MOL   H35542375   5.437   1.030   5.909  0.5735 -0.7390 -1.2018
  111MOL   H35642376   5.664   0.984   6.044 -0.5924  0.9668  2.8870
  111MOL   H35742377   5.558   1.120   6.099  0.2159  0.7670  0.7348
  111MOL   H35842378   5.780   1.131   5.895 -0.2918  1.9412 -1.4482
  111MOL   H35942379   5.735   1.262   6.004  0.5126  0.0317  1.7684
  111MOL   H36042380   5.941   1.169   6.113  0.9919 -1.1873 -0.1919
  111MOL   H36142381   5.870   1.007   6.111  0.8921  0.4898 -0.7921
  111MOL   H36242382   5.799   1.134   6.207  1.7259  0.3821  0.5298
  111MOL   C36342383   5.528   1.177   5.610 -0.4368  0.4075 -0.0834
  111MOL   C36442384   5.659   1.248   5.609 -0.0824 -0.0959  0.2429
  111MOL   O36542385   5.739   1.177   5.515  0.2361 -0.0013 -0.0419
  111MOL   C36642386   5.854   1.249   5.468  0.0669  0.0272  0.0339
  111MOL   C36742387   5.933   1.157   5.372  0.3947 -0.7148  0.0859
  111MOL   C36842388   5.859   1.114   5.247  0.4976  0.3819  0.1417
  111MOL   C36942389   5.942   1.025   5.149 -0.2013 -0.4716  0.0565
  111MOL   H37042390   5.480   1.196   5.514  1.1853 -0.0083 -0.9929
  111MOL   H37142391   5.547   1.070   5.618  1.6101  0.7480 -0.2765
  111MOL   H37242392   5.724   1.239   5.696 -1.5622 -3.7282  1.0825
  111MOL   H37342393   5.909   1.295   5.550 -0.0816  2.2840 -1.0916
  111MOL   H37442394   5.812   1.330   5.408  3.0693  1.1511 -0.6407
  111MOL   H37542395   5.955   1.062   5.420 -1.0881 -0.5243  1.1781
  111MOL   H37642396   6.023   1.212   5.344  0.3057 -0.4669  0.2848
  111MOL   H37742397   5.834   1.205   5.193  1.6131 -0.1987 -1.4130
  111MOL   H37842398   5.776   1.050   5.277  0.9190 -0.0296  0.4281
  111MOL   H37942399   6.008   1.094   5.097 -0.7824  0.6399  0.7564
  111MOL   H38042400   5.992   0.947   5.206  1.2006 -0.3414 -0.9779
  111MOL   H38142401   5.874   0.988   5.072  1.3347  0.1564 -1.6266
  111MOL   H38242402   5.648   1.348   5.567 -1.8710 -0.7602 -0.9172
  112MOL     C142403   0.117   7.608   2.551 -0.2033  0.2866  0.3222
  112MOL     C242404   0.082   7.744   2.608 -0.3235 -0.6553 -1.1525
  112MOL     O342405   0.153   0.045   2.535  0.1880 -0.1809  0.0548
  112MOL     C442406   0.287   0.061   2.577  0.3807 -0.8175  0.6181
  112MOL     C542407   0.315   0.188   2.661  0.6987  0.3605 -0.0517
  112MOL     C642408   0.469   0.220   2.689 -0.2004 -1.0847  0.0104
  112MOL     C742409   0.495   0.334   2.789 -0.1739 -0.2147 -0.3922
  112MOL     H842410   0.048   7.583   2.470 -2.1776 -0.0067  2.0308
  112MOL     H942411   0.221   7.599   2.520 -0.0255  0.1432  0.9601
  112MOL    H1042412   0.111   7.742   2.713  0.3669  0.2934 -1.3174
  112MOL    H1142413   0.313   7.774   2.635  0.4624 -0.6226  0.8785
  112MOL    H1242414   0.360   0.045   2.498 -0.8152 -0.4537 -0.5838
  112MOL    H1342415   0.262   0.186   2.756 -1.2904  2.7995 -1.0700
  112MOL    H1442416   0.268   0.279   2.623 -0.6634  0.5419  1.9960
  112MOL    H1542417   0.514   0.251   2.595  0.8653 -0.3237  0.7662
  112MOL    H1642418   0.527   0.131   2.710 -1.3537 -2.3250 -1.8789
  112MOL    H1742419   0.447   0.312   2.884  0.6530 -0.0034  0.0809
  112MOL    H1842420   0.471   0.437   2.762  1.9945  0.7109  1.0749
  112MOL    H1942421   0.602   0.336   2.811 -0.2949 -0.8187  0.2733
  112MOL    H2042422   0.096   7.544   2.637  0.9268 -1.4074 -0.6383
  112MOL    C2142423   7.737   7.783   2.603 -0.5542  0.0281  0.6551
  112MOL    C2242424   7.701   0.108   2.683 -0.2759  0.0760 -0.6496
  112MOL    O2342425   7.578   0.163   2.632 -0.3780  0.7116  0.0924
  112MOL    C2442426   7.576   0.265   2.537  0.4363  0.0801  0.6545
  112MOL    C2542427   7.439   0.283   2.468 -0.2121 -0.2207 -0.2245
  112MOL    C2642428   7.320   0.308   2.556 -0.0149 -0.1180 -0.0667
  112MOL    C2742429   7.320   0.432   2.648  0.2296 -0.6298 -0.0617
  112MOL    H2842430   7.677   7.699   2.637 -1.2302 -0.2119 -1.0618
  112MOL    H2942431   7.706   7.800   2.500 -2.5161 -1.9794  0.8990
  112MOL    H3042432   7.783   0.180   2.674  0.5316 -0.7221  0.1443
  112MOL    H3142433   7.645   0.224   2.463  1.2581  2.5260  0.0311
  112MOL    H3242434   7.615   0.362   2.566  2.8415 -0.5330 -0.3990
  112MOL    H3342435   7.453   0.364   2.397 -0.3574 -1.6235 -1.8815
  112MOL    H3442436   7.423   0.184   2.426 -0.7039  0.1319 -0.8791
  112MOL    H3542437   7.239   0.320   2.484  0.4519  0.6148 -0.4694
  112MOL    H3642438   7.295   0.223   2.621  0.7490  0.1240  0.5500
  112MOL    H3742439   7.400   0.433   2.722  0.0786 -2.2667  0.1312
  112MOL    H3842440   7.337   0.524   2.592  2.3611 -0.2872  1.1008
  112MOL    H3942441   7.226   0.451   2.701  1.2414  0.3128  1.4100
  112MOL    C4042442   7.700   0.064   2.833 -0.4087  0.1566 -0.5483
  112MOL    C4142443   7.634   0.171   2.925 -0.2669 -0.1021  0.7623
  112MOL    O4242444   7.741   0.258   2.959 -0.1032  0.1542  0.0876
  112MOL    C4342445   7.737   0.384   2.890 -0.3270 -0.8773  0.1545
  112MOL    C4442446   0.059   0.464   2.930 -0.0340 -1.0409 -0.1853
  112MOL    C4542447   0.060   0.604   2.875 -0.1397  0.3374 -0.3754
  112MOL    C4642448   0.058   0.602   2.716  0.0945  0.9491  0.1414
  112MOL    H4742449   7.796   0.027   2.869 -0.9877 -1.5233 -0.7101
  112MOL    H4842450   7.636   7.778   2.836  1.2689 -1.1250 -1.5931
  112MOL    H4942451   7.550   0.213   2.869  0.7016 -0.9436 -1.3946
  112MOL    H5042452   7.656   0.455   2.910  2.1922  2.3445 -0.7174
  112MOL    H5142453   7.725   0.368   2.783  2.3999 -0.3938 -0.2375
  112MOL    H5242454   0.139   0.397   2.898  1.1649 -0.3688  1.3335
  112MOL    H5342455   0.064   0.467   3.039 -0.3405 -1.1199 -0.1672
  112MOL    H5442456   0.150   0.654   2.911  0.5877 -0.6521 -0.7651
  112MOL    H5542457   7.781   0.666   2.914 -0.6228 -0.3490 -0.2791
  112MOL    H5642458   0.071   0.702   2.673 -1.0630  0.2499 -1.8956
  112MOL    H5742459   0.130   0.533   2.673  0.2321 -0.1617  2.0883
  112MOL    H5842460   7.760   0.573   2.685  1.1276 -1.2848 -1.1646
  112MOL    C5942461   7.599   0.105   3.063  0.1062  0.2583 -0.0603
  112MOL    C6042462   7.510   0.202   3.148 -0.3170 -0.1814  0.1811
  112MOL    O6142463   7.385   0.203   3.088 -0.4923  0.3536  0.0218
  112MOL    C6242464   7.328   0.330   3.056  0.3387 -0.0478  0.0676
  112MOL    C6342465   7.178   0.324   3.039  0.1635  0.0041 -0.3608
  112MOL    C6442466   7.135   0.217   2.931  0.8950  0.0858  0.4832
  112MOL    C6542467   6.985   0.188   2.920  0.1592  0.6254  0.7599
  112MOL    H6642468   7.542   0.013   3.055 -1.3097  1.1739 -0.6954
  112MOL    H6742469   7.689   0.069   3.113 -0.4762  1.0479  1.5785
  112MOL    H6842470   7.563   0.297   3.139  2.0358 -1.4228  0.3794
  112MOL    H6942471   7.377   0.362   2.964  2.4910 -1.2267  0.7631
  112MOL    H7042472   7.354   0.405   3.130  1.5866 -0.8192  0.4162
  112MOL    H7142473   7.133   0.296   3.134 -0.5321 -2.0081 -1.2489
  112MOL    H7242474   7.144   0.422   3.006 -0.0077 -0.0040 -0.2063
  112MOL    H7342475   7.171   0.242   2.831 -1.6022 -0.8130 -0.6748
  112MOL    H7442476   7.187   0.125   2.961  1.8405  0.2341 -0.6690
  112MOL    H7542477   6.972   0.089   2.877  1.8167  0.8030 -0.1813
  112MOL    H7642478   6.948   0.178   3.023  0.0853  1.6446  0.8451
  112MOL    H7742479   6.927   0.270   2.878  0.6081  1.9330  2.6044
  112MOL    C7842480   7.501   0.196   3.298  0.5859  0.0481  0.3603
  112MOL    C7942481   7.448   0.321   3.373  0.1088  0.5426 -0.3899
  112MOL    O8042482   7.531   0.339   3.492 -0.0133 -0.3375  0.2728
  112MOL    C8142483   7.646   0.421   3.477  0.7508  0.1729 -0.2462
  112MOL    C8242484   7.745   0.404   3.597  0.6484  0.0337  0.1045
  112MOL    C8342485   7.670   0.395   3.729  0.0686  0.1539  0.4306
  112MOL    C8442486   7.761   0.400   3.850  0.8491  0.2529  0.4244
  112MOL    H8542487   7.598   0.172   3.342  0.2950 -1.4352  0.2183
  112MOL    H8642488   7.452   0.107   3.339  1.1423  0.0375  1.0262
  112MOL    H8742489   7.445   0.409   3.308 -2.1603  0.4714 -0.4172
  112MOL    H8842490   7.606   0.522   3.474  0.3731  0.0307 -0.0701
  112MOL    H8942491   7.703   0.396   3.387  3.7252 -0.2091  1.6612
  112MOL    H9042492   0.008   0.317   3.588 -0.4790 -0.8764  0.6141
  112MOL    H9142493   0.006   0.492   3.597  2.7064 -1.3580  2.0917
  112MOL    H9242494   7.623   0.297   3.738 -1.1869  0.8117  1.1810
  112MOL    H9342495   7.595   0.474   3.729  1.0916  1.1329 -0.5716
  112MOL    H9442496   0.001   0.501   3.843  0.3184  0.5178  1.0016
  112MOL    H9542497   7.701   0.397   3.941 -1.8058  0.0887 -1.2716
  112MOL    H9642498   0.030   0.318   3.840  1.8836  1.2685 -0.7266
  112MOL    C9742499   7.304   0.297   3.413  0.6824 -0.4634  0.2964
  112MOL    C9842500   7.222   0.408   3.475  0.0702 -0.1919  0.0464
  112MOL    O9942501   7.243   0.521   3.393 -0.7090 -0.4791  0.4137
  112MOL   C10042502   7.251   0.647   3.456 -0.8296 -0.7846  0.5035
  112MOL   C10142503   7.288   0.752   3.344  0.1410  0.4269 -0.0773
  112MOL   C10242504   7.221   0.886   3.377 -0.2941  0.0178  0.1635
  112MOL   C10342505   7.234   0.989   3.260  0.6883  0.2464 -0.3980
  112MOL   H10442506   7.315   0.229   3.498  4.6383  1.9074  1.7950
  112MOL   H10542507   7.258   0.234   3.336 -0.7591  1.6725 -0.6363
  112MOL   H10642508   7.264   0.429   3.574  0.0088 -1.1526  0.2802
  112MOL   H10742509   7.330   0.641   3.530 -1.4501 -1.3354  1.1261
  112MOL   H10842510   7.159   0.676   3.508 -0.4064  0.9851  0.3126
  112MOL   H10942511   7.250   0.710   3.251 -0.2817  0.0374  0.2685
  112MOL   H11042512   7.394   0.751   3.320  0.0184 -0.3104 -0.6097
  112MOL   H11142513   7.253   0.932   3.471  1.2653 -2.0362  0.6782
  112MOL   H11242514   7.114   0.874   3.389 -0.6594  0.4396 -2.3305
  112MOL   H11342515   7.158   1.067   3.257  0.8235  0.3694 -0.6227
  112MOL   H11442516   7.327   1.046   3.262 -0.9980  3.1664 -2.0863
  112MOL   H11542517   7.214   0.941   3.164  0.8508  0.3604 -0.4886
  112MOL   C11642518   7.070   0.381   3.475  0.8102 -0.5867 -0.1456
  112MOL   C11742519   7.009   0.301   3.590  0.1917  0.0345 -0.5657
  112MOL   O11842520   7.035   0.164   3.582 -0.0252  0.0857 -0.6034
  112MOL   C11942521   6.947   0.094   3.497  0.0113 -0.1829 -0.1530
  112MOL   C12042522   6.947   7.748   3.519  0.4871  0.1783 -0.1990
  112MOL   C12142523   6.826   7.673   3.476  0.3338 -0.4449  0.0349
  112MOL   C12242524   6.830   7.523   3.478  0.1972  0.2014  0.0455
  112MOL   H12342525   7.027   0.481   3.486 -0.1285 -1.0113  0.0692
  112MOL   H12442526   7.037   0.351   3.375 -0.1114  0.8352 -0.2920
  112MOL   H12542527   6.902   0.317   3.579  0.1436 -0.4611 -0.8278
  112MOL   H12642528   6.973   0.113   3.393 -0.1604  2.0171  0.1634
  112MOL   H12742529   6.844   0.129   3.505  0.4159  0.6621  1.5997
  112MOL   H12842530   6.958   7.725   3.625  0.8325  0.2084 -0.2263
  112MOL   H12942531   7.040   7.705   3.483  1.3824  1.6726  0.2628
  112MOL   H13042532   6.745   7.700   3.545  0.3884 -0.8563  0.2630
  112MOL   H13142533   6.785   7.709   3.382 -0.6441 -0.0849  0.5921
  112MOL   H13242534   6.735   7.480   3.511  1.1047 -1.6628  0.3430
  112MOL   H13342535   6.912   7.485   3.539 -0.2166 -0.7092  0.0547
  112MOL   H13442536   6.854   7.479   3.381 -1.1136 -0.3134 -0.0575
  112MOL   C13542537   7.058   0.353   3.730 -0.3234 -0.3497 -0.6679
  112MOL   C13642538   6.982   0.282   3.847  0.2065 -0.2062 -0.0937
  112MOL   O13742539   7.054   0.284   3.973  0.0051 -0.4211 -0.5822
  112MOL   C13842540   7.124   0.172   4.006 -0.1127 -0.3357 -0.3450
  112MOL   C13942541   7.210   0.209   4.125  0.2977  0.1566 -0.4987
  112MOL   C14042542   7.125   0.236   4.253 -0.2400 -0.1381  0.1822
  112MOL   C14142543   7.208   0.261   4.375  0.0100 -0.0985 -0.5773
  112MOL   H14242544   7.056   0.461   3.742 -0.7590 -0.1112 -2.6771
  112MOL   H14342545   7.160   0.319   3.743 -0.2274  0.8074  1.8572
  112MOL   H14442546   6.979   0.176   3.822  2.2407 -0.6485  1.3871
  112MOL   H14542547   7.200   0.142   3.934  1.0268  0.9763  0.2948
  112MOL   H14642548   7.057   0.091   4.032 -1.4794  0.4924 -1.2125
  112MOL   H14742549   7.271   0.297   4.105  0.4199 -0.5410 -3.3761
  112MOL   H14842550   7.269   0.121   4.151 -0.4854 -0.0968  0.4608
  112MOL   H14942551   7.049   0.314   4.248  1.0409  1.0032 -2.2545
  112MOL   H15042552   7.073   0.144   4.276 -0.3830 -0.3590 -0.9971
  112MOL   H15142553   7.290   0.327   4.345  1.6992 -1.3168  1.2202
  112MOL   H15242554   7.147   0.318   4.446 -1.0304 -0.8769 -0.8395
  112MOL   H15342555   7.256   0.175   4.422 -2.2284 -1.2518 -0.3690
  112MOL   C15442556   6.842   0.347   3.866  0.3935 -0.9607  0.0519
  112MOL   C15542557   6.746   0.283   3.963  0.1343  0.6426 -0.7064
  112MOL   O15642558   6.718   0.154   3.893 -0.4787 -0.1429  0.6154
  112MOL   C15742559   6.673   0.056   3.990  0.1683  0.6830  0.1851
  112MOL   C15842560   6.626   7.727   3.925 -0.5631  0.1186 -0.5618
  112MOL   C15942561   6.742   7.631   3.869 -0.4997 -1.0632  0.8042
  112MOL   C16042562   6.707   7.481   3.865  0.1894  0.6545 -0.4441
  112MOL   H16142563   6.786   0.357   3.773  1.2199  1.3453 -0.2306
  112MOL   H16242564   6.859   0.449   3.902 -0.4345 -1.0758  0.7920
  112MOL   H16342565   6.800   0.253   4.053  0.0978 -0.1832 -0.9511
  112MOL   H16442566   6.747   0.046   4.069  0.0895  0.7783  0.2706
  112MOL   H16542567   6.584   0.092   4.042 -0.5129 -0.8239  0.0653
  112MOL   H16642568   6.546   7.745   3.853 -2.0112  1.3650  1.3050
  112MOL   H16742569   6.575   7.677   4.008  1.1730 -0.6676  0.0465
  112MOL   H16842570   6.755   7.659   3.764 -1.3085 -1.0208  0.7124
  112MOL   H16942571   6.840   7.655   3.911  0.5122  1.9813 -2.9606
  112MOL   H17042572   6.629   7.466   3.791 -1.1117 -0.0006  1.0192
  112MOL   H17142573   6.797   7.424   3.842 -0.5274 -0.4241 -0.5889
  112MOL   H17242574   6.682   7.439   3.963  0.1247  0.5186 -0.5179
  112MOL   C17342575   6.605   0.358   3.983  0.4407  0.0599 -0.0924
  112MOL   C17442576   6.611   0.473   4.084  0.4268 -0.4274 -0.2979
  112MOL   O17542577   6.688   0.583   4.033 -0.0393  0.4706  0.1410
  112MOL   C17642578   6.755   0.665   4.137  0.4535  0.3523  0.1337
  112MOL   C17742579   6.885   0.608   4.186 -0.2792 -0.0079 -0.2010
  112MOL   C17842580   6.956   0.707   4.287 -0.1487  1.3900 -0.1462
  112MOL   C17942581   7.071   0.635   4.365  0.3509 -0.3313 -0.5722
  112MOL   H18042582   6.515   0.302   4.009 -0.1985  1.1628  0.0828
  112MOL   H18142583   6.581   0.403   3.887 -2.6754  1.9358  1.4928
  112MOL   H18242584   6.667   0.434   4.169  2.5910  0.5665 -1.2212
  112MOL   H18342585   6.681   0.680   4.215  0.2307  4.1076 -0.7032
  112MOL   H18442586   6.777   0.764   4.098 -0.0816 -0.5153 -2.5496
  112MOL   H18542587   6.943   0.574   4.100  0.7184 -0.1689  0.5215
  112MOL   H18642588   6.872   0.511   4.236  1.1303 -0.1759 -0.1505
  112MOL   H18742589   6.995   0.794   4.234 -0.1931  2.4500  1.5139
  112MOL   H18842590   6.881   0.747   4.354  0.3719  0.9867  0.6811
  112MOL   H18942591   7.109   0.689   4.451 -0.6452 -0.7667  0.1493
  112MOL   H19042592   7.022   0.551   4.413  2.3070 -0.5853  1.0072
  112MOL   H19142593   7.148   0.592   4.302 -0.3360 -2.4356 -0.0253
  112MOL   C19242594   6.477   0.527   4.143  0.8606  0.3940 -0.4895
  112MOL   C19342595   6.388   0.619   4.056 -0.2731  0.3554  0.5894
  112MOL   O19442596   6.308   0.535   3.978  0.4823  0.3949 -0.2598
  112MOL   C19542597   6.265   0.591   3.860  0.5787 -0.0235 -0.3822
  112MOL   C19642598   6.179   0.490   3.792  0.0897  0.1250  0.5897
  112MOL   C19742599   6.118   0.537   3.657 -0.5471  0.2427  0.9526
  112MOL   C19842600   6.006   0.445   3.613  0.2152 -0.3582  0.0981
  112MOL   H19942601   6.500   0.582   4.234 -0.6309 -3.1610  2.1562
  112MOL   H20042602   6.413   0.449   4.184 -1.3299  2.1447 -0.5359
  112MOL   H20142603   6.455   0.667   3.985  1.1860  0.1797  1.8260
  112MOL   H20242604   6.348   0.607   3.790  1.0049 -3.1490 -0.7020
  112MOL   H20342605   6.215   0.686   3.874 -1.0222 -1.2605  2.7305
  112MOL   H20442606   6.230   0.393   3.792  1.8533  1.0344  1.0958
  112MOL   H20542607   6.096   0.483   3.861 -1.5367  0.1015 -1.3132
  112MOL   H20642608   6.192   0.544   3.577  0.3109 -1.5791  1.5405
  112MOL   H20742609   6.076   0.635   3.679 -1.7872  0.7532 -3.2777
  112MOL   H20842610   6.043   0.343   3.611 -0.8274 -0.8017  2.0993
  112MOL   H20942611   5.914   0.452   3.672 -0.1770  1.1928 -0.6440
  112MOL   H21042612   5.955   0.453   3.517  0.6875  1.2184 -0.0467
  112MOL   C21142613   6.322   0.730   4.148  0.1841  0.1556  0.8802
  112MOL   C21242614   6.233   0.676   4.266  1.0616  0.4138 -0.4426
  112MOL   O21342615   6.304   0.703   4.384 -0.3014 -0.2647 -0.0562
  112MOL   C21442616   6.308   0.604   4.485 -0.4853 -0.3067 -0.4207
  112MOL   C21542617   6.402   0.674   4.595 -0.8758 -0.5242 -0.6404
  112MOL   C21642618   6.537   0.714   4.543 -0.8111  0.2339 -0.3609
  112MOL   C21742619   6.639   0.764   4.639 -0.3459 -0.1981  0.3318
  112MOL   H21842620   6.254   0.786   4.084  0.0538  0.8628  1.6160
  112MOL   H21942621   6.404   0.787   4.191  1.0722  1.1237 -2.0120
  112MOL   H22042622   6.207   0.573   4.244 -1.9988  1.3658 -1.5576
  112MOL   H22142623   6.215   0.589   4.540 -0.7979 -0.6950 -1.0503
  112MOL   H22242624   6.351   0.513   4.444 -0.6299 -1.6700  2.3707
  112MOL   H22342625   6.353   0.765   4.629 -1.4459 -1.6541  1.6584
  112MOL   H22442626   6.428   0.612   4.681 -1.7673 -1.0416 -0.7427
  112MOL   H22542627   6.514   0.778   4.458 -0.1040 -1.0181 -1.5101
  112MOL   H22642628   6.570   0.619   4.500 -1.2864 -0.4878  0.8184
  112MOL   H22742629   6.683   0.686   4.702  0.7837  0.5325  0.4748
  112MOL   H22842630   6.600   0.845   4.701 -0.6373  0.7194 -1.0322
  112MOL   H22942631   6.722   0.795   4.575  1.6000 -3.4264  1.1257
  112MOL   C23042632   6.102   0.748   4.299 -0.1217  0.2326 -0.4832
  112MOL   C23142633   5.998   0.723   4.198  0.0224  0.2402 -0.0609
  112MOL   O23242634   5.934   0.603   4.234 -0.3725  0.0581 -0.8091
  112MOL   C23342635   5.905   0.523   4.121  0.3268 -0.8054 -0.2788
  112MOL   C23442636   5.838   0.395   4.168 -0.1396  0.2909 -0.9035
  112MOL   C23542637   5.834   0.291   4.053 -0.0744 -0.5186 -0.7959
  112MOL   C23642638   5.781   0.161   4.107  0.7848  0.2113  0.0385
  112MOL   H23742639   6.130   0.852   4.312  1.3951 -0.3799  1.3465
  112MOL   H23842640   6.058   0.732   4.397  1.0735  1.1379  0.2047
  112MOL   H23942641   6.054   0.718   4.104 -0.0729 -1.3530 -0.0462
  112MOL   H24042642   5.832   0.572   4.057 -1.2327 -2.2145  0.3744
  112MOL   H24142643   5.992   0.504   4.058  1.9426  1.2496  1.2644
  112MOL   H24242644   5.885   0.341   4.251  0.5816 -0.8182 -2.0057
  112MOL   H24342645   5.735   0.416   4.195 -0.2219 -0.1935 -0.8236
  112MOL   H24442646   5.935   0.286   4.012  0.1626  0.3287 -0.3432
  112MOL   H24542647   5.768   0.310   3.969 -0.3073 -0.1776 -0.5389
  112MOL   H24642648   5.856   0.116   4.171  1.0420 -0.4746 -0.7308
  112MOL   H24742649   5.770   0.099   4.017 -0.8793  0.5959 -0.0427
  112MOL   H24842650   5.684   0.174   4.156  0.5833 -0.3296 -0.2054
  112MOL   C24942651   5.888   0.836   4.193  0.5712 -0.1258 -0.4332
  112MOL   C25042652   5.928   0.952   4.092 -0.8122  0.2373 -0.9973
  112MOL   O25142653   5.840   1.057   4.118  0.0785 -0.4439  0.1767
  112MOL   C25242654   5.907   1.162   4.177 -0.5002  0.4337 -0.7473
  112MOL   C25342655   5.809   1.278   4.205  0.0639 -0.1702  0.5819
  112MOL   C25442656   5.746   1.344   4.081 -0.4667 -0.6399  0.6279
  112MOL   C25542657   5.851   1.415   3.986  0.2657  0.2932 -0.0148
  112MOL   H25642658   5.864   0.869   4.293 -1.4156 -0.0382 -0.9105
  112MOL   H25742659   5.789   0.797   4.169  0.9274 -1.7364  0.6480
  112MOL   H25842660   6.032   0.971   4.122 -2.1824  1.8160  3.1469
  112MOL   H25942661   5.988   1.201   4.115 -0.7708  2.3159  0.0341
  112MOL   H26042662   5.958   1.123   4.265  1.7346  0.3851 -2.0258
  112MOL   H26142663   5.731   1.240   4.271 -0.1751 -1.7617 -0.5913
  112MOL   H26242664   5.867   1.347   4.266 -0.4879  0.4166  0.4549
  112MOL   H26342665   5.684   1.275   4.024 -0.0431 -0.8384  0.4043
  112MOL   H26442666   5.665   1.409   4.111 -0.4017 -0.1145 -0.3287
  112MOL   H26542667   5.909   1.494   4.033 -0.8267 -0.3742  2.5392
  112MOL   H26642668   5.788   1.459   3.909  0.2679  1.5423  0.6935
  112MOL   H26742669   5.917   1.353   3.925  0.4029  0.8198 -0.4059
  112MOL   C26842670   5.925   0.910   3.943  0.6959 -0.5929 -1.0731
  112MOL   C26942671   5.981   1.011   3.842 -0.3783  0.1942  0.3432
  112MOL   O27042672   6.120   1.026   3.881 -0.0349  0.0809  0.5667
  112MOL   C27142673   6.174   1.149   3.841  0.5188 -0.2692  0.0527
  112MOL   C27242674   6.298   1.190   3.911 -0.0735  0.0857  0.1176
  112MOL   C27342675   6.413   1.113   3.858 -0.6612 -0.0244 -0.5245
  112MOL   C27442676   6.395   0.965   3.841 -0.3842  0.3970 -0.6670
  112MOL   H27542677   5.973   0.814   3.921  1.4961 -0.5406  0.4320
  112MOL   H27642678   5.824   0.877   3.920 -0.0681  1.7657 -1.2220
  112MOL   H27742679   5.938   1.111   3.856 -2.9113 -0.6594 -1.0215
  112MOL   H27842680   6.186   1.148   3.733  2.0052 -0.7089  0.2197
  112MOL   H27942681   6.099   1.226   3.857  0.6552 -0.4058  1.4067
  112MOL   H28042682   6.305   1.296   3.885  0.3331  0.6163  2.2178
  112MOL   H28142683   6.278   1.179   4.018  1.7414 -2.5471  0.2166
  112MOL   H28242684   6.505   1.133   3.913  0.2636  0.6519 -2.2952
  112MOL   H28342685   6.437   1.162   3.764  0.5779  0.1471 -0.1273
  112MOL   H28442686   6.345   0.937   3.748 -1.3216  1.3755 -0.4628
  112MOL   H28542687   6.344   0.917   3.925  1.6277 -2.0127 -0.7651
  112MOL   H28642688   6.488   0.910   3.830 -1.0686 -1.1900  1.1023
  112MOL   C28742689   5.958   0.974   3.696 -0.1345 -1.0237  0.5404
  112MOL   C28842690   5.892   1.083   3.598 -0.0237 -1.3516 -0.6137
  112MOL   O28942691   5.770   1.129   3.659 -0.4204  0.0726  0.0803
  112MOL   C29042692   5.733   1.257   3.607 -0.5956  0.1106 -0.5409
  112MOL   C29142693   5.606   1.291   3.674  0.6130 -1.2499 -0.0233
  112MOL   C29242694   5.563   1.438   3.667 -0.3577 -0.1908 -0.0160
  112MOL   C29342695   5.550   1.478   3.523  0.0710 -0.7863 -0.0062
  112MOL   H29442696   5.895   0.885   3.697 -0.3389 -0.8823  0.2685
  112MOL   H29542697   6.053   0.940   3.656  0.6551  0.0951  1.4095
  112MOL   H29642698   5.959   1.165   3.572 -0.9618 -0.2878  0.2788
  112MOL   H29742699   5.800   1.334   3.644  2.2246 -2.6914  0.3437
  112MOL   H29842700   5.722   1.255   3.498  2.6979 -0.1594 -0.8966
  112MOL   H29942701   5.624   1.269   3.779 -0.7076  1.7185  0.8859
  112MOL   H30042702   5.522   1.236   3.631 -0.3134  0.9083 -1.0054
  112MOL   H30142703   5.650   1.486   3.712 -0.8388  1.0703 -0.4094
  112MOL   H30242704   5.476   1.468   3.725 -1.5460 -1.0297 -1.3241
  112MOL   H30342705   5.646   1.506   3.478 -0.2777 -0.2997 -0.4596
  112MOL   H30442706   5.485   1.408   3.471 -0.9729 -0.2107  0.5105
  112MOL   H30542707   5.492   1.571   3.518  2.9149  1.3261  3.9147
  112MOL   C30642708   5.854   1.001   3.475 -0.0451  0.0669  0.3357
  112MOL   C30742709   5.961   0.918   3.405  0.1890 -0.6179 -0.2539
  112MOL   O30842710   6.071   1.011   3.387  0.2147 -0.0151 -0.1728
  112MOL   C30942711   6.202   0.960   3.350 -0.2241  0.6724  0.1489
  112MOL   C31042712   6.309   1.069   3.335 -0.1924 -0.1840  0.0791
  112MOL   C31142713   6.330   1.156   3.461 -0.3020 -0.0719 -0.2578
  112MOL   C31242714   6.478   1.181   3.481 -0.2500 -0.4406  0.8020
  112MOL   H31342715   5.777   0.930   3.503  0.2106 -1.3107 -2.3365
  112MOL   H31442716   5.799   1.058   3.400 -2.6485 -0.7845  1.5588
  112MOL   H31542717   5.994   0.837   3.470 -2.5315 -2.1695 -0.7453
  112MOL   H31642718   6.192   0.924   3.247  1.6253  0.8185 -0.1136
  112MOL   H31742719   6.240   0.884   3.418  1.1102 -0.7546 -2.0914
  112MOL   H31842720   6.293   1.127   3.244  1.3593 -1.5886 -1.1457
  112MOL   H31942721   6.397   1.008   3.313  0.3180  0.2518  0.8875
  112MOL   H32042722   6.272   1.249   3.456 -2.1658 -0.9222  3.2884
  112MOL   H32142723   6.283   1.098   3.541 -1.0670  0.7161 -0.1244
  112MOL   H32242724   6.505   1.248   3.563 -0.8542  0.0158  0.6406
  112MOL   H32342725   6.513   1.215   3.384 -0.9258 -0.0017  0.6999
  112MOL   H32442726   6.528   1.085   3.492  1.5663  0.4379  0.3750
  112MOL   C32542727   5.919   0.874   3.259 -0.7832  0.1629  0.1304
  112MOL   C32642728   5.793   0.790   3.261 -0.2250  0.2667 -0.5214
  112MOL   O32742729   5.730   0.784   3.136 -0.3392  0.1383 -0.1572
  112MOL   C32842730   5.647   0.892   3.098 -0.0982 -0.1778  0.8317
  112MOL   C32942731   5.614   0.906   2.946  0.3977 -0.6083 -0.7739
  112MOL   C33042732   5.564   0.780   2.876  0.0857 -0.4126  0.1762
  112MOL   C33142733   5.508   0.806   2.739  0.3955  0.5204 -0.0832
  112MOL   H33242734   6.000   0.817   3.216  0.8827  2.9892 -0.6309
  112MOL   H33342735   5.906   0.964   3.198  2.4009 -0.0266 -0.8995
  112MOL   H33442736   5.724   0.844   3.326 -0.3965 -1.9302  1.1927
  112MOL   H33542737   5.698   0.982   3.133 -0.1333  0.7650 -1.4691
  112MOL   H33642738   5.548   0.901   3.144 -0.0381 -1.8155  1.3110
  112MOL   H33742739   5.556   0.994   2.920  4.2169  2.3493  0.2758
  112MOL   H33842740   5.711   0.939   2.911  0.4792 -0.8111 -0.7408
  112MOL   H33942741   5.477   0.744   2.931 -0.5651  0.8552 -0.0039
  112MOL   H34042742   5.639   0.702   2.867  0.0550 -0.5365  0.9156
  112MOL   H34142743   5.417   0.865   2.748  0.0230  0.3394 -2.2858
  112MOL   H34242744   5.474   0.712   2.695 -0.8755 -0.1867  2.3056
  112MOL   H34342745   5.578   0.858   2.674 -2.1801  0.1450 -3.2939
  112MOL   C34442746   5.809   0.643   3.304  0.3705  0.8092 -0.2969
  112MOL   C34542747   5.667   0.577   3.332  0.2800 -0.4527 -0.1368
  112MOL   O34642748   5.622   0.638   3.452 -0.2709 -0.3486 -0.0171
  112MOL   C34742749   5.483   0.652   3.440 -0.1555  0.0584  0.0572
  112MOL   C34842750   5.440   0.720   3.567 -0.8628 -0.2273 -0.4688
  112MOL   C34942751   5.303   0.776   3.562  0.1158  0.4094  0.1797
  112MOL   C35042752   5.265   0.867   3.675  0.3689 -0.1137 -0.2865
  112MOL   H35142753   5.861   0.600   3.218  1.6861  1.8740 -0.0421
  112MOL   H35242754   5.871   0.642   3.393 -1.6038  0.1436  1.1100
  112MOL   H35342755   5.597   0.599   3.251 -0.9708 -0.5813  0.8908
  112MOL   H35442756   5.424   0.561   3.432  1.0772 -0.7113 -0.2702
  112MOL   H35542757   5.466   0.724   3.360  0.9270 -0.6279 -0.7903
  112MOL   H35642758   5.507   0.799   3.600 -1.0480  0.7384 -2.3346
  112MOL   H35742759   5.447   0.647   3.648  0.3468  0.5268  0.1215
  112MOL   H35842760   5.294   0.836   3.471  1.9930 -1.4110 -1.2648
  112MOL   H35942761   5.228   0.697   3.557  2.5121 -1.8233 -1.5236
  112MOL   H36042762   5.238   0.802   3.759 -1.7158  1.1787  0.0766
  112MOL   H36142763   5.176   0.919   3.640 -0.3030 -1.6999 -0.9748
  112MOL   H36242764   5.349   0.931   3.703  0.4344 -1.0176  1.7070
  112MOL   C36342765   5.659   0.427   3.364 -0.4670  0.1756 -0.8646
  112MOL   C36442766   5.619   0.335   3.240 -0.0939  0.4618 -0.2579
  112MOL   O36542767   5.640   0.199   3.287 -0.1914  0.0870 -0.4321
  112MOL   C36642768   5.641   0.101   3.192 -0.3709  0.7813  0.7941
  112MOL   C36742769   5.673   7.771   3.259  0.9438 -0.1014  0.3743
  112MOL   C36842770   5.565   7.717   3.352 -0.4937 -0.6635  0.4318
  112MOL   C36942771   5.589   7.585   3.413  0.7891 -0.7243  0.2787
  112MOL   H37042772   5.586   0.405   3.441 -1.3402 -0.1616 -1.7691
  112MOL   H37142773   5.751   0.393   3.412 -0.6180 -2.4812 -2.3505
  112MOL   H37242774   5.684   0.371   3.160  0.1639  0.5705 -0.0005
  112MOL   H37342775   5.712   0.126   3.113 -1.4472 -0.8494 -0.7460
  112MOL   H37442776   5.539   0.095   3.152 -1.3449  1.9877  3.0542
  112MOL   H37542777   5.763   7.770   3.320  0.7094 -2.3087  0.7042
  112MOL   H37642778   5.697   7.700   3.180  0.7793  0.1878  0.0631
  112MOL   H37742779   5.470   7.709   3.299 -1.2428  1.1518  1.4781
  112MOL   H37842780   5.551   7.785   3.436  0.4421 -2.1160  1.7975
  112MOL   H37942781   5.621   7.503   3.348 -1.8944 -0.2585 -1.7313
  112MOL   H38042782   5.650   7.589   3.503 -1.0697  0.3052  1.5210
  112MOL   H38142783   5.498   7.540   3.454  1.4116 -2.3271 -0.0648
  112MOL   H38242784   5.514   0.349   3.216 -1.1467 -3.0128  1.8509
  113MOL     C142785   7.427   5.934   1.336 -0.0842 -0.2848  0.1662
  113MOL     C242786   7.336   6.055   1.322  0.4132  0.3644 -0.3966
  113MOL     O342787   7.216   6.009   1.273  0.0490  0.7316  0.3926
  113MOL     C442788   7.210   6.016   1.131  0.6596 -0.0561 -0.7295
  113MOL     C542789   7.073   5.957   1.085  0.2790 -0.4490 -0.8785
  113MOL     C642790   7.060   5.966   0.927 -0.6308 -0.3213  0.8702
  113MOL     C742791   6.930   5.903   0.877  0.7500  0.0654  0.4225
  113MOL     H842792   7.523   5.969   1.374 -1.0554  2.1811  0.4223
  113MOL     H942793   7.385   5.859   1.403 -0.4001  0.6155  0.9805
  113MOL    H1042794   7.381   6.132   1.260 -0.0460  0.5911 -0.4520
  113MOL    H1142795   7.213   6.120   1.097  0.4793 -0.5374 -2.2691
  113MOL    H1242796   7.293   5.955   1.095  1.5891  0.4915  0.4548
  113MOL    H1342797   7.000   6.029   1.122  1.3038 -0.4612  1.2056
  113MOL    H1442798   7.056   5.857   1.124  0.0926  0.5522  1.6743
  113MOL    H1542799   7.134   5.896   0.888  0.9973  2.1449 -0.6273
  113MOL    H1642800   7.081   6.068   0.895  2.4192 -0.6480  1.7357
  113MOL    H1742801   6.844   5.954   0.922 -0.2560  1.7344 -3.2351
  113MOL    H1842802   6.935   5.796   0.899  1.0142 -0.0193 -0.0492
  113MOL    H1942803   6.915   5.916   0.770  0.9638  1.6015  0.5747
  113MOL    H2042804   7.442   5.879   1.242 -1.2870  1.0896 -0.8493
  113MOL    C2142805   7.305   6.125   1.454 -0.1016 -0.1036  0.0785
  113MOL    C2242806   7.223   6.259   1.444 -0.2084 -0.1049  0.4753
  113MOL    O2342807   7.161   6.302   1.566  0.9888 -0.3725  0.2153
  113MOL    C2442808   7.029   6.249   1.577 -0.2533  0.3392 -0.3248
  113MOL    C2542809   6.940   6.306   1.693 -0.4367  0.1481 -0.5536
  113MOL    C2642810   6.799   6.251   1.690 -0.1490 -0.2706 -0.8876
  113MOL    C2742811   6.700   6.350   1.734 -0.5688 -0.6428  0.8657
  113MOL    H2842812   7.396   6.143   1.512 -0.7675 -0.9507  1.3878
  113MOL    H2942813   7.232   6.066   1.509  0.0185  1.3757  1.8618
  113MOL    H3042814   7.152   6.246   1.363 -1.3761  3.4216  0.8574
  113MOL    H3142815   7.040   6.142   1.599 -2.0753  0.3701  0.8323
  113MOL    H3242816   6.969   6.254   1.486 -0.0025 -3.1254 -0.7514
  113MOL    H3342817   6.999   6.301   1.784  0.8429 -0.9063 -1.4025
  113MOL    H3442818   6.943   6.413   1.672  1.2669  0.6619  2.1464
  113MOL    H3542819   6.782   6.207   1.591  3.7800 -0.5605 -1.5505
  113MOL    H3642820   6.781   6.163   1.752  2.8011  0.3940  1.0498
  113MOL    H3742821   6.606   6.297   1.721 -0.2689 -1.4176  1.7990
  113MOL    H3842822   6.704   6.379   1.839 -0.7479  0.1142  0.6671
  113MOL    H3942823   6.699   6.426   1.656  2.8474 -0.0502  1.3242
  113MOL    C4042824   7.303   6.377   1.392 -0.2693  0.3734 -0.5989
  113MOL    C4142825   7.220   6.508   1.371 -0.4229  0.0515 -1.1579
  113MOL    O4242826   7.134   6.464   1.265 -0.3131 -0.2592  0.4606
  113MOL    C4342827   6.998   6.509   1.278  0.9833  0.6527 -0.2521
  113MOL    C4442828   6.922   6.476   1.148 -0.1066  0.7819  0.5652
  113MOL    C4542829   6.940   6.593   1.053 -0.1270 -0.4520 -0.0857
  113MOL    C4642830   6.825   6.624   0.949 -0.3328  0.4401  0.0612
  113MOL    H4742831   7.360   6.358   1.301  0.7029  2.6430 -0.5004
  113MOL    H4842832   7.382   6.410   1.460  1.1112 -0.2317 -1.8928
  113MOL    H4942833   7.177   6.540   1.466  2.0034 -1.0570  0.3447
  113MOL    H5042834   6.982   6.611   1.313 -0.8975  0.3758 -0.2543
  113MOL    H5142835   6.944   6.446   1.348 -1.4430 -0.6355 -3.1937
  113MOL    H5242836   6.817   6.449   1.159 -0.0260  0.6842  1.0937
  113MOL    H5342837   6.949   6.382   1.100 -0.5626  2.3799 -2.9962
  113MOL    H5442838   7.030   6.573   0.995 -0.4920 -0.4591 -0.6552
  113MOL    H5542839   6.955   6.688   1.105 -1.4328 -0.4230  0.2635
  113MOL    H5642840   6.738   6.565   0.977 -1.6192  0.7519 -3.1039
  113MOL    H5742841   6.804   6.729   0.929  1.6108  0.6291 -1.1741
  113MOL    H5842842   6.850   6.580   0.853 -0.3667  0.8747 -0.1503
  113MOL    C5942843   7.294   6.631   1.312 -0.2729  1.1572 -0.0189
  113MOL    C6042844   7.390   6.702   1.410 -0.0806  0.1801 -0.4870
  113MOL    O6142845   7.498   6.618   1.455  0.1683 -0.3498 -0.0424
  113MOL    C6242846   7.619   6.607   1.379 -0.1698  0.1978 -0.5290
  113MOL    C6342847   7.724   6.516   1.435  0.3035  1.2698  0.1101
  113MOL    C6442848   7.690   6.371   1.428 -0.4006  0.1299 -0.3463
  113MOL    C6542849   0.013   6.299   1.487  0.3208  0.2248  0.0319
  113MOL    H6642850   7.355   6.597   1.228  2.1028  2.7133  1.0416
  113MOL    H6742851   7.217   6.696   1.271 -0.6288 -0.7999 -2.6146
  113MOL    H6842852   7.336   6.721   1.503  2.1994  2.1075  0.4724
  113MOL    H6942853   7.669   6.702   1.362 -0.9060  0.4539 -1.3317
  113MOL    H7042854   7.592   6.584   1.276 -0.2926 -1.3451 -0.1609
  113MOL    H7142855   0.004   6.529   1.365 -1.0179  0.1458 -1.6665
  113MOL    H7242856   7.763   6.544   1.533 -0.9944  0.5312  0.8545
  113MOL    H7342857   7.594   6.352   1.476 -0.2627  0.9866  0.2718
  113MOL    H7442858   7.681   6.335   1.326  1.1698 -1.1612 -0.0544
  113MOL    H7542859   0.030   6.314   1.594  2.0332  0.4625 -0.2563
  113MOL    H7642860   7.789   6.197   1.459  2.4490  0.5851 -3.4980
  113MOL    H7742861   0.109   6.320   1.438  0.1613  0.7545 -0.0560
  113MOL    C7842862   7.426   6.841   1.360 -0.5812  0.4228  0.0666
  113MOL    C7942863   7.475   6.938   1.470  0.3250 -0.2900 -0.4729
  113MOL    O8042864   7.372   7.025   1.504  0.3405  0.5796 -0.5655
  113MOL    C8142865   7.312   7.013   1.634  0.2024  0.0190  0.1503
  113MOL    C8242866   7.201   7.119   1.639 -0.1676 -0.6272  0.1059
  113MOL    C8342867   7.086   7.081   1.547  0.4215  0.1333 -0.2651
  113MOL    C8442868   6.969   7.185   1.557  0.3914 -0.0740  0.0777
  113MOL    H8542869   7.354   6.881   1.288  0.5753  0.3221 -1.1779
  113MOL    H8642870   7.516   6.821   1.301 -1.1145  2.5440 -1.5411
  113MOL    H8742871   7.512   6.874   1.550 -0.7252 -0.2450  0.0587
  113MOL    H8842872   7.386   7.036   1.710 -0.5526  0.8975  0.6372
  113MOL    H8942873   7.277   6.910   1.633 -1.3207  0.5201 -0.4976
  113MOL    H9042874   7.160   7.130   1.740 -0.4320 -0.7422  0.0107
  113MOL    H9142875   7.238   7.219   1.617 -4.1758  0.6736 -1.0716
  113MOL    H9242876   7.042   6.983   1.567 -0.4336  0.3858 -0.8479
  113MOL    H9342877   7.122   7.060   1.447 -3.4995  0.5811 -1.8664
  113MOL    H9442878   7.006   7.277   1.512  2.5112 -1.1754 -0.4822
  113MOL    H9542879   6.884   7.143   1.503  0.3206  1.3536 -0.9518
  113MOL    H9642880   6.934   7.194   1.660 -0.1680  0.9917 -0.1913
  113MOL    C9742881   7.592   7.029   1.423 -0.2056  0.3790 -0.7310
  113MOL    C9842882   7.649   7.130   1.530  0.2886 -0.1935 -0.1585
  113MOL    O9942883   7.737   7.056   1.607  0.1018  0.3906  0.5426
  113MOL   C10042884   7.774   7.112   1.738 -0.1669 -0.0992  0.9907
  113MOL   C10142885   0.084   7.033   1.804 -0.9363  0.3123 -0.0648
  113MOL   C10242886   0.129   7.101   1.935 -0.7454  0.0778  0.3487
  113MOL   C10342887   0.211   7.012   2.026  0.4118 -0.1472  0.8852
  113MOL   H10442888   7.567   7.080   1.330 -3.4815 -3.2072 -1.9277
  113MOL   H10542889   7.682   6.971   1.400 -0.0135  0.4271 -0.1332
  113MOL   H10642890   7.580   7.168   1.605  1.2098 -4.4147  2.9937
  113MOL   H10742891   7.687   7.095   1.801 -1.2447  1.1294 -0.1352
  113MOL   H10842892   7.796   7.219   1.742 -1.6098  0.2215  0.4872
  113MOL   H10942893   0.167   7.014   1.736 -0.1662  0.6429  0.7770
  113MOL   H11042894   0.048   6.934   1.829 -0.0165 -0.3469 -1.3002
  113MOL   H11142895   0.046   7.138   1.996 -1.9974  1.2021 -1.9779
  113MOL   H11242896   0.179   7.192   1.900  1.4869 -1.2403  0.0386
  113MOL   H11342897   0.307   6.978   1.986 -0.2595 -1.2990  0.2117
  113MOL   H11442898   0.240   7.063   2.118  0.0325 -3.1586  2.7866
  113MOL   H11542899   0.158   6.923   2.062  2.5132 -1.4498  0.8678
  113MOL   C11642900   7.742   7.239   1.463  0.0327  0.2523 -0.0574
  113MOL   C11742901   7.670   7.343   1.384  0.0299 -0.2821  0.5410
  113MOL   O11842902   7.590   7.436   1.462  0.4481  0.4219  0.0585
  113MOL   C11942903   7.457   7.402   1.486 -0.1714 -0.0615  0.4931
  113MOL   C12042904   7.407   7.476   1.612 -0.2140 -0.0632 -0.8711
  113MOL   C12142905   7.498   7.445   1.742  0.3256  0.6176 -0.2326
  113MOL   C12242906   7.473   7.539   1.857 -0.3545  0.0159  0.3741
  113MOL   H12342907   0.012   7.281   1.533  0.5506 -1.2561  0.3504
  113MOL   H12442908   0.001   7.183   1.391 -0.0947  0.1745 -0.1040
  113MOL   H12542909   7.607   7.291   1.311 -0.9898 -0.9410  1.8691
  113MOL   H12642910   7.445   7.295   1.498 -2.6079 -0.0567 -1.4331
  113MOL   H12742911   7.390   7.429   1.404 -0.0279  1.2397  0.7945
  113MOL   H12842912   7.301   7.463   1.636 -0.3414  0.0564 -1.3738
  113MOL   H12942913   7.427   7.579   1.584 -0.6845 -0.3531 -2.3093
  113MOL   H13042914   7.485   7.342   1.773 -0.3185  0.6182 -0.4956
  113MOL   H13142915   7.606   7.455   1.731  0.1666 -0.1600 -2.8742
  113MOL   H13242916   7.504   7.494   1.951 -1.4030  0.6127  1.0268
  113MOL   H13342917   7.369   7.571   1.868  0.3727  1.8008  2.2907
  113MOL   H13442918   7.523   7.634   1.838 -0.0162 -0.0178  1.0946
  113MOL   C13542919   7.776   7.440   1.323 -0.0615  0.1194  0.8695
  113MOL   C13642920   7.716   7.529   1.208 -1.0844 -0.1280  0.5421
  113MOL   O13742921   0.003   7.643   1.199  0.2740  0.0338  0.4228
  113MOL   C13842922   7.748   7.765   1.256 -0.2535 -0.2641  0.0570
  113MOL   C13942923   0.051   0.073   1.225  1.2758 -0.2984  0.4366
  113MOL   C14042924   0.007   0.210   1.265  0.5585 -0.0391  0.3458
  113MOL   C14142925   0.117   0.322   1.254  0.4126  0.2768 -0.7554
  113MOL   H14242926   0.056   7.381   1.280  0.5767  1.7287 -0.1620
  113MOL   H14342927   0.028   7.501   1.396  1.5087  1.3400 -1.2342
  113MOL   H14442928   7.614   7.552   1.238 -0.8363  1.6198  0.0965
  113MOL   H14542929   7.741   7.749   1.363  1.1290 -1.4299 -0.0161
  113MOL   H14642930   7.655   7.793   1.205 -0.8144 -1.4349  0.4244
  113MOL   H14742931   0.058   0.078   1.116 -0.7556 -0.5262  0.2766
  113MOL   H14842932   0.144   0.040   1.269  1.1563 -1.0813  0.1058
  113MOL   H14942933   7.725   0.249   1.207  0.2161 -1.7543 -0.3141
  113MOL   H15042934   7.776   0.215   1.369  0.0673  0.4812  0.1761
  113MOL   H15142935   0.168   0.340   1.348 -0.6405 -0.2286 -0.0744
  113MOL   H15242936   0.189   0.301   1.175  1.1218  0.3275 -0.1158
  113MOL   H15342937   0.073   0.415   1.217  3.6794  2.6635  1.1514
  113MOL   C15442938   7.720   7.471   1.064 -0.5631 -0.3529  0.2920
  113MOL   C15542939   7.674   7.580   0.971  0.3614 -0.4066 -0.0273
  113MOL   O15642940   7.569   7.516   0.898  0.5117  0.1322  0.2955
  113MOL   C15742941   7.441   7.566   0.916  0.1709 -0.0294 -0.6340
  113MOL   C15842942   7.336   7.482   0.855  0.6176  0.8077  0.3288
  113MOL   C15942943   7.197   7.547   0.864 -0.4661 -0.8873 -0.6608
  113MOL   C16042944   7.076   7.455   0.838  0.3283  0.3061  0.0705
  113MOL   H16142945   7.644   7.393   1.065  0.5335 -1.4281  1.0020
  113MOL   H16242946   0.012   7.431   1.025 -0.0840  1.5693 -0.5849
  113MOL   H16342947   7.630   7.667   1.018 -0.4385 -0.5155 -0.5659
  113MOL   H16442948   7.424   7.589   1.021  1.8932 -0.8062 -0.1688
  113MOL   H16542949   7.421   7.667   0.877 -1.7487 -0.4588 -0.8229
  113MOL   H16642950   7.339   7.385   0.904  1.2837 -0.2696 -1.7789
  113MOL   H16742951   7.361   7.464   0.751 -1.0176  1.0308 -0.1146
  113MOL   H16842952   7.186   7.596   0.961 -0.1795 -0.0762 -1.0327
  113MOL   H16942953   7.206   7.625   0.788 -0.0682  0.6446  0.9248
  113MOL   H17042954   6.987   7.518   0.829  2.2918  2.8917 -2.0042
  113MOL   H17142955   7.094   7.405   0.743  0.2840  0.5983 -0.0930
  113MOL   H17242956   7.053   7.376   0.909 -0.2207 -1.1863 -1.7346
  113MOL   C17342957   7.766   7.634   0.859  0.3707 -0.1092 -0.2358
  113MOL   C17442958   7.701   7.735   0.761  0.0796 -0.4172  0.0563
  113MOL   O17542959   7.784   0.047   0.723  0.5753 -0.4685  0.7685
  113MOL   C17642960   7.801   0.154   0.822  0.2303 -0.0598  0.3513
  113MOL   C17742961   7.774   0.280   0.743  0.3897  0.3394 -0.6412
  113MOL   C17842962   0.071   0.309   0.633  0.4220  0.0064  0.7742
  113MOL   C17942963   0.048   0.441   0.563 -0.2964 -0.2361  0.1181
  113MOL   H18042964   7.797   7.548   0.800  2.1338  0.8107 -0.6902
  113MOL   H18142965   0.050   7.677   0.912  0.1376  1.2072 -0.8862
  113MOL   H18242966   7.615   7.782   0.809 -1.5227 -2.3293 -0.8420
  113MOL   H18342967   0.094   0.156   0.876  0.7757  1.1418 -0.6186
  113MOL   H18442968   7.730   0.145   0.904 -0.8493 -2.2918 -0.7926
  113MOL   H18542969   7.772   0.370   0.803  1.2749 -0.6405  0.8831
  113MOL   H18642970   7.682   0.273   0.684  0.0754  3.0289 -0.5311
  113MOL   H18742971   0.170   0.308   0.678  0.3430 -0.1398  0.9455
  113MOL   H18842972   0.080   0.232   0.557 -1.1698 -0.9844  1.5409
  113MOL   H18942973   7.750   0.446   0.519 -0.9475  1.5109  1.7505
  113MOL   H19042974   0.060   0.530   0.625  0.8803  0.2296 -0.7615
  113MOL   H19142975   0.110   0.449   0.473 -0.6132  0.4847 -0.0396
  113MOL   C19242976   7.673   7.670   0.632 -0.0957  0.3582 -0.6660
  113MOL   C19342977   7.589   7.752   0.535  0.6712  0.1213 -0.3650
  113MOL   O19442978   7.613   7.703   0.403 -0.1860 -0.3060  0.1946
  113MOL   C19542979   7.698   7.798   0.330 -0.2135 -0.4049 -0.1384
  113MOL   C19642980   7.741   7.749   0.192 -0.3190 -0.1641 -0.0366
  113MOL   C19742981   0.055   7.644   0.206 -0.0034 -0.5057  0.0884
  113MOL   C19842982   0.102   7.586   0.071 -0.1160  0.2728  1.0489
  113MOL   H19942983   7.628   7.572   0.639  2.3108 -0.7050  0.7124
  113MOL   H20042984   7.772   7.648   0.591  0.7795  2.1906  0.4027
  113MOL   H20142985   7.616   0.056   0.542 -2.5982  1.0545 -1.2231
  113MOL   H20242986   7.791   0.008   0.385  0.5840 -2.7462 -0.9339
  113MOL   H20342987   7.643   0.089   0.316 -0.4762 -0.6595 -0.8059
  113MOL   H20442988   7.662   7.709   0.128 -1.8713  2.1358  0.3652
  113MOL   H20542989   7.781   0.034   0.140  1.7794 -0.9514  0.2138
  113MOL   H20642990   0.023   7.561   0.270 -1.6485  0.5442  0.6666
  113MOL   H20742991   0.134   7.684   0.270 -1.2141 -0.5562  1.6775
  113MOL   H20842992   0.151   7.653   0.001 -0.3537 -0.2907  0.3359
  113MOL   H20942993   0.186   7.521   0.099  0.2157 -0.5088 -1.6301
  113MOL   H21042994   0.015   7.538   0.027  0.3807 -0.9013  1.3109
  113MOL   C21142995   7.442   7.730   0.561  0.2056  0.2620 -0.1222
  113MOL   C21242996   7.346   0.005   0.473  0.1025 -0.4070 -0.1851
  113MOL   O21342997   7.215   7.773   0.528  0.1837 -0.1423  0.3127
  113MOL   C21442998   7.147   7.659   0.485 -0.3897  0.3117  0.0879
  113MOL   C21542999   7.011   7.689   0.555  0.7911 -0.6494  0.3385
  113MOL   C21643000   6.916   7.753   0.462 -0.0375  0.3389  0.9597
  113MOL   C21743001   6.773   7.777   0.518 -0.5463 -0.4028  0.9921
  113MOL   H21843002   7.415   7.759   0.662  1.9361 -0.6347  0.6226
  113MOL   H21943003   7.419   7.623   0.550 -2.3636  0.8680 -1.1103
  113MOL   H22043004   7.360   7.766   0.373  1.1242 -0.2563 -0.1127
  113MOL   H22143005   7.152   7.652   0.377 -0.2048  1.0952  0.0474
  113MOL   H22243006   7.185   7.565   0.526  2.4355  0.5605 -1.8564
  113MOL   H22343007   6.971   7.595   0.593  0.7433 -0.4218  0.8504
  113MOL   H22443008   7.022   7.759   0.638 -3.4601 -1.4729  1.7028
  113MOL   H22543009   6.908   7.689   0.375 -0.2326  1.0574  0.4466
  113MOL   H22643010   6.969   0.046   0.452  1.0863 -0.1589  2.0563
  113MOL   H22743011   6.762   0.053   0.594  1.3790  0.0280  0.8471
  113MOL   H22843012   6.730   7.700   0.583  0.4471 -0.1434  1.9727
  113MOL   H22943013   6.711   0.001   0.432  0.4246  0.5968  0.5891
  113MOL   C23043014   7.360   0.158   0.475  0.5162 -0.4944  0.3187
  113MOL   C23143015   7.256   0.240   0.401  0.0630 -0.5004 -0.1631
  113MOL   O23243016   7.307   0.372   0.402 -0.0250 -0.1153  0.0937
  113MOL   C23343017   7.285   0.450   0.515  0.3510  0.1525  0.0943
  113MOL   C23443018   7.418   0.528   0.535 -0.7971  0.1811  1.4166
  113MOL   C23543019   7.461   0.607   0.410  0.0153  0.2560 -0.0141
  113MOL   C23643020   7.356   0.703   0.364  0.7941 -0.0101  0.5193
  113MOL   H23743021   7.451   0.179   0.418 -1.0006 -0.4139 -2.1696
  113MOL   H23843022   7.375   0.187   0.579  1.7023  0.6281 -0.1420
  113MOL   H23943023   7.165   0.234   0.461 -0.5341  0.5547 -0.9338
  113MOL   H24043024   7.196   0.511   0.504 -1.0709 -2.2383 -2.3175
  113MOL   H24143025   7.268   0.390   0.605 -0.0045 -0.7112 -0.5399
  113MOL   H24243026   7.413   0.611   0.605 -0.1859  1.6335 -0.2320
  113MOL   H24343027   7.497   0.459   0.564 -0.1522 -0.3139 -1.3408
  113MOL   H24443028   7.478   0.545   0.322 -0.3830 -0.4632  0.4127
  113MOL   H24543029   7.553   0.663   0.426  0.6577 -0.5553 -0.8255
  113MOL   H24643030   7.325   0.768   0.445  1.2373 -1.4409  1.8558
  113MOL   H24743031   7.275   0.650   0.314  0.3126  2.7377 -1.7790
  113MOL   H24843032   7.408   0.761   0.288  0.7761  0.1417  0.6241
  113MOL   C24943033   7.228   0.199   0.256 -0.3422  0.1928  0.0543
  113MOL   C25043034   7.094   0.237   0.198 -0.3293  0.1383  0.1598
  113MOL   O25143035   7.076   0.171   0.074  0.0088  0.7791 -0.1214
  113MOL   C25243036   6.982   0.060   0.059 -0.1052 -0.6132 -0.5155
  113MOL   C25343037   7.014   7.787   7.738 -0.0491 -0.0333 -0.2031
  113MOL   C25443038   7.141   7.705   7.745 -0.0485 -0.0559  0.1158
  113MOL   C25543039   7.175   7.625   7.616 -0.5747  0.2595 -0.3629
  113MOL   H25643040   7.226   0.090   0.259  0.7094  0.1134 -1.5536
  113MOL   H25743041   7.319   0.214   0.198  0.7571 -1.0903  1.4005
  113MOL   H25843042   7.013   0.209   0.265 -1.9616 -1.4717 -2.4255
  113MOL   H25943043   6.877   0.087   0.052  0.0508  0.2590  0.2839
  113MOL   H26043044   7.002   7.798   0.145  0.0711  0.7971  0.5093
  113MOL   H26143045   6.927   7.721   7.740 -0.7235  0.8200 -1.0452
  113MOL   H26243046   7.011   0.049   7.650  1.0895  0.9366  0.4433
  113MOL   H26343047   7.221   7.774   7.773 -0.2720  0.0796  0.4194
  113MOL   H26443048   7.137   7.644   0.033 -1.1273  0.4532  0.4269
  113MOL   H26543049   7.217   7.683   7.534 -1.7896  1.3995 -0.1886
  113MOL   H26643050   7.088   7.567   7.584  2.0840 -1.5873 -4.8213
  113MOL   H26743051   7.253   7.551   7.637  0.2465  1.1259 -0.3120
  113MOL   C26843052   7.078   0.383   0.168  0.1231 -0.2218 -0.7838
  113MOL   C26943053   6.938   0.424   0.146  0.5070  0.1798 -0.0145
  113MOL   O27043054   6.851   0.384   0.257  0.3003  0.0918 -0.1703
  113MOL   C27143055   6.720   0.347   0.215 -1.0115 -0.1106  0.6458
  113MOL   C27243056   6.632   0.297   0.334 -0.4256  0.2022  0.0013
  113MOL   C27343057   6.599   0.421   0.422 -0.3356 -0.6337  0.3218
  113MOL   C27443058   6.483   0.388   0.518 -0.1918 -0.2828 -0.1860
  113MOL   H27543059   7.117   0.434   0.256 -0.4197 -0.6075 -0.3152
  113MOL   H27643060   7.143   0.415   0.087  0.1984 -0.6948 -0.9128
  113MOL   H27743061   6.901   0.384   0.051 -1.4313 -0.7562  1.1092
  113MOL   H27843062   6.677   0.434   0.165 -0.3385 -0.2705 -0.2336
  113MOL   H27943063   6.730   0.273   0.136  0.7171  1.0075 -0.2358
  113MOL   H28043064   6.543   0.251   0.291  1.3465 -1.9378 -1.4442
  113MOL   H28143065   6.676   0.216   0.392  0.2434 -0.5313 -1.5105
  113MOL   H28243066   6.569   0.507   0.363  1.2670 -0.7554 -0.6857
  113MOL   H28343067   6.687   0.460   0.473 -0.3888  3.8539 -2.7873
  113MOL   H28443068   6.490   0.290   0.564 -0.4067 -1.1636 -1.9784
  113MOL   H28543069   6.382   0.382   0.475  0.5913  0.6049 -2.2248
  113MOL   H28643070   6.491   0.457   0.602 -0.5922 -0.3030 -0.1279
  113MOL   C28743071   6.923   0.577   0.137  0.5775 -0.2417 -0.0433
  113MOL   C28843072   6.943   0.646   7.800  0.7112  0.2094  0.1758
  113MOL   O28943073   7.083   0.637   7.776 -0.0402  0.1436 -0.0523
  113MOL   C29043074   7.111   0.610   7.635 -0.5398  0.1650  0.7701
  113MOL   C29143075   7.262   0.570   7.639 -0.1772 -0.4626 -0.4776
  113MOL   C29243076   7.352   0.688   7.692  0.4900  0.0521  0.5953
  113MOL   C29343077   7.503   0.667   7.676 -0.4059  0.1984 -0.1749
  113MOL   H29443078   6.986   0.632   0.207  1.6911  0.5550 -1.6433
  113MOL   H29543079   6.818   0.596   0.159  0.0042 -0.7948 -2.1290
  113MOL   H29643080   6.897   0.584   7.722 -2.6238  0.6860  1.6741
  113MOL   H29743081   7.057   0.522   7.601 -2.0373  1.0187  0.9212
  113MOL   H29843082   7.081   0.693   7.571 -3.1377 -1.4302 -0.1486
  113MOL   H29943083   7.296   0.538   7.540  1.3874  0.9524 -0.4336
  113MOL   H30043084   7.282   0.480   7.697 -3.5173 -0.4629  0.7331
  113MOL   H30143085   7.334   0.692   7.799  1.3766 -2.7260  0.8714
  113MOL   H30243086   7.312   0.777   7.643 -0.4271 -0.3213  0.6583
  113MOL   H30343087   7.543   0.568   7.699  1.5120  0.9473 -0.1710
  113MOL   H30443088   7.542   0.678   7.575  2.6279 -0.1721  0.9001
  113MOL   H30543089   7.554   0.745   7.732 -0.4699  0.2896 -0.2450
  113MOL   C30643090   6.899   0.796   7.794  0.2349  0.1987 -0.6504
  113MOL   C30743091   6.757   0.829   7.751  0.4005  0.4577  0.1229
  113MOL   O30843092   6.659   0.782   0.041  0.0567  0.1104 -0.2565
  113MOL   C30943093   6.612   0.878   0.122 -0.2952  0.3134 -0.3376
  113MOL   C31043094   6.520   0.816   0.235 -0.5915  0.5534  0.0027
  113MOL   C31143095   6.408   0.727   0.184  0.2178  0.3495  1.3526
  113MOL   C31243096   6.308   0.683   0.294 -0.3802 -0.1326  0.0531
  113MOL   H31343097   6.919   0.831   0.094  1.4457 -0.0266 -0.7991
  113MOL   H31443098   6.967   0.857   7.735  1.3243  0.6910  1.0643
  113MOL   H31543099   6.752   0.935   7.727  1.3194 -0.1345 -2.8475
  113MOL   H31643100   6.564   0.956   0.064 -0.4350  1.6642  1.5302
  113MOL   H31743101   6.692   0.941   0.162 -0.8696  1.0303 -0.3121
  113MOL   H31843102   6.471   0.903   0.279 -1.3334 -0.4376  1.1473
  113MOL   H31943103   6.584   0.757   0.300  1.3052 -0.8888 -3.0304
  113MOL   H32043104   6.355   0.779   0.105  3.7489 -1.4186 -2.3746
  113MOL   H32143105   6.455   0.640   0.139  1.9350  1.3427  1.1691
  113MOL   H32243106   6.367   0.646   0.378  0.7737  0.2519 -0.5770
  113MOL   H32343107   6.239   0.605   0.260  0.4727 -0.2888 -1.3368
  113MOL   H32443108   6.253   0.769   0.332  1.0661  0.1674  1.5111
  113MOL   C32543109   6.715   0.780   7.614  0.3727 -0.0937 -0.2618
  113MOL   C32643110   6.797   0.802   7.487  0.5241 -0.5366  0.6187
  113MOL   O32743111   6.718   0.776   7.369 -0.1069 -0.2455 -0.4383
  113MOL   C32843112   6.695   0.635   7.343 -0.7395 -0.6411 -1.1224
  113MOL   C32943113   6.634   0.620   7.206 -0.2745 -0.0201  0.3890
  113MOL   C33043114   6.593   0.486   7.181 -0.1323 -0.0622 -0.3966
  113MOL   C33143115   6.547   0.464   7.036 -0.4261 -0.5051  0.3240
  113MOL   H33243116   6.614   0.819   7.603  0.9511  1.0367 -1.5676
  113MOL   H33343117   6.697   0.672   7.621 -1.7123  0.2879  0.8250
  113MOL   H33443118   6.886   0.741   7.477  1.7722  1.2329  0.6002
  113MOL   H33543119   6.640   0.587   7.424 -0.2283 -0.5309 -0.7080
  113MOL   H33643120   6.792   0.584   7.349 -1.0779 -1.0153  2.3455
  113MOL   H33743121   6.555   0.689   7.175 -0.5791 -0.1027  0.9744
  113MOL   H33843122   6.710   0.641   7.130 -0.3119 -0.0242  0.3504
  113MOL   H33943123   6.510   0.459   7.247  1.5166 -0.9983  1.3478
  113MOL   H34043124   6.669   0.417   7.217  0.6804 -0.2430 -2.4369
  113MOL   H34143125   6.501   0.366   7.022  0.8305 -1.1702  0.7894
  113MOL   H34243126   6.633   0.468   6.969 -0.3711  0.5902  0.4470
  113MOL   H34343127   6.470   0.538   7.014  0.8492  2.1472  4.3365
  113MOL   C34443128   6.838   0.948   7.473 -0.0964 -0.8672  0.5551
  113MOL   C34543129   6.929   0.976   7.351 -0.0290  0.4853  0.7881
  113MOL   O34643130   7.051   0.908   7.375  0.3266 -0.2907  0.1768
  113MOL   C34743131   7.150   0.899   7.267  0.2919  0.7391  0.7393
  113MOL   C34843132   7.248   0.794   7.313  0.1683 -0.2181 -0.4367
  113MOL   C34943133   7.350   0.737   7.207 -0.8108 -0.4100  0.6564
  113MOL   C35043134   7.460   0.646   7.265  1.5310  0.3235  0.2870
  113MOL   H35143135   6.757   1.020   7.479  1.4822  0.9672  0.4551
  113MOL   H35243136   6.896   0.963   7.564  1.5009 -0.4192 -0.5136
  113MOL   H35343137   6.885   0.944   7.257  0.7203  0.8557  0.3057
  113MOL   H35443138   7.203   0.992   7.245  0.2379  1.0131  1.7524
  113MOL   H35543139   7.107   0.868   7.171  2.3101 -1.2096  0.4208
  113MOL   H35643140   7.195   0.712   7.362 -2.7238  1.6614 -0.3348
  113MOL   H35743141   7.295   0.846   7.396  0.0274 -1.3371  0.3639
  113MOL   H35843142   7.293   0.678   7.136  0.1332 -0.3186 -0.1914
  113MOL   H35943143   7.400   0.815   7.150  1.7495 -0.5861  2.5299
  113MOL   H36043144   7.439   0.566   7.336  1.8124  1.1815  1.3582
  113MOL   H36143145   7.512   0.717   7.330  2.4663  2.4667 -2.6749
  113MOL   H36243146   7.528   0.610   7.188  1.4167 -0.3647  0.5071
  113MOL   C36343147   6.967   1.127   7.346 -0.6719 -0.3993  0.4297
  113MOL   C36443148   6.849   1.226   7.314 -0.1549 -0.7814 -0.5755
  113MOL   O36543149   6.840   1.223   7.178  0.3097 -0.4855 -0.1932
  113MOL   C36643150   6.736   1.292   7.117  0.0940  0.0561  1.0358
  113MOL   C36743151   6.757   1.330   6.967 -0.0776  0.0655 -0.1057
  113MOL   C36843152   6.872   1.431   6.934  0.0774  0.0634 -0.3438
  113MOL   C36943153   6.894   1.468   6.792 -0.2843 -0.4705 -0.2854
  113MOL   H37043154   7.050   1.157   7.281 -1.0745  0.3866  0.2763
  113MOL   H37143155   6.999   1.150   7.447 -2.5952  0.8176  0.7857
  113MOL   H37243156   6.883   1.326   7.340  0.8727 -1.4201  0.5929
  113MOL   H37343157   6.737   1.389   7.166  1.7042  0.7561 -0.3289
  113MOL   H37443158   6.636   1.249   7.125 -1.5115  3.0241 -1.6268
  113MOL   H37543159   6.662   1.365   6.928  0.2598 -0.2206 -1.1930
  113MOL   H37643160   6.774   1.246   6.899  0.0262  1.6368 -2.0696
  113MOL   H37743161   6.968   1.390   6.964  0.9384  1.9721 -0.4299
  113MOL   H37843162   6.846   1.529   6.973  0.9794  0.4734 -0.7675
  113MOL   H37943163   6.929   1.378   6.742  2.2036 -0.5333  1.5031
  113MOL   H38043164   6.803   1.507   6.746  0.5349  3.6676  1.4108
  113MOL   H38143165   6.973   1.542   6.794 -0.7947  0.0575  0.9890
  113MOL   H38243166   6.752   1.212   7.363  0.6182 -0.7349  0.9891
  114MOL     C143167   6.666   1.841   1.522  0.2124  0.4995 -0.5810
  114MOL     C243168   6.728   1.730   1.433  0.4623  0.0281  0.4466
  114MOL     O343169   6.631   1.688   1.333  0.0049  0.0458  0.0787
  114MOL     C443170   6.668   1.569   1.268  0.8173 -0.2683 -0.1729
  114MOL     C543171   6.556   1.528   1.171 -0.3472  0.3856 -0.1184
  114MOL     C643172   6.585   1.381   1.129 -0.5252 -0.4773 -0.4362
  114MOL     C743173   6.498   1.359   1.003  0.5583 -0.3119 -0.0027
  114MOL     H843174   6.645   1.930   1.463 -0.3029  1.8620  1.6178
  114MOL     H943175   6.570   1.806   1.561 -0.6901  1.9076 -1.5123
  114MOL    H1043176   6.754   1.640   1.489  1.3164  0.8503  1.3651
  114MOL    H1143177   6.765   1.560   1.221  1.5559  0.0870  1.2730
  114MOL    H1243178   6.675   1.488   1.341 -0.5063 -0.8874 -0.7059
  114MOL    H1343179   6.565   1.595   1.085  0.2325 -0.7707 -0.9911
  114MOL    H1443180   6.458   1.543   1.214 -1.6540 -0.1629 -2.7878
  114MOL    H1543181   6.543   1.317   1.207  0.5112  1.4517  1.7760
  114MOL    H1643182   6.691   1.359   1.115 -0.3001  0.5645 -0.3978
  114MOL    H1743183   6.519   1.270   0.942 -1.5247  0.4753 -1.9235
  114MOL    H1843184   6.521   1.431   0.924 -2.5273  1.3223  0.5372
  114MOL    H1943185   6.391   1.371   1.019  0.4169  1.3391 -1.9961
  114MOL    H2043186   6.730   1.869   1.606 -0.0254  1.3587 -0.6854
  114MOL    C2143187   6.862   1.775   1.363 -0.7152 -0.1492  0.2908
  114MOL    C2243188   6.989   1.732   1.448 -0.7156  0.7442  0.3606
  114MOL    O2343189   7.020   1.591   1.438  0.4735  0.0544  0.0429
  114MOL    C2443190   7.011   1.516   1.554  0.0461  0.0570 -0.0233
  114MOL    C2543191   7.045   1.371   1.518 -0.6362  0.0844 -0.1065
  114MOL    C2643192   6.942   1.280   1.437  0.7486 -0.0796 -0.4141
  114MOL    C2743193   7.008   1.163   1.358 -0.2385 -0.7834  0.0425
  114MOL    H2843194   6.867   1.881   1.339  3.2822 -0.0739  1.1513
  114MOL    H2943195   6.873   1.726   1.266 -1.2503  2.7234 -1.2720
  114MOL    H3043196   6.975   1.748   1.555 -2.9696 -1.0079  0.3567
  114MOL    H3143197   6.909   1.515   1.591 -0.7311 -0.1754 -2.1390
  114MOL    H3243198   7.084   1.554   1.626  0.6167  0.4604 -0.8060
  114MOL    H3343199   7.141   1.381   1.466 -1.2250  2.1078 -0.8796
  114MOL    H3443200   7.076   1.325   1.612  0.3634  1.7650  0.4183
  114MOL    H3543201   6.872   1.244   1.512  1.1140  1.8017  0.8676
  114MOL    H3643202   6.883   1.340   1.368  0.4314 -0.0609 -0.1288
  114MOL    H3743203   7.083   1.109   1.416 -0.1526 -2.2547 -1.3878
  114MOL    H3843204   6.933   1.089   1.328  1.1851 -1.2693 -2.4766
  114MOL    H3943205   7.054   1.191   1.263 -0.0205 -0.1504  0.3337
  114MOL    C4043206   7.126   1.809   1.405 -0.2465  0.4264 -0.1704
  114MOL    C4143207   7.233   1.822   1.514  0.7036  0.2458 -0.2932
  114MOL    O4243208   7.180   1.877   1.629 -0.7020 -0.1515 -0.3729
  114MOL    C4343209   7.202   1.805   1.752  0.2591 -0.4561  0.0620
  114MOL    C4443210   7.085   1.854   1.851  0.9760  0.1889  0.1278
  114MOL    C4543211   6.942   1.821   1.815  0.4417 -0.5896  0.2570
  114MOL    C4643212   6.842   1.845   1.935 -0.1217  0.5421  0.0213
  114MOL    H4743213   7.094   1.909   1.377  1.3399  0.6905 -1.1047
  114MOL    H4843214   7.175   1.755   1.324  1.8587  0.9308  0.7376
  114MOL    H4943215   7.266   1.723   1.546  2.6720  1.8016  2.7182
  114MOL    H5043216   7.299   1.807   1.800  0.9533 -1.7546 -1.2555
  114MOL    H5143217   7.180   1.699   1.734  1.0342 -0.4806 -0.7473
  114MOL    H5243218   7.096   1.959   1.874  0.9124  0.2869 -0.2785
  114MOL    H5343219   7.108   1.798   1.942  1.3075 -1.3217 -0.8551
  114MOL    H5443220   6.948   1.716   1.786  0.3481 -0.4547 -0.2664
  114MOL    H5543221   6.912   1.880   1.728 -2.1709 -1.4487  0.5195
  114MOL    H5643222   6.871   1.773   2.012  4.0963  0.4103 -1.5512
  114MOL    H5743223   6.848   1.944   1.981 -0.2701  0.4497  0.2399
  114MOL    H5843224   6.741   1.824   1.900 -0.0673  1.7384 -0.8855
  114MOL    C5943225   7.367   1.903   1.469 -0.1711  0.8352  0.1103
  114MOL    C6043226   7.487   1.894   1.570  0.7138  0.2271  0.0352
  114MOL    O6143227   7.602   1.865   1.484  0.2907  0.0236 -0.1818
  114MOL    C6243228   7.710   1.804   1.552 -0.0874 -0.1267 -0.5438
  114MOL    C6343229   0.004   1.780   1.437  0.1041  0.2336 -0.2743
  114MOL    C6443230   7.737   1.709   1.310 -0.0830  0.2193  0.6000
  114MOL    C6543231   0.029   1.665   1.205  0.0197  0.2245  0.1672
  114MOL    H6643232   7.401   1.863   1.374 -0.4540 -1.9580  1.1388
  114MOL    H6743233   7.337   2.004   1.442 -0.3614  0.5962 -0.5658
  114MOL    H6843234   7.474   1.802   1.627 -0.5884  0.2919 -0.1244
  114MOL    H6943235   7.675   1.714   1.603  0.0321 -0.9287 -1.8330
  114MOL    H7043236   7.767   1.867   1.620  0.6265 -0.7881 -0.5169
  114MOL    H7143237   0.039   1.880   1.412  0.1423  0.6063  1.2458
  114MOL    H7243238   0.095   1.723   1.457 -1.5817 -1.3949  3.2240
  114MOL    H7343239   7.689   1.618   1.346  3.5650 -2.4806 -1.0639
  114MOL    H7443240   7.664   1.782   1.274  0.0591 -0.4412 -1.0463
  114MOL    H7543241   7.777   1.622   1.121  1.6344 -0.2262 -0.6474
  114MOL    H7643242   0.096   1.743   1.168 -0.2372  0.5133  0.3025
  114MOL    H7743243   0.094   1.584   1.238 -1.4938 -1.4983 -1.0172
  114MOL    C7843244   7.501   2.021   1.660  0.4746 -0.0559  0.2211
  114MOL    C7943245   7.560   2.156   1.600  0.0897 -0.1410 -0.6236
  114MOL    O8043246   7.698   2.129   1.605 -0.1186  0.0290  0.5104
  114MOL    C8143247   7.784   2.218   1.536 -0.4274  0.6409 -0.1699
  114MOL    C8243248   0.132   2.169   1.546  0.5708  0.6630 -0.8724
  114MOL    C8343249   0.184   2.151   1.687 -0.0578 -0.4601 -0.3902
  114MOL    C8443250   0.313   2.086   1.689  0.4008 -0.1978 -0.0237
  114MOL    H8543251   7.553   1.990   1.751 -1.1822  0.2981  1.3102
  114MOL    H8643252   7.399   2.042   1.690  0.6322  1.1744 -0.0660
  114MOL    H8743253   7.515   2.175   1.502  0.9190 -0.4200 -1.0670
  114MOL    H8843254   7.771   2.320   1.574  0.7653  0.7801 -0.1187
  114MOL    H8943255   7.759   2.223   1.430  2.2800  1.5813 -0.8100
  114MOL    H9043256   0.130   2.072   1.497  1.5746 -0.3475  1.0416
  114MOL    H9143257   0.186   2.242   1.485 -0.2465  1.6719 -0.4115
  114MOL    H9243258   0.104   2.107   1.748  1.0642  1.0528  2.2265
  114MOL    H9343259   0.193   2.245   1.742 -1.4595 -0.3067 -0.4103
  114MOL    H9443260   0.353   2.068   1.788  1.2285  0.5039 -0.2263
  114MOL    H9543261   0.306   1.983   1.653  3.0306 -0.3238 -0.3078
  114MOL    H9643262   0.384   2.150   1.636 -1.2101  0.7289 -1.1137
  114MOL    C9743263   7.513   2.269   1.699 -0.2439 -0.1905  0.2687
  114MOL    C9843264   7.373   2.325   1.676 -0.3272  0.0400 -0.3029
  114MOL    O9943265   7.361   2.421   1.777 -0.2813  0.5579  0.4853
  114MOL   C10043266   7.239   2.420   1.850  0.7184  0.3217 -0.3015
  114MOL   C10143267   7.258   2.523   1.965  0.4648  0.0360  0.2162
  114MOL   C10243268   7.125   2.559   2.021 -0.6348 -0.5010  0.1726
  114MOL   C10343269   7.123   2.607   2.164 -0.0606  0.7306 -0.0920
  114MOL   H10443270   7.582   2.353   1.701 -2.1457  1.3928  1.2357
  114MOL   H10543271   7.518   2.238   1.803 -0.4519  0.5670  0.5106
  114MOL   H10643272   7.290   2.255   1.688 -0.8199  0.7662  0.6210
  114MOL   H10743273   7.213   2.320   1.885 -0.2263  0.0140 -1.8562
  114MOL   H10843274   7.172   2.460   1.773  0.5289  0.7825  0.0977
  114MOL   H10943275   7.304   2.618   1.936  1.6649 -0.5953  0.0305
  114MOL   H11043276   7.338   2.491   2.032 -0.9714  0.0794  1.9644
  114MOL   H11143277   7.055   2.476   2.009 -0.3276 -0.7404  0.0395
  114MOL   H11243278   7.085   2.638   1.957 -0.6154 -1.1776 -0.6716
  114MOL   H11343279   7.182   2.535   2.220  1.6358  2.0108 -0.1776
  114MOL   H11443280   7.176   2.702   2.150  0.1469  0.6599  0.2283
  114MOL   H11543281   7.024   2.628   2.205  0.4385  3.2519 -0.0488
  114MOL   C11643282   7.354   2.401   1.544  0.2888 -0.0467  0.3329
  114MOL   C11743283   7.243   2.334   1.455  0.2907  0.0196 -0.9329
  114MOL   O11843284   7.114   2.326   1.523 -0.0344  0.2090 -0.2810
  114MOL   C11943285   7.053   2.199   1.524  0.1737  0.2825  0.0506
  114MOL   C12043286   6.980   2.207   1.658  0.7452  0.5110 -0.6030
  114MOL   C12143287   6.839   2.265   1.634  0.3898 -0.1140 -0.1806
  114MOL   C12243288   6.739   2.231   1.749  0.0236 -0.0483  0.5429
  114MOL   H12343289   7.315   2.499   1.569  1.5609 -0.1111  2.6325
  114MOL   H12443290   7.453   2.420   1.503  0.7373  1.0454  1.8794
  114MOL   H12543291   7.291   2.239   1.429  0.9379 -0.1965  0.9860
  114MOL   H12643292   7.127   2.123   1.548  1.5202  0.6669 -2.7221
  114MOL   H12743293   7.008   2.166   1.430 -0.3413 -1.9300  1.0245
  114MOL   H12843294   7.044   2.249   1.735 -0.1790 -1.7309  1.4711
  114MOL   H12943295   6.972   2.106   1.698  2.4500  0.9968  1.0032
  114MOL   H13043296   6.835   2.371   1.609  0.4793  0.2252  1.1743
  114MOL   H13143297   6.802   2.212   1.546 -0.5134  0.2481 -0.0227
  114MOL   H13243298   6.690   2.133   1.745  0.0041  0.0320 -2.0175
  114MOL   H13343299   6.656   2.300   1.736  0.2676  0.3985  1.3415
  114MOL   H13443300   6.780   2.253   1.847 -0.4666 -0.9744  0.9597
  114MOL   C13543301   7.202   2.407   1.328  0.1613  0.2203  0.2628
  114MOL   C13643302   7.121   2.321   1.224 -0.5135  0.3520 -0.0633
  114MOL   O13743303   7.123   2.400   1.105  0.6497 -0.7672 -0.1425
  114MOL   C13843304   7.018   2.501   1.102 -0.9197  0.4963  0.0531
  114MOL   C13943305   7.055   2.590   0.985 -0.8154 -0.5557 -0.0573
  114MOL   C14043306   6.979   2.726   0.996 -0.2611 -0.0019  0.4816
  114MOL   C14143307   7.012   2.811   0.873 -0.0142 -0.4805 -0.4713
  114MOL   H14243308   7.291   2.433   1.271  0.2814  0.4275  0.5490
  114MOL   H14343309   7.156   2.501   1.357  1.4780  1.4729 -1.6334
  114MOL   H14443310   7.017   2.306   1.255 -1.6276  1.9497 -2.8843
  114MOL   H14543311   7.021   2.566   1.189  0.2331  1.4022 -0.6531
  114MOL   H14643312   6.915   2.465   1.095 -0.3259 -0.9046 -2.3046
  114MOL   H14743313   7.034   2.538   0.892 -0.3661 -1.4029  0.2978
  114MOL   H14843314   7.164   2.598   0.982 -0.8712  0.2849  0.2623
  114MOL   H14943315   6.873   2.701   0.996 -0.6707  1.4372 -2.4993
  114MOL   H15043316   7.003   2.795   1.076 -0.3573  0.9714 -0.3208
  114MOL   H15143317   6.968   2.757   0.790 -2.4962  1.0634 -0.2075
  114MOL   H15243318   6.958   2.905   0.884  0.9424 -0.0008  0.2184
  114MOL   H15343319   7.118   2.835   0.862  0.1269 -0.7706  0.2252
  114MOL   C15443320   7.178   2.178   1.188  0.1582  0.2161  0.6825
  114MOL   C15543321   7.088   2.118   1.072 -0.3757 -0.9060 -0.2200
  114MOL   O15643322   6.972   2.078   1.146  0.3032  0.0913 -0.2966
  114MOL   C15743323   6.856   2.123   1.081 -0.8700  0.1496  0.4893
  114MOL   C15843324   6.742   2.074   1.157 -0.6706  1.1293  0.0800
  114MOL   C15943325   6.609   2.110   1.080 -0.5703 -0.8665  0.3625
  114MOL   C16043326   6.489   2.038   1.135  0.2364 -0.3881 -0.1049
  114MOL   H16143327   7.184   2.108   1.272  1.5719 -0.8323 -0.2544
  114MOL   H16243328   7.279   2.178   1.148 -0.2534 -1.9104 -0.4219
  114MOL   H16343329   7.058   2.193   0.999  1.5952 -0.5362 -0.6861
  114MOL   H16443330   6.857   2.231   1.062 -0.4828  0.4800  2.2522
  114MOL   H16543331   6.851   2.088   0.978  3.4992 -2.1509  0.9651
  114MOL   H16643332   6.743   2.119   1.257  0.8066 -0.3671  0.7512
  114MOL   H16743333   6.748   1.966   1.159  1.7191  1.1576 -2.6369
  114MOL   H16843334   6.596   2.218   1.094  1.2153 -0.7461  1.2618
  114MOL   H16943335   6.632   2.086   0.976  0.2448  1.0790  0.0651
  114MOL   H17043336   6.449   2.070   1.231 -2.6830  0.8557 -1.6540
  114MOL   H17143337   6.398   2.050   1.075 -2.2365 -2.0393  3.1622
  114MOL   H17243338   6.511   1.931   1.134  4.8133  0.4828 -1.6687
  114MOL   C17343339   7.131   1.990   1.001 -0.1028  0.5064  0.2374
  114MOL   C17443340   7.257   2.004   0.905 -0.1741 -0.0078  0.2090
  114MOL   O17543341   7.369   2.002   0.996  0.8948 -0.5689 -0.0030
  114MOL   C17643342   7.485   2.062   0.955 -0.1506  0.0009  0.4820
  114MOL   C17743343   7.604   2.062   1.053 -0.5355 -0.3432  0.1642
  114MOL   C17843344   7.572   2.134   1.175 -0.0400 -0.2537 -0.2346
  114MOL   C17943345   7.540   2.279   1.151  0.0699 -0.1955 -0.8217
  114MOL   H18043346   7.041   1.958   0.947 -0.6324  3.0245 -0.4275
  114MOL   H18143347   7.153   1.911   1.073 -1.0269 -1.4360 -1.5757
  114MOL   H18243348   7.252   2.102   0.856  1.0926  0.6217  1.3083
  114MOL   H18343349   7.461   2.157   0.908  2.0282 -0.1978 -1.1499
  114MOL   H18443350   7.520   2.012   0.864 -1.5658 -0.3286  0.1012
  114MOL   H18543351   7.691   2.104   1.001 -0.9466  2.2627  1.4880
  114MOL   H18643352   7.634   1.959   1.071 -0.3233 -0.7026 -2.0460
  114MOL   H18743353   7.476   2.101   1.215 -0.3917  2.9799  1.7717
  114MOL   H18843354   7.649   2.110   1.248 -0.3395  0.6925  0.4042
  114MOL   H18943355   7.550   2.336   1.244  0.5174  0.7093 -1.4116
  114MOL   H19043356   7.612   2.325   1.083  1.5278  0.1083  0.8749
  114MOL   H19143357   7.438   2.292   1.115  0.2484  1.2044 -0.8888
  114MOL   C19243358   7.266   1.897   0.792 -0.2414 -0.1373 -0.1112
  114MOL   C19343359   7.193   1.944   0.669 -0.5213  0.2356 -0.0896
  114MOL   O19443360   7.279   2.031   0.590  0.4686  1.0372 -0.1336
  114MOL   C19543361   7.222   2.147   0.543 -0.5196  0.6425 -0.1783
  114MOL   C19643362   7.307   2.240   0.463 -0.2686 -0.7627  0.3490
  114MOL   C19743363   7.243   2.376   0.442  0.4487 -0.4787 -0.2849
  114MOL   C19843364   7.334   2.472   0.347  0.0756  0.4580 -0.2339
  114MOL   H19943365   7.222   1.807   0.835  2.2315 -1.0482  0.6057
  114MOL   H20043366   7.362   1.861   0.756 -1.6286 -2.3892 -1.7194
  114MOL   H20143367   7.098   1.987   0.701 -0.6893  0.7062 -1.2040
  114MOL   H20243368   7.220   2.205   0.635  0.0582 -1.2800  1.0829
  114MOL   H20343369   7.119   2.139   0.507  0.4615  1.1184 -3.2676
  114MOL   H20443370   7.394   2.267   0.523  1.4298 -1.3664 -1.7660
  114MOL   H20543371   7.326   2.201   0.363 -1.6296 -2.0462  0.5705
  114MOL   H20643372   7.232   2.424   0.539 -1.3120  0.3129 -0.8657
  114MOL   H20743373   7.143   2.365   0.400 -0.4642  0.4774  1.5807
  114MOL   H20843374   7.346   2.412   0.257  1.4187 -1.9426  1.4726
  114MOL   H20943375   7.284   2.566   0.323  0.0338  0.0694 -1.6737
  114MOL   H21043376   7.422   2.486   0.410 -0.1373 -2.1535  0.7490
  114MOL   C21143377   7.150   1.837   0.565 -0.1408 -0.0258 -0.3516
  114MOL   C21243378   7.049   1.736   0.618  0.4835 -0.0762  0.2993
  114MOL   O21343379   6.923   1.801   0.640 -0.2378 -0.2230  0.3007
  114MOL   C21443380   6.858   1.757   0.755 -0.2462 -0.6092  0.7186
  114MOL   C21543381   6.742   1.852   0.766 -0.5432 -0.6799  0.3832
  114MOL   C21643382   6.620   1.791   0.847  0.0227  0.5031 -0.1849
  114MOL   C21743383   6.491   1.877   0.826 -0.1037 -0.2508 -0.5761
  114MOL   H21843384   7.242   1.792   0.529  0.6701  0.9564  0.4480
  114MOL   H21943385   7.111   1.884   0.475  0.3523 -2.3430 -1.7858
  114MOL   H22043386   7.084   1.692   0.712  1.7798  1.9660  0.8131
  114MOL   H22143387   6.827   1.654   0.739 -0.0925 -0.4314 -0.8255
  114MOL   H22243388   6.915   1.767   0.847 -1.4516  0.1645  1.4077
  114MOL   H22343389   6.775   1.953   0.791 -3.2116  0.4853 -0.5978
  114MOL   H22443390   6.700   1.867   0.667  3.0846 -2.9774 -1.6157
  114MOL   H22543391   6.645   1.787   0.953 -0.0130  0.6052 -0.1725
  114MOL   H22643392   6.605   1.691   0.807 -0.1431  1.2798 -2.1077
  114MOL   H22743393   6.435   1.862   0.918  0.6543 -0.2461 -0.1132
  114MOL   H22843394   6.448   1.848   0.730  0.7760  1.2716 -1.4350
  114MOL   H22943395   6.508   1.984   0.821  2.5120 -0.6986 -2.0982
  114MOL   C23043396   7.015   1.621   0.517  0.6691  0.1505  0.4704
  114MOL   C23143397   7.106   1.499   0.478  0.5865 -0.0468  0.0015
  114MOL   O23243398   7.207   1.527   0.384  0.0114 -0.3979 -0.5220
  114MOL   C23343399   7.163   1.523   0.251  0.4535  0.1678 -0.2781
  114MOL   C23443400   7.286   1.551   0.165  0.2321 -0.4512  0.2510
  114MOL   C23543401   7.350   1.693   0.191 -0.0261 -0.1559  0.1624
  114MOL   C23643402   7.470   1.737   0.109 -0.0568  0.4594  0.5834
  114MOL   H23743403   6.998   1.667   0.420 -1.8421  0.2533  0.9475
  114MOL   H23843404   6.918   1.582   0.546 -0.6187  3.3059  0.5487
  114MOL   H23943405   7.041   1.424   0.432  1.8549 -0.3288 -1.3933
  114MOL   H24043406   7.131   1.420   0.235 -0.0562  0.4776 -1.2850
  114MOL   H24143407   7.080   1.588   0.226  1.2526  0.9972 -0.8243
  114MOL   H24243408   7.362   1.474   0.167  0.7450  0.0595  0.7583
  114MOL   H24343409   7.255   1.545   0.061  0.6371  2.3715 -0.0967
  114MOL   H24443410   7.368   1.694   0.298  0.4918  0.2144  0.0739
  114MOL   H24543411   7.266   1.761   0.173 -1.9526 -2.2193  1.1014
  114MOL   H24643412   7.526   1.819   0.153  0.8150  0.6493 -0.8527
  114MOL   H24743413   7.442   1.767   0.008 -0.1087  1.5744  0.9237
  114MOL   H24843414   7.543   1.657   0.092 -1.4035 -0.4244 -1.1885
  114MOL   C24943415   7.163   1.441   0.608  0.2661  0.4753  0.1343
  114MOL   C25043416   7.063   1.392   0.713  0.0111 -0.2103  0.1513
  114MOL   O25143417   7.143   1.405   0.828  0.8683  0.0378 -0.4417
  114MOL   C25243418   7.077   1.423   0.948 -0.0743 -0.4388 -0.1012
  114MOL   C25343419   7.187   1.467   1.040 -0.6526 -0.0527 -0.0942
  114MOL   C25443420   7.248   1.599   1.002  0.6123  0.7266  0.2798
  114MOL   C25543421   7.363   1.629   1.094  0.0061 -0.4276 -0.2567
  114MOL   H25643422   7.223   1.519   0.654  0.1073  0.4407  0.4028
  114MOL   H25743423   7.239   1.365   0.585  1.8568  1.9002  0.5755
  114MOL   H25843424   6.980   1.461   0.726  1.0875  0.6861  2.4029
  114MOL   H25943425   7.026   1.333   0.982 -0.0862 -0.6745 -0.7439
  114MOL   H26043426   7.003   1.503   0.946 -0.3846 -0.7465 -0.8200
  114MOL   H26143427   7.147   1.487   1.139 -0.2523  2.4290 -0.3978
  114MOL   H26243428   7.255   1.381   1.039 -0.8321 -0.1945 -1.1466
  114MOL   H26343429   7.278   1.592   0.898 -2.5412 -2.1893 -0.5368
  114MOL   H26443430   7.173   1.678   1.005  1.2581  1.3826 -0.8174
  114MOL   H26543431   7.328   1.649   1.194 -1.4266 -2.8646 -0.2461
  114MOL   H26643432   7.406   1.725   1.066  1.4419 -1.0752 -0.3684
  114MOL   H26743433   7.445   1.556   1.090  1.0379  0.7908 -2.7752
  114MOL   C26843434   7.000   1.245   0.712 -0.1024  0.4000  0.5451
  114MOL   C26943435   6.932   1.198   0.589  0.4015 -0.0250  0.3310
  114MOL   O27043436   6.858   1.307   0.536  0.4450 -0.7436  0.1060
  114MOL   C27143437   6.757   1.281   0.438  0.3931 -0.4531 -0.2116
  114MOL   C27243438   6.665   1.403   0.449 -0.0710  0.5240  0.4269
  114MOL   C27343439   6.603   1.422   0.582 -0.2351 -0.8477 -0.4515
  114MOL   C27443440   6.487   1.517   0.580  0.1585 -0.0768 -0.5442
  114MOL   H27543441   7.088   1.185   0.737  0.8942  1.0801 -1.2226
  114MOL   H27643442   6.935   1.230   0.799  0.5787  0.4032  1.0641
  114MOL   H27743443   6.864   1.116   0.614  0.0643  0.1646  0.0397
  114MOL   H27843444   6.794   1.280   0.336  0.1839  2.6891 -0.3766
  114MOL   H27943445   6.711   1.183   0.451 -0.3990 -0.1415 -0.6148
  114MOL   H28043446   6.706   1.494   0.406  0.5590  1.1227  2.2863
  114MOL   H28143447   6.593   1.379   0.370  2.4605 -2.7451 -1.0016
  114MOL   H28243448   6.687   1.440   0.649 -1.3149  0.9940  0.4295
  114MOL   H28343449   6.554   1.329   0.613  0.9501 -1.8244 -1.4474
  114MOL   H28443450   6.418   1.479   0.505  0.2647 -2.2151  0.4093
  114MOL   H28543451   6.513   1.618   0.548  0.9388 -0.5692 -1.4692
  114MOL   H28643452   6.435   1.526   0.675  1.7521 -1.1404  0.4529
  114MOL   C28743453   7.037   1.137   0.490 -0.4806 -0.6503 -0.0926
  114MOL   C28843454   6.977   1.030   0.396  0.1411  0.6163  0.1840
  114MOL   O28943455   6.938   0.922   0.483 -0.5183  0.2852 -0.7560
  114MOL   C29043456   6.844   0.833   0.425  0.3575  0.7157 -0.5334
  114MOL   C29143457   6.805   0.729   0.530  0.6739  0.1634  0.7185
  114MOL   C29243458   6.744   0.782   0.661  0.7307 -0.6892  0.7049
  114MOL   C29343459   6.605   0.851   0.645 -0.2106 -0.5803 -0.3791
  114MOL   H29443460   7.133   1.106   0.531  0.1595  1.2549 -0.1242
  114MOL   H29543461   7.078   1.215   0.426 -0.9667  0.6473  1.1727
  114MOL   H29643462   6.890   1.058   0.336 -0.4348 -0.8057  0.3143
  114MOL   H29743463   6.765   0.892   0.378 -0.1400 -0.0235 -0.6289
  114MOL   H29843464   6.888   0.776   0.344  0.4043 -0.2801  0.1920
  114MOL   H29943465   6.894   0.671   0.552  0.6919 -0.0897  0.0082
  114MOL   H30043466   6.736   0.657   0.484 -0.6913  0.8112  1.7138
  114MOL   H30143467   6.813   0.852   0.706  1.6141 -1.7586  1.0361
  114MOL   H30243468   6.739   0.708   0.741 -3.4400  2.8045  3.8672
  114MOL   H30343469   6.533   0.773   0.618 -1.1514 -0.3112  1.2837
  114MOL   H30443470   6.571   0.918   0.724  0.2815 -0.0401 -0.6266
  114MOL   H30543471   6.613   0.914   0.556 -1.5506 -0.1505 -0.1978
  114MOL   C30643472   7.090   0.980   0.306 -0.2736 -0.1024 -0.4025
  114MOL   C30743473   7.121   1.078   0.198 -0.2608 -0.4859 -0.6661
  114MOL   O30843474   7.004   1.092   0.115 -0.8604  0.0217  0.3737
  114MOL   C30943475   6.985   1.215   0.051 -0.3966  0.2264  0.1384
  114MOL   C31043476   6.872   1.223   7.754  1.2382 -0.6266 -0.7873
  114MOL   C31143477   6.859   1.365   7.702 -0.2424 -0.4602 -0.2093
  114MOL   C31243478   6.727   1.395   7.639  0.2418 -0.5583 -0.3370
  114MOL   H31343479   7.177   0.961   0.369 -2.0439 -1.3037  1.7556
  114MOL   H31443480   7.077   0.883   0.257  0.8754  0.4197 -1.7794
  114MOL   H31543481   7.148   1.176   0.237  0.0443 -0.3332 -1.2536
  114MOL   H31643482   7.072   1.248   7.797  1.1845 -1.4440  1.5854
  114MOL   H31743483   6.961   1.286   0.131  0.7373  0.6129  0.1372
  114MOL   H31843484   6.782   1.196   0.007  1.1940  1.2484  0.0962
  114MOL   H31943485   6.877   1.158   7.667 -1.3248 -2.5692  0.4423
  114MOL   H32043486   6.875   1.437   7.783 -2.9933 -1.0047  0.8595
  114MOL   H32143487   6.940   1.378   7.630 -1.1034 -0.5311 -1.2004
  114MOL   H32243488   6.708   1.340   7.547  0.7231 -0.2134 -0.6482
  114MOL   H32343489   6.728   1.500   7.611 -2.1133 -0.8099 -1.4078
  114MOL   H32443490   6.642   1.379   7.706  0.3236  1.0733  0.1853
  114MOL   C32543491   7.243   1.037   0.112 -0.2408  0.3730  0.6697
  114MOL   C32643492   7.370   1.113   0.133  0.2753 -0.1736  0.2686
  114MOL   O32743493   7.431   1.045   0.242 -0.2462 -0.0815  0.6191
  114MOL   C32843494   7.494   1.130   0.342 -0.4212  0.0711  0.6506
  114MOL   C32943495   7.550   1.044   0.451  0.1355  0.7754 -0.3782
  114MOL   C33043496   7.664   0.961   0.391 -0.5509  0.3582  0.6249
  114MOL   C33143497   7.734   0.887   0.502  0.3085 -0.7752  0.5059
  114MOL   H33243498   7.207   1.046   0.009  2.0310 -1.3259 -0.3226
  114MOL   H33343499   7.256   0.929   0.123 -0.0437  0.3761  0.4715
  114MOL   H33443500   7.351   1.218   0.151  1.5974  0.0597  0.3436
  114MOL   H33543501   7.418   1.198   0.382 -0.6723  0.9211 -1.2144
  114MOL   H33643502   7.571   1.184   0.288 -0.3527  0.0732  0.7497
  114MOL   H33743503   7.599   1.099   0.531  2.1072  0.3317 -1.2403
  114MOL   H33843504   7.476   0.973   0.488  1.1375 -0.0815 -0.0032
  114MOL   H33943505   7.731   1.033   0.345  0.9574  1.8429  4.9301
  114MOL   H34043506   7.609   0.898   0.321 -0.7026 -0.9489  1.8968
  114MOL   H34143507   0.012   0.818   0.473 -1.8314 -2.3882 -1.8134
  114MOL   H34243508   7.659   0.824   0.550 -1.0880  0.0123 -0.6128
  114MOL   H34343509   7.788   0.951   0.572 -0.4376  0.2946  0.1066
  114MOL   C34443510   7.460   1.103   0.008  0.5109  0.5111 -0.1879
  114MOL   C34543511   7.404   1.170   7.683  0.1979  0.9152 -0.2686
  114MOL   O34643512   7.512   1.154   7.592 -0.3317  0.3618 -0.0401
  114MOL   C34743513   7.484   1.077   7.477  0.4894 -0.9060  0.2388
  114MOL   C34843514   7.603   1.059   7.386 -0.1685 -0.1511 -0.3543
  114MOL   C34943515   7.716   0.981   7.446  0.9621 -0.1000 -1.2234
  114MOL   C35043516   0.057   0.991   7.385 -0.1646  0.3907 -0.8264
  114MOL   H35143517   7.556   1.151   0.030  0.1885  0.4368  1.4426
  114MOL   H35243518   7.489   0.999   7.792  1.6319  0.7438  0.2436
  114MOL   H35343519   7.316   1.114   7.651  0.6820  0.1731 -0.3140
  114MOL   H35443520   7.399   1.127   7.431  1.1497 -0.0737 -0.0961
  114MOL   H35543521   7.450   0.979   7.509 -2.2924 -0.0824 -0.0674
  114MOL   H35643522   7.651   1.149   7.348 -1.3261 -0.4384 -2.6220
  114MOL   H35743523   7.558   0.998   7.307  1.4427  2.0248 -3.0597
  114MOL   H35843524   7.741   1.006   7.550  1.2869 -0.9959 -1.0826
  114MOL   H35943525   7.687   0.876   7.449 -0.2147  0.2491 -0.2201
  114MOL   H36043526   0.075   1.096   7.363  2.2433  0.1299 -0.1868
  114MOL   H36143527   0.056   0.929   7.295  0.9049 -2.2750  0.9239
  114MOL   H36243528   0.139   0.954   7.447 -1.2588 -1.5996 -0.5243
  114MOL   C36343529   7.364   1.319   7.704  0.1742  0.2936 -0.0962
  114MOL   C36443530   7.308   1.392   7.586  0.4931 -0.2770  0.3551
  114MOL   O36543531   7.317   1.526   7.630  0.4454  0.4035 -0.2902
  114MOL   C36643532   7.253   1.612   7.540  0.0541  0.5372  0.5387
  114MOL   C36743533   7.177   1.720   7.612  0.4496  0.2459  0.7674
  114MOL   C36843534   7.044   1.671   7.674 -0.4833 -0.4650  0.1077
  114MOL   C36943535   6.976   1.766   7.773  0.3829  0.4388 -0.5713
  114MOL   H37043536   7.454   1.366   7.742  0.5208  0.9128 -1.6268
  114MOL   H37143537   7.285   1.326   7.779  0.6920 -0.2339  0.4985
  114MOL   H37243538   7.206   1.354   7.574 -0.3533  1.9181  0.4325
  114MOL   H37343539   7.187   1.559   7.471 -0.0967  0.7758  0.5009
  114MOL   H37443540   7.326   1.657   7.472  0.9372 -0.3600  0.8698
  114MOL   H37543541   7.156   1.799   7.541 -0.8254 -0.9189 -0.1904
  114MOL   H37643542   7.252   1.763   7.678  0.7525  2.3076 -0.8960
  114MOL   H37743543   7.075   1.581   7.726 -0.5916 -0.6731 -0.1906
  114MOL   H37843544   6.966   1.647   7.602 -1.4288 -0.2631  1.0667
  114MOL   H37943545   7.008   1.776   0.074  0.7577  5.1117 -1.0621
  114MOL   H38043546   6.969   1.862   7.722  1.9431 -0.3001 -2.2532
  114MOL   H38143547   6.871   1.736   7.778  0.3857  0.1970 -1.7464
  114MOL   H38243548   7.367   1.375   7.496  0.1193 -2.4757  0.4906
  115MOL     C143549   1.588   5.255   7.233 -0.3717 -0.5426 -0.3780
  115MOL     C243550   1.477   5.258   7.131  1.0360 -1.1295  0.3961
  115MOL     O343551   1.432   5.128   7.089  0.4039 -0.4179 -0.1201
  115MOL     C443552   1.443   5.013   7.178  1.0250 -0.3245 -0.2869
  115MOL     C543553   1.374   4.901   7.107  0.1195  0.5715 -0.0875
  115MOL     C643554   1.373   4.759   7.175  0.3406  0.4629  0.4632
  115MOL     C743555   1.281   4.668   7.092 -0.5348 -0.0965 -0.7559
  115MOL     H843556   1.640   5.351   7.233  1.3918 -1.4293  2.5296
  115MOL     H943557   1.558   5.242   7.337 -0.9131  3.0839 -0.0133
  115MOL    H1043558   1.504   5.306   7.037  1.2834 -0.7887  0.6413
  115MOL    H1143559   1.541   4.980   7.212  1.2829  2.1290  1.5199
  115MOL    H1243560   1.386   5.041   7.267 -0.2393 -0.1867 -1.1263
  115MOL    H1343561   1.430   4.880   7.016 -1.1581  1.1475 -1.0044
  115MOL    H1443562   1.273   4.931   7.080 -0.3083  1.2089  2.1049
  115MOL    H1543563   1.327   4.760   7.274 -0.7584 -2.9440  0.0787
  115MOL    H1643564   1.472   4.716   7.185  0.4132  0.8942  1.6414
  115MOL    H1743565   1.258   4.574   7.141  1.2418 -0.6280 -0.9216
  115MOL    H1843566   1.317   4.645   6.992  1.6768  1.4991 -0.3757
  115MOL    H1943567   1.187   4.721   7.072 -1.0011 -0.8640 -0.6030
  115MOL    H2043568   1.658   5.177   7.202 -0.4697 -0.8166  0.0924
  115MOL    C2143569   1.347   5.339   7.169  0.1637  0.1870 -0.7742
  115MOL    C2243570   1.375   5.487   7.162  1.2044  0.0082 -0.0519
  115MOL    O2343571   1.399   5.537   7.030 -0.1781  0.1007 -0.2445
  115MOL    C2443572   1.487   5.650   7.018  0.7935  0.1269  0.3462
  115MOL    C2543573   1.497   5.698   6.870 -0.1526  0.3108  0.2231
  115MOL    C2643574   1.487   5.589   6.761  0.6960  0.1633  0.2747
  115MOL    C2743575   1.581   5.604   6.641 -0.0929  0.2783  0.9936
  115MOL    H2843576   1.317   5.308   7.270 -0.2449  2.3218 -0.2098
  115MOL    H2943577   1.266   5.319   7.099 -0.2545  2.7347 -1.0981
  115MOL    H3043578   1.464   5.512   7.221 -0.0334 -0.9232  2.2737
  115MOL    H3143579   1.588   5.633   7.058  1.3429  3.8676  0.7208
  115MOL    H3243580   1.448   5.737   7.071  0.2024 -0.0898  0.2697
  115MOL    H3343581   1.414   5.768   6.860  0.6684  1.0257 -1.6065
  115MOL    H3443582   1.583   5.764   6.864 -0.0234  0.0932 -0.3589
  115MOL    H3543583   1.507   5.489   6.798 -1.0559 -0.7810 -1.2485
  115MOL    H3643584   1.388   5.566   6.721  0.0837  1.7998  0.7879
  115MOL    H3743585   1.557   5.693   6.583 -1.1405  0.0844  1.1047
  115MOL    H3843586   1.677   5.601   6.691  0.0879 -0.1049  0.6251
  115MOL    H3943587   1.573   5.514   6.579 -0.4757  1.3359 -0.5172
  115MOL    C4043588   1.264   5.564   7.239  0.1398  0.4157  0.3186
  115MOL    C4143589   1.140   5.609   7.159  0.2603 -0.0125 -0.2970
  115MOL    O4243590   1.101   5.731   7.218  0.8253  0.0582 -0.5222
  115MOL    C4343591   1.178   5.849   7.175 -0.0595 -0.3887  0.3356
  115MOL    C4443592   1.093   5.980   7.170 -0.6004  0.3571  1.0176
  115MOL    C4543593   0.979   5.954   7.075  0.6599 -0.2679  0.5567
  115MOL    C4643594   0.857   6.052   7.073  0.1460  0.0315  0.2263
  115MOL    H4743595   1.316   5.652   7.277  1.1876 -0.9601  2.1209
  115MOL    H4843596   1.217   5.518   7.326 -2.2596  1.5664 -0.2987
  115MOL    H4943597   1.180   5.626   7.059  0.1697  0.3383 -0.2750
  115MOL    H5043598   1.217   5.835   7.074 -0.1631 -1.5525  0.4584
  115MOL    H5143599   1.264   5.879   7.234 -0.9518  1.0857  0.9260
  115MOL    H5243600   1.155   6.062   7.134 -0.4207  0.1157  0.7778
  115MOL    H5343601   1.061   6.008   7.271 -0.2601 -1.0208  1.5089
  115MOL    H5443602   0.937   5.859   7.108 -0.3083  0.0872  0.3596
  115MOL    H5543603   1.021   5.932   6.977  1.6411 -0.7278  1.0689
  115MOL    H5643604   0.784   6.006   7.006 -2.3383  1.3677  1.9251
  115MOL    H5743605   0.805   6.038   7.167  0.1443 -2.1688 -0.0553
  115MOL    H5843606   0.871   6.150   7.029  2.3957  0.6453  2.1887
  115MOL    C5943607   1.012   5.518   7.155  0.9577  0.0340  0.6272
  115MOL    C6043608   0.937   5.498   7.025  0.1711  0.4991  0.3153
  115MOL    O6143609   1.011   5.411   6.942 -0.4614  0.0532  0.7656
  115MOL    C6243610   1.071   5.473   6.828  0.3034  0.0297 -0.5443
  115MOL    C6343611   1.140   5.359   6.743  0.1708  0.7549 -0.4193
  115MOL    C6443612   1.243   5.265   6.809  0.2146  0.4942  0.0478
  115MOL    C6543613   1.314   5.190   6.702 -1.1181  0.3291  0.7197
  115MOL    H6643614   1.023   5.417   7.193 -1.0356 -0.4278  0.0736
  115MOL    H6743615   0.942   5.566   7.225  0.0895  0.3977 -0.4657
  115MOL    H6843616   0.929   5.597   6.980 -0.2254  0.2361 -0.1948
  115MOL    H6943617   1.148   5.542   6.864 -0.1209  0.4701 -0.4768
  115MOL    H7043618   0.993   5.523   6.770  0.3357 -0.9840 -1.4663
  115MOL    H7143619   1.056   5.295   6.716  0.9280 -1.0996  1.4922
  115MOL    H7243620   1.182   5.410   6.656  0.6955  3.0696  1.1321
  115MOL    H7343621   1.316   5.321   6.867  2.6523 -1.3092 -1.1636
  115MOL    H7443622   1.194   5.191   6.872 -0.9296 -0.1390 -1.5520
  115MOL    H7543623   1.379   5.258   6.648 -1.6319 -1.2020 -1.9149
  115MOL    H7643624   1.383   5.113   6.737 -1.7994 -0.3971  0.4907
  115MOL    H7743625   1.243   5.149   6.630  0.9562 -1.3377 -0.4366
  115MOL    C7843626   0.802   5.437   7.044  0.3068  0.2028 -0.4718
  115MOL    C7943627   0.705   5.418   6.920 -0.6784  0.0163 -0.1792
  115MOL    O8043628   0.655   5.546   6.895  0.0422  0.4482  0.3054
  115MOL    C8143629   0.621   5.571   6.760  0.8382  0.3949  0.6826
  115MOL    C8243630   0.574   5.717   6.737  0.2187  0.3346 -0.7210
  115MOL    C8343631   0.688   5.808   6.775  0.5160  0.8349 -0.8577
  115MOL    C8443632   0.662   5.954   6.761  0.3048 -0.2177  0.0234
  115MOL    H8543633   0.741   5.499   7.110 -1.3043  0.4216 -2.1448
  115MOL    H8643634   0.820   5.341   7.094 -1.6381  0.3666  0.5956
  115MOL    H8743635   0.776   5.394   6.840  0.5474 -2.4256  1.5738
  115MOL    H8843636   0.538   5.505   6.736 -0.1469  1.4702  1.0897
  115MOL    H8943637   0.703   5.533   6.699 -0.4218 -1.6822  0.2152
  115MOL    H9043638   0.555   5.730   6.631  0.1854  2.1228 -0.5045
  115MOL    H9143639   0.481   5.728   6.792  1.6343  1.2903  1.5413
  115MOL    H9243640   0.764   5.792   6.698 -0.2762  2.6482 -2.0455
  115MOL    H9343641   0.734   5.779   6.870  0.9825 -0.3142 -1.4258
  115MOL    H9443642   0.603   5.985   6.847 -0.7586 -0.1296 -0.7310
  115MOL    H9543643   0.750   6.018   6.761 -0.1254  0.3822 -0.5294
  115MOL    H9643644   0.589   5.970   6.682 -0.5073 -1.6957  0.4514
  115MOL    C9743645   0.589   5.317   6.941 -0.3432  0.7899  0.0525
  115MOL    C9843646   0.622   5.174   6.980  0.2923 -0.9015 -0.4361
  115MOL    O9943647   0.504   5.097   6.950 -0.2999  0.0484  0.7964
  115MOL   C10043648   0.395   5.112   7.042 -0.1224 -0.1378 -0.4302
  115MOL   C10143649   0.297   4.998   7.036 -0.2580 -0.3249  0.0249
  115MOL   C10243650   0.201   5.015   7.154  0.6502 -0.4049 -0.6823
  115MOL   C10343651   0.102   4.900   7.160  0.4210  0.0251 -0.2475
  115MOL   H10443652   0.535   5.303   6.848 -0.6272 -0.7724  0.4430
  115MOL   H10543653   0.522   5.373   7.007 -2.1370 -0.3180 -0.7971
  115MOL   H10643654   0.646   5.170   7.086  0.0867 -2.8599 -0.4330
  115MOL   H10743655   0.338   5.202   7.022 -1.7357 -0.9142  0.5357
  115MOL   H10843656   0.438   5.106   7.143  1.6323  0.0560 -1.1472
  115MOL   H10943657   0.360   4.909   7.037 -0.5770 -0.5524  1.2165
  115MOL   H11043658   0.253   5.006   6.937 -0.8563  1.6818  0.4298
  115MOL   H11143659   0.156   5.114   7.158  1.9296  0.2103 -1.2830
  115MOL   H11243660   0.241   5.005   7.255 -1.3833 -2.4900 -0.0371
  115MOL   H11343661   0.061   4.889   7.260 -1.9960 -0.3242 -1.2340
  115MOL   H11443662   0.019   4.907   7.089  0.0956  0.6018  0.1904
  115MOL   H11543663   0.150   4.805   7.135 -1.5478 -0.8760 -0.7717
  115MOL   C11643664   0.741   5.119   6.898 -0.0873  0.2395 -0.0854
  115MOL   C11743665   0.772   4.962   6.917  0.2098  0.1116 -0.3967
  115MOL   O11843666   0.875   4.915   6.837  0.3417  0.7605  0.5475
  115MOL   C11943667   1.006   4.970   6.840  0.3129  0.0707 -0.0429
  115MOL   C12043668   1.111   4.865   6.804  0.9286 -0.7561  0.4392
  115MOL   C12143669   1.121   4.824   6.655  0.5526 -0.5138 -0.4718
  115MOL   C12243670   1.197   4.688   6.641 -0.4473  0.7803 -0.3511
  115MOL   H12343671   0.706   5.141   6.797 -0.3184  1.4862  0.2573
  115MOL   H12443672   0.828   5.178   6.928 -0.4038 -0.1838  1.6979
  115MOL   H12543673   0.684   4.912   6.876 -0.5930 -0.6704  2.1625
  115MOL   H12643674   1.021   4.999   6.944  0.4929  1.3216 -0.4137
  115MOL   H12743675   1.018   5.057   6.775  0.1608  0.7109  0.7765
  115MOL   H12843676   1.071   4.779   6.857 -1.8326 -1.2016 -2.2464
  115MOL   H12943677   1.208   4.887   6.849  0.3714 -1.0896  1.8226
  115MOL   H13043678   1.024   4.833   6.606  1.0712 -1.2086 -1.6463
  115MOL   H13143679   1.187   4.894   6.605 -1.9309  1.7327 -0.7117
  115MOL   H13243680   1.228   4.662   6.540  0.3853 -1.3512  0.4051
  115MOL   H13343681   1.136   4.604   6.675  1.4387 -0.0398  1.1953
  115MOL   H13443682   1.288   4.686   6.702 -1.5591 -0.4937  1.3039
  115MOL   C13543683   0.790   4.924   7.071  0.2143 -0.5898 -0.0497
  115MOL   C13643684   0.804   4.776   7.107 -0.7123  0.3256 -0.8416
  115MOL   O13743685   0.818   4.773   7.249  0.8080  0.8693  0.0288
  115MOL   C13843686   0.954   4.758   7.286 -0.4252  0.2931  0.9693
  115MOL   C13943687   0.952   4.775   7.440  0.1687 -0.0252  0.4088
  115MOL   C14043688   1.074   4.716   7.512 -0.2071 -0.5969 -0.4513
  115MOL   C14143689   1.082   4.743   7.664  0.0981  0.0259 -0.3283
  115MOL   H14243690   0.700   4.954   7.125  0.1964 -0.7854  0.0320
  115MOL   H14343691   0.881   4.973   7.106  0.7974  0.1147 -2.4477
  115MOL   H14443692   0.890   4.737   7.053  1.5506  1.6614  1.6802
  115MOL   H14543693   1.019   4.836   7.245  1.0281 -1.6150 -0.4231
  115MOL   H14643694   0.992   4.661   7.254 -0.4132  0.9133 -0.9334
  115MOL   H14743695   0.868   4.714   7.474  1.2275 -1.3307  0.7573
  115MOL   H14843696   0.942   4.878   7.472 -1.6055 -0.5063  1.5187
  115MOL   H14943697   1.072   4.607   7.510  1.6395 -0.6155 -2.6757
  115MOL   H15043698   1.167   4.742   7.462  0.7438  1.6470  2.3915
  115MOL   H15143699   1.164   4.686   7.708  0.5019 -0.6441 -1.8935
  115MOL   H15243700   1.106   4.846   7.689  1.6899 -0.1008 -1.2053
  115MOL   H15343701   0.983   4.726   7.706  0.2064 -1.0329 -0.4795
  115MOL   C15443702   0.663   4.709   7.082 -0.2312 -0.5911 -0.5995
  115MOL   C15543703   0.652   4.556   7.110 -0.2255 -0.8334 -0.8296
  115MOL   O15643704   0.745   4.495   7.021  0.0760 -0.1309 -0.0440
  115MOL   C15743705   0.853   4.434   7.082 -0.0654  0.1913 -0.6762
  115MOL   C15843706   0.976   4.416   6.986 -0.5139 -0.2868 -0.6177
  115MOL   C15943707   0.940   4.323   6.866 -0.1606  0.3801  0.7936
  115MOL   C16043708   1.071   4.276   6.798 -0.0135 -0.1114  0.3105
  115MOL   H16143709   0.634   4.714   6.977 -1.4447  1.8475 -0.1677
  115MOL   H16243710   0.584   4.763   7.133  0.7832  1.7608 -1.4590
  115MOL   H16343711   0.669   4.547   7.217  0.4418  1.6114 -0.7069
  115MOL   H16443712   0.879   4.491   7.172 -2.1569  0.6662 -0.3393
  115MOL   H16543713   0.829   4.336   7.123 -0.0644  0.8388  0.9283
  115MOL   H16643714   1.062   4.375   7.040 -0.8103  0.9687  0.8336
  115MOL   H16743715   1.006   4.514   6.949 -2.8981  0.9975  0.7278
  115MOL   H16843716   0.893   4.230   6.898  1.8067 -1.3867 -1.2485
  115MOL   H16943717   0.867   4.376   6.805 -0.3237 -1.1371 -0.3819
  115MOL   H17043718   1.041   4.217   6.712  0.4998 -0.2185  0.2044
  115MOL   H17143719   1.126   4.360   6.756  1.3437 -0.4624  1.3544
  115MOL   H17243720   1.145   4.219   6.855 -0.8620 -1.0232  0.5117
  115MOL   C17343721   0.513   4.492   7.076 -0.0509  0.4196 -1.1269
  115MOL   C17443722   0.494   4.347   7.126 -0.1343 -0.2475 -0.4042
  115MOL   O17543723   0.469   4.353   7.264  0.0139 -0.2803 -0.7713
  115MOL   C17643724   0.554   4.269   7.340 -0.0256 -0.2918  0.0406
  115MOL   C17743725   0.562   4.321   7.491 -0.2655 -0.4891 -0.4838
  115MOL   C17843726   0.682   4.421   7.503  0.1171 -0.5499 -0.3492
  115MOL   C17943727   0.697   4.482   7.641 -0.3458 -0.0737 -0.6660
  115MOL   H18043728   0.510   4.493   6.967 -1.2506  0.5413 -1.1021
  115MOL   H18143729   0.423   4.538   7.116 -0.6158  0.8758 -2.8904
  115MOL   H18243730   0.582   4.286   7.106  1.1672  0.4615  2.7944
  115MOL   H18343731   0.656   4.255   7.306  0.2224 -0.5712  0.8902
  115MOL   H18443732   0.516   4.168   7.329 -1.8393  0.2390  1.1427
  115MOL   H18543733   0.583   4.232   7.551  1.0499 -0.1380 -0.4043
  115MOL   H18643734   0.470   4.368   7.526  1.2250  1.6707  0.6547
  115MOL   H18743735   0.777   4.374   7.475  0.4816 -0.0559  0.0542
  115MOL   H18843736   0.649   4.493   7.428  1.0571 -0.3248 -0.5477
  115MOL   H18943737   0.617   4.550   7.669 -0.1764 -1.1799  2.7677
  115MOL   H19043738   0.694   4.400   7.713  1.6761 -1.1295 -1.7450
  115MOL   H19143739   0.781   4.550   7.652  1.2481 -2.3653  2.0894
  115MOL   C19243740   0.361   4.290   7.056  0.0794 -0.1856 -0.0235
  115MOL   C19343741   0.394   4.214   6.927 -0.1335  0.4711  0.3913
  115MOL   O19443742   0.471   4.108   6.984  0.0014  0.5380  0.3992
  115MOL   C19543743   0.578   4.064   6.901 -0.5929 -0.4079  0.3713
  115MOL   C19643744   0.661   3.953   6.964  0.0523  0.8098 -0.7377
  115MOL   C19743745   0.687   3.977   7.114 -0.0478 -0.0239 -0.0273
  115MOL   C19843746   0.736   3.843   7.181 -0.3035 -0.0450  0.2786
  115MOL   H19943747   0.285   4.368   7.052 -1.1782 -1.3396  0.7946
  115MOL   H20043748   0.324   4.214   7.125 -0.3194 -0.7046 -0.8063
  115MOL   H20143749   0.450   4.283   6.864 -3.0506  1.4029 -1.2737
  115MOL   H20243750   0.654   4.140   6.882 -1.7581  0.6656 -0.0910
  115MOL   H20343751   0.538   4.034   6.803  1.6937 -0.2905 -0.6199
  115MOL   H20443752   0.597   3.865   6.958 -2.4430  2.4901  0.2914
  115MOL   H20543753   0.751   3.923   6.910 -0.2309  0.1926 -0.8765
  115MOL   H20643754   0.599   4.011   7.169  0.1512 -1.7183  1.3814
  115MOL   H20743755   0.767   4.050   7.119  0.2914 -0.4024  0.1260
  115MOL   H20843756   0.656   3.770   7.193  0.5042 -0.7414  1.4392
  115MOL   H20943757   0.822   3.794   7.136 -1.0109 -1.7646  0.7861
  115MOL   H21043758   0.766   3.861   7.284 -1.6543  0.6029  0.5692
  115MOL   C21143759   0.267   4.162   6.856 -0.3887  0.9870 -0.3043
  115MOL   C21243760   0.167   4.273   6.807 -0.0093  0.5530 -0.2640
  115MOL   O21343761   0.229   4.387   6.758  0.3005 -0.7484 -0.5645
  115MOL   C21443762   0.166   4.510   6.800  0.6963  0.1550  0.0617
  115MOL   C21543763   0.220   4.630   6.722  0.2341 -0.1772  0.7588
  115MOL   C21643764   0.140   4.750   6.755 -0.1661  0.3000  0.0042
  115MOL   C21743765   0.195   4.872   6.684 -0.4052 -0.0325  1.1917
  115MOL   H21843766   0.222   4.080   6.914  3.8478  0.2282  2.0972
  115MOL   H21943767   0.306   4.116   6.765 -0.8134 -0.0900  0.0478
  115MOL   H22043768   0.101   4.295   6.891  1.1641  1.1935  0.4997
  115MOL   H22143769   0.059   4.510   6.782  0.5269 -1.4355  1.0012
  115MOL   H22243770   0.183   4.531   6.906 -1.2596  0.5417  0.3175
  115MOL   H22343771   0.324   4.638   6.755  1.2512 -0.0993 -2.2695
  115MOL   H22443772   0.241   4.620   6.615 -1.4332 -1.3029  0.5264
  115MOL   H22543773   0.143   4.768   6.862  0.9222  0.8238 -0.1115
  115MOL   H22643774   0.041   4.728   6.717  0.1410  0.6365 -1.0245
  115MOL   H22743775   0.303   4.888   6.684 -0.6344  1.7372 -0.3780
  115MOL   H22843776   0.161   4.968   6.723 -1.5535  0.4041 -0.8061
  115MOL   H22943777   0.183   4.853   6.577  2.3867 -0.5723  0.9304
  115MOL   C23043778   0.065   4.224   6.703 -0.2169  0.5816 -0.1574
  115MOL   C23143779   7.776   4.111   6.754 -0.0850 -0.3526  0.0419
  115MOL   O23243780   7.711   4.147   6.880  0.2907 -0.4107  0.1633
  115MOL   C23343781   7.698   4.034   6.966  0.0185 -0.1458 -0.2165
  115MOL   C23443782   7.661   4.088   7.106  0.1646  0.2160  0.6121
  115MOL   C23543783   7.537   4.178   7.114  0.6272  0.1994 -0.2352
  115MOL   C23643784   7.514   4.210   7.259  0.1191 -0.2368 -0.5384
  115MOL   H23743785   0.126   4.197   6.617  0.4060 -1.8095  0.9941
  115MOL   H23843786   0.010   4.316   6.682 -2.8547 -1.1060 -1.0060
  115MOL   H23943787   0.043   4.030   6.780 -0.6895 -0.6614  0.6993
  115MOL   H24043788   7.617   3.968   6.937  0.7328 -0.8620 -0.6257
  115MOL   H24143789   7.791   3.978   6.980  0.7894  1.0932 -0.2556
  115MOL   H24243790   7.634   4.001   7.165 -0.8044 -0.7885 -1.2376
  115MOL   H24343791   7.744   4.140   7.153  0.7759 -0.7818  0.6486
  115MOL   H24443792   7.441   4.141   7.079 -0.3049  0.8330  1.6312
  115MOL   H24543793   7.561   4.266   7.054  0.9327  1.1540  1.2751
  115MOL   H24643794   7.465   4.127   7.309 -2.7012  2.4958  1.3996
  115MOL   H24743795   7.446   4.295   7.263  0.5575  0.1234 -0.6800
  115MOL   H24843796   7.597   4.242   7.322 -1.4727  2.9543  0.0703
  115MOL   C24943797   7.664   4.069   6.657 -0.1479  0.3888  0.2003
  115MOL   C25043798   7.709   4.039   6.509 -0.0856  0.2140  0.1179
  115MOL   O25143799   7.712   4.162   6.439 -0.0740  0.7355 -0.3759
  115MOL   C25243800   7.798   4.178   6.327 -0.5139 -0.1159 -0.1636
  115MOL   C25343801   0.004   4.318   6.279 -0.3923 -0.2585  0.4518
  115MOL   C25443802   0.034   4.417   6.388 -0.0375  0.0529 -0.3925
  115MOL   C25543803   0.062   4.562   6.342  0.8360  0.4587 -0.0989
  115MOL   H25643804   7.594   4.152   6.650  0.8680  1.3150  1.0594
  115MOL   H25743805   7.612   3.981   6.695 -1.8473  1.0380 -0.5652
  115MOL   H25843806   0.004   3.991   6.519  0.0933  0.5004 -0.2391
  115MOL   H25943807   7.758   4.116   6.247 -0.3244 -1.7760  1.0136
  115MOL   H26043808   0.099   4.148   6.347 -0.0663 -0.0249 -2.1866
  115MOL   H26143809   0.071   4.338   6.195 -1.5688 -3.0117 -1.1945
  115MOL   H26243810   7.706   4.347   6.245 -0.5636 -0.0811  1.0836
  115MOL   H26343811   7.749   4.428   6.453 -0.4818 -0.7417 -0.8486
  115MOL   H26443812   0.122   4.385   6.444  0.1444  0.7758 -0.2634
  115MOL   H26543813   0.161   4.562   6.297  1.2108 -1.1607  0.6923
  115MOL   H26643814   0.042   4.630   6.424  0.8757  0.7068 -0.2910
  115MOL   H26743815   7.789   4.597   6.270  1.6319  0.8895 -0.7196
  115MOL   C26843816   7.598   3.952   6.439  0.4234 -0.8575 -0.2707
  115MOL   C26943817   7.605   3.795   6.449 -0.2949 -0.5737  0.1751
  115MOL   O27043818   7.478   3.744   6.405  0.2833  0.2291  0.2034
  115MOL   C27143819   7.402   3.692   6.509  0.5417 -0.0864  0.2359
  115MOL   C27243820   7.272   3.626   6.466  0.2520  0.2394 -0.7365
  115MOL   C27343821   7.290   3.494   6.391 -0.5951 -0.3028 -0.2199
  115MOL   C27443822   7.156   3.452   6.329  0.0364  0.0411  0.0974
  115MOL   H27543823   7.502   3.990   6.473  0.1028 -0.3154 -1.7329
  115MOL   H27643824   7.609   3.969   6.332  0.0302 -2.6133 -0.5891
  115MOL   H27743825   7.632   3.769   6.552 -0.5692  2.1987  0.9830
  115MOL   H27843826   7.449   3.613   6.568  1.4914  1.1875  1.2269
  115MOL   H27943827   7.396   3.784   6.568  0.5953  0.9219 -1.3022
  115MOL   H28043828   7.204   3.615   6.551 -2.4247 -1.4332 -2.9972
  115MOL   H28143829   7.227   3.701   6.401 -0.1920 -0.8939 -1.7549
  115MOL   H28243830   7.340   3.419   6.453 -2.8987 -1.1802  0.6381
  115MOL   H28343831   7.352   3.526   6.308 -0.0097 -0.7487  0.0430
  115MOL   H28443832   7.127   3.535   6.265  0.5270  0.4576  0.4200
  115MOL   H28543833   7.077   3.445   6.404 -2.7475 -0.7646 -2.7829
  115MOL   H28643834   7.166   3.355   6.279  0.6872  0.0416  0.2280
  115MOL   C28743835   7.721   3.743   6.363 -0.4783 -0.1698 -0.4790
  115MOL   C28843836   7.732   3.587   6.353  0.4703  1.1762 -0.2604
  115MOL   O28943837   0.011   3.548   6.466 -0.2096  0.0558 -0.3502
  115MOL   C29043838   7.775   3.432   6.540 -0.0810 -0.1060  0.3636
  115MOL   C29143839   0.035   3.440   6.679 -0.1390 -0.5532 -0.0436
  115MOL   C29243840   7.796   3.331   6.782  0.5858 -0.2254 -0.5969
  115MOL   C29343841   0.084   3.339   6.902 -0.6504 -0.4464 -0.1052
  115MOL   H29443842   0.022   3.777   6.379 -0.1314 -0.5473 -1.7960
  115MOL   H29543843   7.700   3.780   6.262  0.7597  0.1050 -0.6458
  115MOL   H29643844   7.633   3.546   6.372  0.1927  2.4411  1.0957
  115MOL   H29743845   7.669   3.419   6.561  0.2570 -1.5844  1.2992
  115MOL   H29843846   0.008   3.341   6.490 -0.8824 -0.6363  0.7608
  115MOL   H29943847   0.008   3.533   6.728  1.2401 -0.7741  1.1683
  115MOL   H30043848   0.142   3.458   6.677 -0.4904  1.5761 -1.0312
  115MOL   H30143849   0.001   3.235   6.731 -2.7520 -1.4413  1.1311
  115MOL   H30243850   7.691   3.335   6.810  0.3681 -1.5870 -1.1636
  115MOL   H30343851   0.186   3.308   6.877 -1.5729 -2.4817 -1.4808
  115MOL   H30443852   0.090   3.441   6.937 -1.6694 -1.6315  3.6850
  115MOL   H30543853   0.044   3.280   6.984 -0.9470  1.7550  1.3435
  115MOL   C30643854   0.001   3.540   6.227  0.3418 -1.0315 -0.0222
  115MOL   C30743855   7.751   3.402   6.178 -0.7160  0.2780 -0.6678
  115MOL   O30843856   0.026   3.365   6.065 -0.1497  0.2950 -0.2609
  115MOL   C30943857   0.133   3.267   6.082 -0.1800  0.5935  0.9093
  115MOL   C31043858   0.192   3.242   5.944 -0.4122 -0.1384  0.5395
  115MOL   C31143859   0.226   3.086   5.935 -0.8828  0.4311 -0.4367
  115MOL   C31243860   0.309   3.036   5.823  0.3724  0.2366  0.2550
  115MOL   H31343861   7.787   3.612   6.147 -1.3024 -2.2981 -0.8637
  115MOL   H31443862   0.107   3.542   6.251  0.2786 -0.4011  0.2098
  115MOL   H31543863   7.762   3.328   6.258 -0.3855 -0.6163 -1.5308
  115MOL   H31643864   0.092   3.173   6.118  0.5344 -0.0660  0.0499
  115MOL   H31743865   0.212   3.295   6.152  0.6115 -2.0586  1.1377
  115MOL   H31843866   0.282   3.303   5.928  0.1692 -1.2017 -0.3286
  115MOL   H31943867   0.116   3.258   5.868  0.5533  0.3535 -0.3386
  115MOL   H32043868   0.286   3.064   6.023  1.0133 -4.7522 -2.8335
  115MOL   H32143869   0.128   3.040   5.947 -1.5931  1.8099 -0.8165
  115MOL   H32243870   0.264   3.080   5.735  4.3260  3.0213 -0.4795
  115MOL   H32343871   0.303   2.927   5.817 -0.7170  0.2762  0.5813
  115MOL   H32443872   0.414   3.064   5.833  0.6451 -0.8333  0.5112
  115MOL   C32543873   7.607   3.402   6.132  0.3833 -0.1898  0.2014
  115MOL   C32643874   7.553   3.266   6.098  0.5015 -0.4397  0.0138
  115MOL   O32743875   7.512   3.216   6.222 -0.8361  0.2986 -0.2522
  115MOL   C32843876   7.495   3.072   6.234 -0.1826 -0.9615  0.4799
  115MOL   C32943877   7.441   3.037   6.373  0.5930  1.0037  0.3526
  115MOL   C33043878   7.530   3.071   6.493 -0.3220 -0.5066 -0.3567
  115MOL   C33143879   7.472   3.043   6.631 -0.8613 -0.4740 -0.4689
  115MOL   H33243880   7.596   3.467   6.045  0.7834 -0.1309  0.1945
  115MOL   H33343881   7.549   3.445   6.213  1.1735  1.4776 -0.0947
  115MOL   H33443882   7.626   3.206   6.045  0.3782  0.6611 -1.4506
  115MOL   H33543883   7.591   3.021   6.224  1.8575  2.5067  1.4601
  115MOL   H33643884   7.433   3.035   6.152 -0.9699  0.6895  0.3046
  115MOL   H33743885   7.345   3.086   6.388  0.6664  1.7065 -1.3786
  115MOL   H33843886   7.435   2.928   6.371 -0.3953  1.0756 -1.2724
  115MOL   H33943887   7.535   3.179   6.484 -1.4254 -0.3804  0.5088
  115MOL   H34043888   7.631   3.030   6.487 -0.4624 -0.7102 -1.7135
  115MOL   H34143889   7.458   2.941   6.668 -0.8867 -0.6367 -0.9334
  115MOL   H34243890   7.377   3.097   6.633 -0.0036  1.0511 -0.0750
  115MOL   H34343891   7.535   3.095   6.703  0.4507 -0.4292 -1.6455
  115MOL   C34443892   7.428   3.280   6.000 -0.5123  0.5027  0.3427
  115MOL   C34543893   7.467   3.248   5.855 -0.2018  0.7242  0.1198
  115MOL   O34643894   7.513   3.366   5.790  0.1928  0.0742 -0.2161
  115MOL   C34743895   7.646   3.368   5.752 -0.0029  0.2855 -0.7336
  115MOL   C34843896   7.676   3.484   5.656 -0.1250  0.2370 -0.2840
  115MOL   C34943897   7.790   3.441   5.561 -0.4374 -0.1684 -0.2380
  115MOL   C35043898   0.021   3.541   5.444  0.0770 -0.2798  0.6821
  115MOL   H35143899   7.354   3.212   6.042  2.6360 -0.9334  3.9007
  115MOL   H35243900   7.379   3.377   5.996 -1.6192 -0.0654  0.1473
  115MOL   H35343901   7.533   3.161   5.858 -1.4943 -0.3003 -0.3409
  115MOL   H35443902   7.672   3.272   5.708 -2.0787 -0.3576 -0.5772
  115MOL   H35543903   7.711   3.370   5.840 -1.5604  0.1925  0.4423
  115MOL   H35643904   7.707   3.576   5.705  1.0366  0.2202 -0.9626
  115MOL   H35743905   7.590   3.486   5.589 -1.4895 -1.0577  1.3843
  115MOL   H35843906   0.081   3.430   5.617 -0.4780 -0.2408 -0.1851
  115MOL   H35943907   7.773   3.344   5.515  3.4035  0.3205 -2.9101
  115MOL   H36043908   0.115   3.506   5.402 -0.1686 -0.7781  0.5438
  115MOL   H36143909   0.043   3.643   5.474  1.8835 -0.6391  0.6320
  115MOL   H36243910   7.748   3.558   5.366  1.0433 -3.0105 -0.9224
  115MOL   C36343911   7.334   3.201   5.783  0.3824  0.7572  0.9076
  115MOL   C36443912   7.348   3.180   5.629  0.2268 -0.4125  0.2121
  115MOL   O36543913   7.222   3.159   5.570 -0.2980  0.4848 -0.0060
  115MOL   C36643914   7.227   3.164   5.425 -0.6121 -0.0331 -0.4337
  115MOL   C36743915   7.085   3.161   5.370  0.5995  0.3193 -0.0423
  115MOL   C36843916   6.985   3.265   5.421  0.1233 -0.2210 -0.8560
  115MOL   C36943917   6.848   3.262   5.351 -1.0060 -0.4344  0.1969
  115MOL   H37043918   7.270   3.288   5.792  1.1888  1.1836  2.8105
  115MOL   H37143919   7.291   3.112   5.829 -1.4774  0.5973 -1.0847
  115MOL   H37243920   7.419   3.101   5.605  0.1423  0.0641 -1.7085
  115MOL   H37343921   7.278   3.074   5.393  3.9632  2.3458 -0.3262
  115MOL   H37443922   7.282   3.249   5.383  1.3498  0.1995  2.3915
  115MOL   H37543923   7.045   3.062   5.390 -0.7053  1.0764  1.2046
  115MOL   H37643924   7.077   3.164   5.262 -1.3426 -1.3338  0.0201
  115MOL   H37743925   7.016   3.369   5.416  0.6616 -0.4099 -1.4262
  115MOL   H37843926   6.966   3.257   5.528 -0.2998 -0.7895 -0.9722
  115MOL   H37943927   6.786   3.350   5.370 -2.2590 -0.7277 -2.2662
  115MOL   H38043928   6.853   3.257   5.242 -0.3608 -0.4958  0.2256
  115MOL   H38143929   6.783   3.181   5.384 -0.0093 -0.9642  0.8932
  115MOL   H38243930   7.388   3.278   5.602 -1.9898  0.1213 -1.3517
  116MOL     C143931   6.039   4.885   3.250 -0.3929 -0.3336  0.0811
  116MOL     C243932   6.107   4.787   3.345 -1.2533  0.8603  0.1601
  116MOL     O343933   6.005   4.704   3.405 -0.0453 -0.2179 -0.0578
  116MOL     C443934   5.931   4.764   3.511 -0.0753  0.0830  0.6981
  116MOL     C543935   5.890   4.663   3.614  0.7544  0.8161  0.9116
  116MOL     C643936   5.808   4.541   3.555  0.5061 -0.1269 -0.4464
  116MOL     C743937   5.774   4.433   3.660  0.3356 -0.2084 -0.6704
  116MOL     H843938   5.960   4.943   3.299  1.1381  0.4063  1.7490
  116MOL     H943939   6.109   4.964   3.223  1.1645 -2.3492 -1.8738
  116MOL    H1043940   6.160   4.842   3.423 -0.7132  3.3770 -1.9217
  116MOL    H1143941   5.989   4.831   3.574  1.3867 -0.5476  0.0325
  116MOL    H1243942   5.850   4.824   3.469  1.1823  1.8005  0.6878
  116MOL    H1343943   5.828   4.709   3.691 -1.3051  0.1422 -0.3005
  116MOL    H1443944   5.981   4.621   3.657 -0.4032 -2.8498 -0.0773
  116MOL    H1543945   5.860   4.485   3.477  2.5195 -0.2694  0.9563
  116MOL    H1643946   5.716   4.577   3.509  0.1847 -1.6936 -1.0781
  116MOL    H1743947   5.721   4.356   3.604  1.2000 -0.8583 -0.5984
  116MOL    H1843948   5.716   4.474   3.743 -0.3462 -0.4625 -1.0170
  116MOL    H1943949   5.874   4.400   3.688  0.0808  0.1228  0.6343
  116MOL    H2043950   5.991   4.833   3.168  0.1490  0.4310 -0.7253
  116MOL    C2143951   6.192   4.699   3.249  0.0312 -0.1820 -0.3737
  116MOL    C2243952   6.314   4.757   3.198 -0.0060  0.7027 -0.2398
  116MOL    O2343953   6.401   4.791   3.302  0.2876  0.2944 -0.3819
  116MOL    C2443954   6.413   4.924   3.337  0.2717 -0.4088  0.4695
  116MOL    C2543955   6.505   4.934   3.458 -0.4208  0.0081 -0.0716
  116MOL    C2643956   6.462   4.863   3.581  0.2167  0.1760 -1.1209
  116MOL    C2743957   6.532   4.896   3.713  0.1893  0.0015  0.1242
  116MOL    H2843958   6.144   4.634   3.175  0.8016 -0.5876 -0.5216
  116MOL    H2943959   6.227   4.626   3.322 -0.3582  0.6226  0.6318
  116MOL    H3043960   6.280   4.832   3.126 -1.0466 -0.5886 -1.1210
  116MOL    H3143961   6.314   4.971   3.346  0.6014  0.4504 -0.2880
  116MOL    H3243962   6.455   4.976   3.251  0.1499  0.9493  1.2265
  116MOL    H3343963   6.602   4.899   3.422 -0.2970  0.5206 -0.2389
  116MOL    H3443964   6.499   5.042   3.468 -0.6471 -0.0417  0.3381
  116MOL    H3543965   6.356   4.868   3.603 -0.2274 -1.2118 -2.8307
  116MOL    H3643966   6.469   4.757   3.557  0.6931  0.1168 -0.7331
  116MOL    H3743967   6.632   4.936   3.701  0.0181  0.1189 -0.9781
  116MOL    H3843968   6.468   4.972   3.758 -0.9069 -0.9124  0.1343
  116MOL    H3943969   6.530   4.803   3.770  3.2549 -0.4670 -0.4833
  116MOL    C4043970   6.386   4.670   3.094 -0.4491 -0.4057  0.1507
  116MOL    C4143971   6.484   4.751   3.012 -0.4524  0.3812 -0.2611
  116MOL    O4243972   6.408   4.837   2.925 -0.1239 -0.0801  0.2316
  116MOL    C4343973   6.476   4.953   2.886  0.6128 -0.0168  0.1008
  116MOL    C4443974   6.382   5.035   2.797  0.0958  0.6068 -0.4007
  116MOL    C4543975   6.262   5.092   2.877  0.0210  0.2253 -0.1251
  116MOL    C4643976   6.171   5.181   2.792 -0.3870 -0.4660 -0.5710
  116MOL    H4743977   6.323   4.619   3.021  2.3810 -4.1856  0.1972
  116MOL    H4843978   6.447   4.592   3.140  0.7610  1.3670  1.6142
  116MOL    H4943979   6.553   4.806   3.076  0.7097 -0.1525 -1.0302
  116MOL    H5043980   6.557   4.925   2.818  1.0736 -0.8545  0.9831
  116MOL    H5143981   6.514   5.007   2.972 -1.6841  1.3189  0.3157
  116MOL    H5243982   6.347   4.970   2.716  1.3691  0.9531 -1.2432
  116MOL    H5343983   6.443   5.109   2.746  1.9224 -1.3521 -1.1171
  116MOL    H5443984   6.310   5.159   2.948  2.0788 -2.2465  0.9122
  116MOL    H5543985   6.201   5.021   2.933  1.7841 -0.9118  0.3888
  116MOL    H5643986   6.119   5.117   2.720 -1.5472 -1.4454  1.0850
  116MOL    H5743987   6.095   5.234   2.850  2.6664  1.2511  2.0278
  116MOL    H5843988   6.227   5.263   2.747 -1.0312  0.5963  0.5269
  116MOL    C5943989   6.565   4.655   2.918  0.0630 -0.4459  0.1551
  116MOL    C6043990   6.708   4.594   2.967 -0.9049  0.1560  0.6918
  116MOL    O6143991   6.742   4.489   2.875  0.4174 -0.0177 -0.1896
  116MOL    C6243992   6.685   4.360   2.893 -0.1000 -0.0951 -0.5154
  116MOL    C6343993   6.724   4.265   2.780 -0.4377 -0.4576  0.5936
  116MOL    C6443994   6.626   4.142   2.761  0.0387 -0.7587 -0.5317
  116MOL    C6543995   6.513   4.185   2.663  0.4606 -0.0882  0.0827
  116MOL    H6643996   6.492   4.580   2.887 -0.0250 -0.9532  1.5475
  116MOL    H6743997   6.581   4.703   2.821  0.2217  1.0837  0.9244
  116MOL    H6843998   6.704   4.542   3.062 -1.0736  1.0357  1.1671
  116MOL    H6943999   6.576   4.364   2.894 -0.1745 -1.6715 -0.5111
  116MOL    H7044000   6.715   4.316   2.988  0.1057 -0.1782 -0.6179
  116MOL    H7144001   6.748   4.318   2.688  2.5355  0.2607  1.7347
  116MOL    H7244002   6.819   4.221   2.810 -0.3087  0.0628  0.9468
  116MOL    H7344003   6.685   4.062   2.715 -2.7285 -2.1562 -1.7963
  116MOL    H7444004   6.585   4.095   2.851 -0.5639  0.1413 -0.3307
  116MOL    H7544005   6.473   4.281   2.696 -1.1134 -0.9537  0.7538
  116MOL    H7644006   6.560   4.203   2.567 -1.8894  0.6415 -0.9683
  116MOL    H7744007   6.435   4.110   2.653  0.8374 -0.4210 -0.3425
  116MOL    C7844008   6.823   4.696   2.954  0.5974 -0.0092 -0.0305
  116MOL    C7944009   6.950   4.657   3.035 -0.1605  0.1206  0.1469
  116MOL    O8044010   6.925   4.644   3.175  0.5434 -0.2083 -0.1693
  116MOL    C8144011   6.929   4.512   3.229 -1.0113 -0.2244 -0.6386
  116MOL    C8244012   6.861   4.511   3.362  0.5121 -0.4131  0.3083
  116MOL    C8344013   6.707   4.507   3.348 -0.9618  0.7955 -0.5415
  116MOL    C8444014   6.640   4.486   3.481 -0.2558 -0.1342  0.0776
  116MOL    H8544015   6.778   4.788   2.991  0.0804  0.1830 -1.1268
  116MOL    H8644016   6.853   4.718   2.852  0.1056  0.6072 -0.0458
  116MOL    H8744017   6.979   4.560   2.995 -0.3667  0.1106  0.0189
  116MOL    H8844018   7.030   4.479   3.253 -1.6525  0.0596  2.6846
  116MOL    H8944019   6.891   4.444   3.154  0.0374 -0.7210 -0.7290
  116MOL    H9044020   6.886   4.425   3.424 -2.1837 -2.1589 -0.9238
  116MOL    H9144021   6.885   4.603   3.415 -1.0892  0.6863 -0.8142
  116MOL    H9244022   6.675   4.436   3.272  0.2845  1.4722 -1.7034
  116MOL    H9344023   6.664   4.600   3.312  1.3891  1.4068 -1.8349
  116MOL    H9444024   6.612   4.583   3.522  1.8112  0.3672  0.3888
  116MOL    H9544025   6.542   4.440   3.481 -0.6903  0.7770 -0.3829
  116MOL    H9644026   6.708   4.437   3.551 -1.4081 -2.6820 -0.5169
  116MOL    C9744027   7.077   4.758   3.028  0.2361  0.6216 -0.6733
  116MOL    C9844028   7.200   4.688   3.070 -0.4118  0.1513 -0.2105
  116MOL    O9944029   7.218   4.577   2.979  0.9154 -0.3896 -0.2279
  116MOL   C10044030   7.305   4.475   3.014 -0.2193  1.0027  0.1792
  116MOL   C10144031   7.304   4.368   2.904  0.5024 -0.5383 -0.0433
  116MOL   C10244032   7.354   4.415   2.764 -0.0421 -0.1064 -0.4281
  116MOL   C10344033   7.356   4.304   2.660 -0.5404 -1.1268 -0.4768
  116MOL   H10444034   7.048   4.846   3.085 -2.3132 -0.4204 -0.2795
  116MOL   H10544035   7.092   4.799   2.928 -0.9905  2.8024 -0.0033
  116MOL   H10644036   7.176   4.643   3.167 -0.2551  0.6455  0.0608
  116MOL   H10744037   7.284   4.431   3.112  0.2217 -1.8408 -0.9549
  116MOL   H10844038   7.406   4.512   3.025 -0.1735  0.4628  1.7072
  116MOL   H10944039   7.202   4.332   2.886 -0.0709  0.8761  0.2824
  116MOL   H11044040   7.347   4.272   2.931 -0.1755 -0.6683  0.5985
  116MOL   H11144041   7.455   4.452   2.777  0.3273 -0.6570 -1.7211
  116MOL   H11244042   7.302   4.500   2.721 -0.3461 -0.2563 -0.3655
  116MOL   H11344043   7.257   4.266   2.637 -0.9567 -0.4276  0.1425
  116MOL   H11444044   7.411   4.346   2.576  0.1778  0.1876  0.6230
  116MOL   H11544045   7.398   4.212   2.703  0.1166 -0.9721 -0.7744
  116MOL   C11644046   7.316   4.779   3.104 -0.2483  0.2689 -0.2114
  116MOL   C11744047   7.370   4.881   3.000 -0.7483 -0.1631 -0.2428
  116MOL   O11844048   7.460   4.952   3.076  0.0364 -0.4759  0.0169
  116MOL   C11944049   7.446   5.090   3.085  0.3833  0.5030  0.2378
  116MOL   C12044050   7.329   5.119   3.181  0.8562 -0.3383  0.2539
  116MOL   C12144051   7.308   5.274   3.204  0.1490 -0.1838 -0.0724
  116MOL   C12244052   7.198   5.307   3.311  0.6805  0.9055  0.7114
  116MOL   H12344053   7.282   4.835   3.191 -2.0906  2.0597 -2.0435
  116MOL   H12444054   7.400   4.721   3.143  0.7527  1.2781 -0.8524
  116MOL   H12544055   7.288   4.934   2.952 -1.8937 -3.0250 -1.5628
  116MOL   H12644056   7.419   5.131   2.988  1.0677 -0.9759 -0.5799
  116MOL   H12744057   7.540   5.135   3.116  1.5663  0.8455 -3.5976
  116MOL   H12844058   7.345   5.068   3.276 -0.0498  1.1860  1.2446
  116MOL   H12944059   7.235   5.075   3.147 -0.6575  0.5491  3.1131
  116MOL   H13044060   7.407   5.321   3.208  0.4881 -0.7780 -1.3331
  116MOL   H13144061   7.270   5.300   3.106  0.5665 -0.5011 -0.3216
  116MOL   H13244062   7.102   5.257   3.312  1.0533  0.1189 -1.0886
  116MOL   H13344063   7.187   5.415   3.302 -0.1366  0.6716 -1.2633
  116MOL   H13444064   7.238   5.284   3.410  2.9999  1.4907 -0.0502
  116MOL   C13544065   7.445   4.812   2.883  0.1436  0.4561  0.3234
  116MOL   C13644066   7.431   4.891   2.745  0.7280 -0.2217  0.4627
  116MOL   O13744067   7.529   4.840   2.656 -0.0553 -0.6849  0.3478
  116MOL   C13844068   7.644   4.919   2.651 -0.4671 -0.4110 -0.2137
  116MOL   C13944069   7.725   4.852   2.545 -0.8266 -0.3111  0.1025
  116MOL   C14044070   7.684   4.884   2.398 -0.2317  0.2768 -0.0404
  116MOL   C14144071   7.729   5.019   2.363  0.0105  0.5525 -0.7102
  116MOL   H14244072   7.425   4.707   2.864  2.0405  0.0381  0.5916
  116MOL   H14344073   7.550   4.812   2.909  1.0381  1.9650 -2.9321
  116MOL   H14444074   7.448   4.996   2.771 -0.2336  0.0404  0.0517
  116MOL   H14544075   7.697   4.913   2.746  1.8008 -0.1488 -1.4128
  116MOL   H14644076   7.614   5.021   2.632  2.5791  0.2791 -1.7266
  116MOL   H14744077   7.724   4.744   2.561 -1.3629 -0.2279  0.6455
  116MOL   H14844078   0.023   4.889   2.567 -1.6157  1.3986  0.8663
  116MOL   H14944079   7.722   4.812   2.326 -0.1351  1.1873 -0.8995
  116MOL   H15044080   7.575   4.875   2.389 -0.0489 -0.4247 -1.5831
  116MOL   H15144081   0.031   5.033   2.394  0.7346 -1.8528 -1.9209
  116MOL   H15244082   7.723   5.047   2.258  1.3267 -0.1099 -0.9779
  116MOL   H15344083   7.671   5.084   2.429 -1.2275 -1.4692  0.2601
  116MOL   C15444084   7.294   4.875   2.675 -0.4772 -0.5155 -0.5942
  116MOL   C15544085   7.281   4.973   2.555 -0.2239 -0.7298  0.1680
  116MOL   O15644086   7.257   5.103   2.611 -0.3858 -0.0543  0.3871
  116MOL   C15744087   7.336   5.207   2.561  0.5290  0.6611 -1.0534
  116MOL   C15844088   7.272   5.329   2.627 -0.6154 -0.5415 -0.0349
  116MOL   C15944089   7.136   5.370   2.568  0.7270 -0.2220 -0.3260
  116MOL   C16044090   7.085   5.494   2.644  0.6072  0.4310 -0.0487
  116MOL   H16144091   7.210   4.897   2.740 -1.1315  1.3049 -2.0247
  116MOL   H16244092   7.279   4.769   2.652  0.5634 -0.5708 -1.0741
  116MOL   H16344093   7.363   4.955   2.486  0.5065  0.6356  0.6569
  116MOL   H16444094   7.435   5.183   2.600  0.5176  1.2856 -0.6312
  116MOL   H16544095   7.319   5.190   2.455  1.7794  1.3153 -1.3731
  116MOL   H16644096   7.343   5.411   2.618  0.7602 -1.7169 -0.0648
  116MOL   H16744097   7.263   5.299   2.731 -0.4397 -1.5028 -0.2834
  116MOL   H16844098   7.143   5.385   2.461  0.0623  2.5426 -0.0282
  116MOL   H16944099   7.066   5.292   2.597  2.0159 -0.9714  0.8536
  116MOL   H17044100   7.080   5.475   2.752 -0.3339 -1.7749 -0.4541
  116MOL   H17144101   7.159   5.574   2.642  0.0025  1.0126  0.6128
  116MOL   H17244102   6.990   5.530   2.606  1.5384  1.1772 -1.7256
  116MOL   C17344103   7.156   4.940   2.467  1.1128 -0.6449 -0.3724
  116MOL   C17444104   7.134   5.007   2.333 -0.2246 -1.0844 -0.0738
  116MOL   O17544105   7.226   4.957   2.240  0.1921 -0.3753 -0.0750
  116MOL   C17644106   7.311   5.055   2.192  0.2981  0.2404  0.4930
  116MOL   C17744107   7.379   4.975   2.074  0.0276 -0.1568 -0.7135
  116MOL   C17844108   7.443   4.842   2.112  0.1466 -0.2243  0.3876
  116MOL   C17944109   7.498   4.753   2.007  0.0033  0.1339 -0.0455
  116MOL   H18044110   7.067   4.959   2.528  0.0128 -1.3411 -1.7350
  116MOL   H18144111   7.160   4.831   2.464  2.7126 -0.8884  4.9911
  116MOL   H18244112   7.130   5.115   2.347 -0.7363 -0.8925 -1.5994
  116MOL   H18344113   7.385   5.063   2.272  1.0098  0.8469 -0.2142
  116MOL   H18444114   7.261   5.145   2.156 -1.0435 -0.0379  1.6126
  116MOL   H18544115   7.452   5.046   2.034  0.3764  0.0318  0.2493
  116MOL   H18644116   7.302   4.965   1.997 -1.3109  1.0702  0.4299
  116MOL   H18744117   7.523   4.858   2.185  2.8256  0.5729 -2.6301
  116MOL   H18844118   7.366   4.785   2.163  0.8834 -1.6188 -0.0449
  116MOL   H18944119   7.423   4.681   1.977 -0.1373 -0.9143  2.6753
  116MOL   H19044120   7.526   4.805   1.916 -0.5696  0.1221 -0.2267
  116MOL   H19144121   7.583   4.696   2.044 -0.5692 -0.0734  0.9676
  116MOL   C19244122   7.000   4.964   2.278 -0.0180 -0.6631 -0.0409
  116MOL   C19344123   6.923   5.071   2.194 -0.2692  0.0601 -0.1694
  116MOL   O19444124   6.807   5.014   2.125  0.1455 -0.0965 -0.2614
  116MOL   C19544125   6.811   5.056   1.986  0.4710  0.2617 -0.8438
  116MOL   C19644126   6.690   5.002   1.913 -0.0639  0.0084 -0.1145
  116MOL   C19744127   6.675   5.050   1.770 -0.6629 -0.2570 -0.5205
  116MOL   C19844128   6.588   4.956   1.687  0.2734  0.3634 -0.4204
  116MOL   H19944129   6.933   4.951   2.363  0.3416  0.7869  0.4882
  116MOL   H20044130   7.001   4.866   2.230 -1.5101 -0.9175  0.4091
  116MOL   H20144131   6.992   5.108   2.119  0.0245 -0.3803 -0.1149
  116MOL   H20244132   6.895   5.013   1.933 -0.3276 -1.5328 -0.6788
  116MOL   H20344133   6.818   5.165   1.981 -1.1117  0.4325  0.1777
  116MOL   H20444134   6.688   4.893   1.913 -1.8885  0.0197 -0.2715
  116MOL   H20544135   6.599   5.021   1.970 -0.2190 -1.8023  0.2825
  116MOL   H20644136   6.773   5.065   1.725 -0.2176  1.9878  1.1108
  116MOL   H20744137   6.629   5.148   1.783  1.6776  0.4777  2.6474
  116MOL   H20844138   6.550   4.979   1.588 -1.1276 -1.1324 -0.2622
  116MOL   H20944139   6.625   4.855   1.669 -0.2509  0.3069 -1.2059
  116MOL   H21044140   6.487   4.953   1.728  0.5605 -0.1388  0.2616
  116MOL   C21144141   6.884   5.193   2.274  0.8956 -0.5756  0.1039
  116MOL   C21244142   6.780   5.168   2.388  0.6807  0.0965 -0.0424
  116MOL   O21344143   6.868   5.151   2.503  0.0102  0.4997 -0.3735
  116MOL   C21444144   6.815   5.087   2.617 -0.1343  0.1377 -0.1550
  116MOL   C21544145   6.910   5.107   2.739  0.0737  0.1775 -0.6063
  116MOL   C21644146   6.884   5.233   2.816 -0.5210  0.1937  0.1767
  116MOL   C21744147   7.004   5.259   2.913 -0.8939 -0.5550  0.1258
  116MOL   H21844148   6.839   5.252   2.195  0.3798 -1.3378 -0.1776
  116MOL   H21944149   6.969   5.252   2.308 -1.1285  2.1118  0.6755
  116MOL   H22044150   6.726   5.075   2.371  0.7749  0.3376 -1.6942
  116MOL   H22144151   6.714   5.127   2.626 -0.5148 -1.2005  1.7815
  116MOL   H22244152   6.808   4.980   2.596  0.5891 -0.0795  0.7139
  116MOL   H22344153   6.896   5.017   2.799 -0.6076  0.9986  0.4812
  116MOL   H22444154   7.015   5.107   2.707  0.4262  3.5422  0.3689
  116MOL   H22544155   6.787   5.238   2.866  0.3199  1.1441  1.7642
  116MOL   H22644156   6.884   5.314   2.744  1.1541  1.8214  1.9433
  116MOL   H22744157   7.096   5.290   2.864 -0.4712 -3.7683 -1.2864
  116MOL   H22844158   7.016   5.168   2.972 -1.3249 -0.2532  0.6848
  116MOL   H22944159   6.988   5.341   2.982  0.5553  1.7526 -2.2085
  116MOL   C23044160   6.696   5.292   2.419 -0.6724 -0.3643 -0.2595
  116MOL   C23144161   6.602   5.348   2.308 -0.7986  0.3786  0.0190
  116MOL   O23244162   6.476   5.298   2.340  0.5648  0.0035  0.7856
  116MOL   C23344163   6.445   5.166   2.299 -0.4529  0.4931  0.2217
  116MOL   C23444164   6.290   5.155   2.297 -0.8593  0.3846  0.1613
  116MOL   C23544165   6.215   5.277   2.232 -0.6016  0.2645  0.6848
  116MOL   C23644166   6.059   5.253   2.237  0.7821  0.3718  0.1414
  116MOL   H23744167   6.767   5.369   2.448 -1.9401 -0.2362  2.7098
  116MOL   H23844168   6.634   5.276   2.507 -1.4072 -0.2251 -0.7426
  116MOL   H23944169   6.633   5.311   2.210 -0.1128 -0.5115  0.5599
  116MOL   H24044170   6.486   5.157   2.199 -1.6350  0.8888 -0.3046
  116MOL   H24144171   6.488   5.096   2.371  0.9420  2.4121  1.3236
  116MOL   H24244172   6.266   5.062   2.245 -1.4682  1.4103 -1.4381
  116MOL   H24344173   6.250   5.137   2.396 -2.3295 -1.5657 -0.7466
  116MOL   H24444174   6.251   5.285   2.129 -2.0861  0.4674  0.1739
  116MOL   H24544175   6.230   5.372   2.283  2.7584 -0.2762  0.8499
  116MOL   H24644176   6.030   5.186   2.156  1.6671 -1.6172  1.4345
  116MOL   H24744177   6.009   5.341   2.197  2.0345  0.8534 -0.4184
  116MOL   H24844178   6.024   5.236   2.338 -0.7357  0.6888 -0.3221
  116MOL   C24944179   6.603   5.501   2.306 -0.2870  0.5798  0.1107
  116MOL   C25044180   6.511   5.557   2.201  0.1741  0.0650 -0.0323
  116MOL   O25144181   6.561   5.521   2.071 -0.2469 -0.3531 -0.0661
  116MOL   C25244182   6.470   5.452   1.985 -0.8050 -0.3195  0.1461
  116MOL   C25344183   6.522   5.487   1.845  0.2813  0.0869 -0.3354
  116MOL   C25444184   6.481   5.629   1.798 -0.9942 -0.6186 -0.4969
  116MOL   C25544185   6.464   5.642   1.653 -0.4160 -0.9580 -0.2193
  116MOL   H25644186   6.703   5.538   2.284  0.9882 -1.9396  1.4844
  116MOL   H25744187   6.574   5.528   2.407 -0.8353 -1.8857  0.6564
  116MOL   H25844188   6.417   5.508   2.226  1.4793 -1.9750  1.0526
  116MOL   H25944189   6.364   5.477   1.999 -0.8777 -1.5449  2.0525
  116MOL   H26044190   6.484   5.346   2.005 -0.6728 -0.4012 -0.3876
  116MOL   H26144191   6.627   5.461   1.856  0.3715  0.6956  0.2580
  116MOL   H26244192   6.482   5.419   1.769 -2.7514  0.5201  0.8236
  116MOL   H26344193   6.388   5.663   1.843 -1.2480 -0.6744 -0.9797
  116MOL   H26444194   6.548   5.707   1.832  0.8852 -1.4831 -2.1341
  116MOL   H26544195   6.434   5.739   1.614  1.1879  0.2977  1.5446
  116MOL   H26644196   6.381   5.574   1.633  0.0312 -2.2877  2.1160
  116MOL   H26744197   6.555   5.605   1.605 -0.0095  0.8080 -0.8401
  116MOL   C26844198   6.476   5.707   2.212 -0.0708 -0.3054  0.2505
  116MOL   C26944199   6.447   5.769   2.349 -0.2078 -0.0838  0.2467
  116MOL   O27044200   6.391   5.683   2.441 -0.7429  0.3472 -0.2320
  116MOL   C27144201   6.255   5.653   2.425  0.3651 -0.2471  0.7296
  116MOL   C27244202   6.212   5.571   2.541  0.0421  0.2255  0.1445
  116MOL   C27344203   6.212   5.638   2.675  0.0869 -0.4563 -0.5856
  116MOL   C27444204   6.212   5.536   2.786 -0.5686 -0.4250 -0.1201
  116MOL   H27544205   6.550   5.767   2.160 -0.8227  0.3271 -0.1011
  116MOL   H27644206   6.384   5.722   2.156 -0.0825 -0.6418  0.1762
  116MOL   H27744207   6.386   5.857   2.328  1.8348  0.8888 -1.9398
  116MOL   H27844208   6.201   5.747   2.424  1.8160  0.5934 -0.5900
  116MOL   H27944209   6.233   5.601   2.331  0.6762  1.5702 -0.3680
  116MOL   H28044210   6.116   5.525   2.516  0.1804  0.2910 -0.5143
  116MOL   H28144211   6.279   5.485   2.546  0.1307  0.3874  1.9017
  116MOL   H28244212   6.131   5.710   2.684  0.9070  0.5395 -0.9354
  116MOL   H28344213   6.304   5.697   2.684 -0.9543  0.9246  1.3570
  116MOL   H28444214   6.120   5.477   2.787  0.3570 -1.8860  0.0715
  116MOL   H28544215   6.241   5.570   2.886  1.6567  0.3104 -0.9821
  116MOL   H28644216   6.285   5.459   2.764 -0.9901 -0.8579 -0.0082
  116MOL   C28744217   6.568   5.835   2.414  0.4066 -0.5720  0.1790
  116MOL   C28844218   6.532   5.912   2.552 -0.8279 -0.0545 -0.1646
  116MOL   O28944219   6.455   6.025   2.514  0.3573 -0.6087 -0.1889
  116MOL   C29044220   6.354   6.055   2.610 -0.2596  0.4748 -0.0570
  116MOL   C29144221   6.249   6.143   2.559  0.2236 -0.0145  0.4432
  116MOL   C29244222   6.165   6.091   2.449 -0.0751  0.6480  0.5924
  116MOL   C29344223   6.040   6.183   2.418 -0.2807  0.8896 -0.0376
  116MOL   H29444224   6.607   5.911   2.347 -1.0873  0.8688  0.9018
  116MOL   H29544225   6.644   5.763   2.446  1.2818  0.6418  0.9300
  116MOL   H29644226   6.476   5.848   2.622 -0.8623 -0.4295 -0.5342
  116MOL   H29744227   6.300   5.972   2.655 -1.9552  1.4510 -0.2708
  116MOL   H29844228   6.402   6.105   2.694 -1.1625  2.4501 -0.6800
  116MOL   H29944229   6.299   6.234   2.525 -0.6270 -0.0086 -0.8268
  116MOL   H30044230   6.177   6.164   2.638 -0.9292 -1.1680 -0.2706
  116MOL   H30144231   6.121   5.998   2.484  0.9938  0.3296  1.1098
  116MOL   H30244232   6.217   6.060   2.358  0.0797  0.4724  0.7403
  116MOL   H30344233   5.995   6.141   2.328 -0.7392  3.1539 -0.9097
  116MOL   H30444234   5.968   6.188   2.499  1.1324  1.1173  1.2313
  116MOL   H30544235   6.055   6.290   2.398 -3.1013  1.4215  0.5266
  116MOL   C30644236   6.652   5.963   2.628  0.6488 -0.4318  0.2106
  116MOL   C30744237   6.741   5.857   2.694 -0.3956 -0.2117 -0.5137
  116MOL   O30844238   6.672   5.742   2.739 -0.0401 -0.5196  0.1074
  116MOL   C30944239   6.699   5.612   2.693 -0.2699 -0.1066 -0.1558
  116MOL   C31044240   6.610   5.512   2.775 -0.2752  0.4103  0.2384
  116MOL   C31144241   6.652   5.518   2.923 -0.4893 -0.0851  0.1952
  116MOL   C31244242   6.562   5.424   3.006 -0.2095 -0.0278  0.1197
  116MOL   H31344243   6.709   6.028   2.561  0.1607  1.8362  1.9479
  116MOL   H31444244   6.621   6.027   2.710 -2.2350  2.1769 -2.7655
  116MOL   H31544245   6.803   5.818   2.613 -2.6201 -0.7156 -2.0254
  116MOL   H31644246   6.803   5.590   2.715 -0.4072 -1.6247 -0.9487
  116MOL   H31744247   6.679   5.610   2.586  0.8066  1.9061 -0.4058
  116MOL   H31844248   6.631   5.414   2.730  0.7388 -0.0519  1.6783
  116MOL   H31944249   6.509   5.540   2.745 -0.5327 -2.1442 -1.4795
  116MOL   H32044250   6.757   5.495   2.944 -0.3211  0.1723 -0.3565
  116MOL   H32144251   6.631   5.620   2.956  0.7009 -0.2597  1.5482
  116MOL   H32244252   6.578   5.319   2.980 -0.3133  0.2230 -0.9935
  116MOL   H32344253   6.459   5.446   2.979 -0.3599  0.0595  0.7590
  116MOL   H32444254   6.572   5.453   3.110 -1.0733  3.2562 -0.6443
  116MOL   C32544255   6.827   5.908   2.814 -0.5506 -0.2718 -0.4980
  116MOL   C32644256   6.921   6.027   2.784 -0.1971  0.1849  0.6056
  116MOL   O32744257   7.005   6.040   2.896 -0.4028  0.3550  0.3282
  116MOL   C32844258   6.956   6.129   2.990  0.1357  0.4436  0.0914
  116MOL   C32944259   7.033   6.118   3.125  0.3687 -0.1285 -0.1265
  116MOL   C33044260   6.982   5.993   3.199 -0.3160 -0.3631 -0.1958
  116MOL   C33144261   7.079   5.955   3.312  0.4962 -0.0712  1.0545
  116MOL   H33244262   6.891   5.830   2.855 -1.4461 -0.2366  0.9934
  116MOL   H33344263   6.763   5.924   2.900 -0.1694  2.3233 -0.6577
  116MOL   H33444264   6.854   6.111   2.771 -2.3355 -1.8800 -2.3152
  116MOL   H33544265   6.852   6.113   3.017  0.0330  0.9939  0.0303
  116MOL   H33644266   6.958   6.232   2.954  0.7428 -0.4418 -2.5038
  116MOL   H33744267   7.141   6.109   3.112 -0.0043 -1.0405 -3.0067
  116MOL   H33844268   7.011   6.208   3.183  1.4758  2.3362 -3.3582
  116MOL   H33944269   6.959   5.910   3.133 -1.4232 -1.3779  1.4001
  116MOL   H34044270   6.880   6.012   3.233 -0.3659 -2.7222  1.1302
  116MOL   H34144271   7.101   6.037   3.381  0.1429  1.4147 -0.5505
  116MOL   H34244272   7.172   5.920   3.268  0.8910  0.5607  1.3651
  116MOL   H34344273   7.034   5.875   3.370 -1.7423 -0.8035 -1.5920
  116MOL   C34444274   7.012   6.008   2.659  0.0573  0.1670 -1.3241
  116MOL   C34544275   7.128   6.109   2.642 -0.2592  0.5756  0.1970
  116MOL   O34644276   7.175   6.104   2.507 -0.0814  0.2944  0.1346
  116MOL   C34744277   7.186   6.228   2.443 -0.8798 -0.1823  0.3841
  116MOL   C34844278   7.246   6.223   2.304  0.0053 -0.5103  0.5016
  116MOL   C34944279   7.167   6.149   2.198  0.3641  0.0383  0.6817
  116MOL   C35044280   7.216   6.162   2.053 -0.0086 -0.0994  0.5786
  116MOL   H35144281   7.060   5.910   2.659 -0.1724  0.0523 -1.8745
  116MOL   H35244282   6.951   6.007   2.569 -1.6689 -2.6615 -0.1883
  116MOL   H35344283   7.094   6.211   2.664  0.4708  0.8309  0.1714
  116MOL   H35444284   7.240   6.295   2.511 -3.2514  2.1634  0.0497
  116MOL   H35544285   7.087   6.274   2.442 -1.3364 -1.0683 -3.8941
  116MOL   H35644286   7.353   6.203   2.312  0.8516  2.9049 -1.3236
  116MOL   H35744287   7.248   6.328   2.272 -0.4733 -0.8889 -0.8102
  116MOL   H35844288   7.163   6.042   2.220 -1.8778  0.3914  2.0949
  116MOL   H35944289   7.067   6.190   2.206 -0.5527 -2.2845  1.3845
  116MOL   H36044290   7.144   6.116   1.985  1.3410 -3.3972  1.2600
  116MOL   H36144291   7.299   6.095   2.029 -1.0053 -1.1749  0.0294
  116MOL   H36244292   7.250   6.259   2.016  1.4113 -0.5355  0.6898
  116MOL   C36344293   7.256   6.092   2.724  0.1299  0.6205  0.2428
  116MOL   C36444294   7.300   6.222   2.796 -0.4177  0.1376 -0.1152
  116MOL   O36544295   7.426   6.202   2.856  0.9801  0.3304 -0.0448
  116MOL   C36644296   7.493   6.320   2.906 -0.2744  0.0869 -0.9543
  116MOL   C36744297   7.633   6.290   2.958  0.3861 -0.0115 -0.0312
  116MOL   C36844298   7.691   6.398   3.053 -0.9740 -0.6369  0.7219
  116MOL   C36944299   0.026   6.361   3.116 -0.5240  0.0951 -0.3069
  116MOL   H37044300   7.341   6.043   2.676  0.4509  1.8385 -0.4433
  116MOL   H37144301   7.235   6.017   2.800  0.4417  0.6799  0.3885
  116MOL   H37244302   7.228   6.246   2.874 -0.1309 -0.9801  0.5059
  116MOL   H37344303   7.427   6.368   2.979  0.0523  0.5194 -0.9428
  116MOL   H37444304   7.505   6.392   2.825  2.9477 -1.1948 -1.6806
  116MOL   H37544305   7.693   6.267   2.870 -0.4845  1.1808 -0.9488
  116MOL   H37644306   7.625   6.195   3.011 -1.9078  0.2473  0.1159
  116MOL   H37744307   7.613   6.416   3.128 -1.6974  0.7760 -0.3401
  116MOL   H37844308   7.703   6.495   3.004 -0.8567  0.7598  3.4088
  116MOL   H37944309   0.102   6.319   3.050 -1.8467 -2.8786 -0.0273
  116MOL   H38044310   0.060   6.450   3.168 -1.3766 -0.7048  1.6665
  116MOL   H38144311   0.007   6.285   3.192  4.9240  0.0850  1.2168
  116MOL   H38244312   7.298   6.303   2.724 -0.6010 -1.6755 -2.2264
  117MOL     C144313   6.811   0.599   6.622  0.3282  1.1881  0.4181
  117MOL     C244314   6.683   0.559   6.548 -0.1930  0.4930  0.1761
  117MOL     O344315   6.690   0.424   6.515  0.4649 -0.4066  0.1082
  117MOL     C444316   6.710   0.397   6.371 -0.1810 -0.2481  0.1153
  117MOL     C544317   6.717   0.241   6.355  0.8897 -0.6059 -0.1607
  117MOL     C644318   6.573   0.189   6.384  0.2261 -0.1385 -0.4517
  117MOL     C744319   6.573   0.036   6.379 -0.3692 -0.5570  0.7144
  117MOL     H844320   6.903   0.584   6.567  0.4989  3.4316  0.0643
  117MOL     H944321   6.806   0.702   6.656  0.5008  1.8296 -1.4732
  117MOL    H1044322   6.688   0.620   6.458  1.2705 -1.6516 -1.2571
  117MOL    H1144323   6.630   0.427   6.304 -0.3697 -0.0771  0.4122
  117MOL    H1244324   6.796   0.454   6.335 -0.2021 -1.1667 -1.4169
  117MOL    H1344325   6.796   0.208   6.422  1.1680  2.1388  0.9216
  117MOL    H1444326   6.749   0.209   6.255  0.8003  0.1320 -0.4212
  117MOL    H1544327   6.502   0.231   6.313  1.1922 -2.6717 -3.0251
  117MOL    H1644328   6.547   0.223   6.484  0.0070 -1.6856  0.0282
  117MOL    H1744329   6.559   0.004   6.276  4.0127  0.0562 -0.2089
  117MOL    H1844330   6.500   7.788   6.442 -0.0420 -2.4435 -0.3713
  117MOL    H1944331   6.669   7.792   6.403  1.4393  2.1493 -1.0668
  117MOL    H2044332   6.822   0.536   6.711  1.1338 -0.1298 -0.6131
  117MOL    C2144333   6.549   0.587   6.629  0.0571  0.0681  0.2646
  117MOL    C2244334   6.426   0.590   6.540  0.3151 -0.0046 -0.4354
  117MOL    O2344335   6.312   0.612   6.628 -0.2789 -0.5033  0.4300
  117MOL    C2444336   6.257   0.502   6.693 -0.0810 -0.7455  0.0071
  117MOL    C2544337   6.179   0.554   6.815 -0.2530 -0.5692 -0.2203
  117MOL    C2644338   6.085   0.445   6.880  0.3554 -0.3499  0.6538
  117MOL    C2744339   5.991   0.505   6.985 -0.6445  0.5015  0.0059
  117MOL    H2844340   6.565   0.686   6.671  0.0624 -0.2865  1.1206
  117MOL    H2944341   6.545   0.520   6.715 -1.5228 -0.2778 -0.0558
  117MOL    H3044342   6.422   0.495   6.487  1.7029 -0.3688  0.0894
  117MOL    H3144343   6.337   0.432   6.717 -0.0385 -1.0153 -0.8935
  117MOL    H3244344   6.192   0.449   6.622 -4.0490  0.6511  2.4245
  117MOL    H3344345   6.244   0.596   6.891 -0.6568  0.8094 -0.6237
  117MOL    H3444346   6.115   0.635   6.780 -0.2182 -0.1018  0.7967
  117MOL    H3544347   6.035   0.393   6.798 -0.0731  2.0655 -0.6631
  117MOL    H3644348   6.156   0.372   6.918 -0.8150 -2.2303 -0.6388
  117MOL    H3744349   5.934   0.590   6.947  0.6047  1.2661 -0.1709
  117MOL    H3844350   5.923   0.425   7.013  0.0650 -1.3485 -3.1754
  117MOL    H3944351   6.048   0.530   7.074 -0.7805 -0.2434  0.2990
  117MOL    C4044352   6.429   0.712   6.445 -0.8170  0.4316 -0.5952
  117MOL    C4144353   6.315   0.703   6.341 -0.1379  0.5870 -0.1305
  117MOL    O4244354   6.367   0.622   6.236  0.9312 -0.1448 -0.2748
  117MOL    C4344355   6.286   0.506   6.201  0.2701  0.2606 -0.3139
  117MOL    C4444356   6.358   0.436   6.088  0.3697 -0.6302 -0.5206
  117MOL    C4544357   6.406   0.522   5.973  0.0828 -0.0394  0.0806
  117MOL    C4644358   6.470   0.427   5.872 -0.3498  1.2560 -0.4335
  117MOL    H4744359   6.527   0.731   6.401 -0.7631  0.6505 -0.3830
  117MOL    H4844360   6.415   0.797   6.513 -1.6898 -0.2239  0.0517
  117MOL    H4944361   6.234   0.651   6.393  0.7970 -0.5143  0.2658
  117MOL    H5044362   6.185   0.537   6.176  0.8356  2.1372 -0.3148
  117MOL    H5144363   6.280   0.440   6.288  1.7049 -1.1049 -1.2232
  117MOL    H5244364   6.295   0.361   6.040 -1.8733  1.0297 -0.2680
  117MOL    H5344365   6.445   0.384   6.127 -1.2996 -1.0953  2.7823
  117MOL    H5444366   6.481   0.586   6.019 -0.2897 -0.0837  0.7587
  117MOL    H5544367   6.329   0.588   5.933 -1.3813  0.0503  2.9437
  117MOL    H5644368   6.407   0.359   5.814 -2.2537  1.4891  1.2960
  117MOL    H5744369   6.530   0.484   5.802  3.1273 -0.7060  0.8202
  117MOL    H5844370   6.543   0.371   5.930  0.6110  0.8990 -1.9525
  117MOL    C5944371   6.274   0.837   6.285 -0.7216  0.2554  0.0910
  117MOL    C6044372   6.197   0.924   6.382 -0.0497 -0.6178  0.7896
  117MOL    O6144373   6.206   1.059   6.335 -0.5514 -0.3019  0.0799
  117MOL    C6244374   6.317   1.136   6.376 -0.0828  0.2156  1.1035
  117MOL    C6344375   6.306   1.275   6.305  0.3196 -0.0095  0.0724
  117MOL    C6444376   6.427   1.362   6.336 -0.4050 -0.8303  0.5806
  117MOL    C6544377   6.433   1.471   6.225  0.2084 -0.4354 -0.6488
  117MOL    H6644378   6.365   0.886   6.251  0.2987 -0.8309  1.2121
  117MOL    H6744379   6.220   0.826   6.191  0.8111  0.9853 -0.9053
  117MOL    H6844380   6.242   0.907   6.479 -1.6400  2.4129  2.1264
  117MOL    H6944381   6.407   1.075   6.365 -0.7914 -0.6850  0.2725
  117MOL    H7044382   6.314   1.154   6.483  1.1717 -0.6041  1.2888
  117MOL    H7144383   6.295   1.258   6.198  1.3247 -0.8773  0.1001
  117MOL    H7244384   6.215   1.323   6.343 -0.8858 -1.6691 -0.6743
  117MOL    H7344385   6.421   1.400   6.439 -3.3983  1.7694 -0.4489
  117MOL    H7444386   6.524   1.313   6.340 -0.7767 -1.6043  0.1483
  117MOL    H7544387   6.336   1.520   6.216 -0.9460 -2.7230 -0.9902
  117MOL    H7644388   6.504   1.547   6.257  0.8895 -0.7395 -1.4235
  117MOL    H7744389   6.457   1.430   6.127 -2.0048 -0.8879 -1.0418
  117MOL    C7844390   6.046   0.883   6.392  0.3671  0.0656 -0.7246
  117MOL    C7944391   5.986   0.870   6.532  0.6003 -0.2859 -0.3768
  117MOL    O8044392   5.866   0.803   6.517  1.1088 -0.4392  0.2991
  117MOL    C8144393   5.857   0.674   6.585  0.0107  0.1463  0.8333
  117MOL    C8244394   5.712   0.635   6.589  0.5962  0.4979  0.1197
  117MOL    C8344395   5.677   0.497   6.643  0.2375 -0.0042  0.6327
  117MOL    C8444396   5.532   0.460   6.613 -0.0672 -0.3367 -0.7275
  117MOL    H8544397   6.034   0.781   6.354 -0.6987 -0.1763  0.2388
  117MOL    H8644398   5.991   0.954   6.330  4.0783 -0.0274 -4.3621
  117MOL    H8744399   6.058   0.818   6.594 -1.1419 -0.5276  1.5083
  117MOL    H8844400   5.890   0.673   6.689 -0.5266  2.5610  1.0536
  117MOL    H8944401   5.923   0.611   6.525  0.1860 -0.0956  1.2736
  117MOL    H9044402   5.655   0.717   6.632  0.6975  1.1780 -1.0330
  117MOL    H9144403   5.665   0.639   6.491  2.0900  3.2542 -0.5307
  117MOL    H9244404   5.681   0.512   6.751  1.1060 -0.9733  0.7337
  117MOL    H9344405   5.751   0.425   6.609 -1.5098 -0.0273 -3.3804
  117MOL    H9444406   5.457   0.538   6.620 -0.9218 -1.2894  1.4489
  117MOL    H9544407   5.524   0.414   6.514  0.5768  1.4319 -1.6086
  117MOL    H9644408   5.504   0.398   6.699  0.6695  2.9188  1.9571
  117MOL    C9744409   5.978   1.009   6.595 -0.1168 -0.8991  0.3329
  117MOL    C9844410   5.925   1.000   6.741 -0.8734  0.3893 -0.2956
  117MOL    O9944411   6.044   0.959   6.815 -0.2342  0.3960 -0.0883
  117MOL   C10044412   6.016   0.880   6.928 -0.4750 -0.0207 -0.7230
  117MOL   C10144413   6.144   0.855   7.006 -0.5597  0.0608  0.1940
  117MOL   C10244414   6.208   0.981   7.083 -0.3202 -0.3251 -0.6170
  117MOL   C10344415   6.353   0.952   7.132 -0.5324 -0.5431 -0.0711
  117MOL   H10444416   5.924   1.073   6.525 -2.4053 -2.0930  0.9413
  117MOL   H10544417   6.076   1.055   6.599 -1.3851  2.1090 -1.6767
  117MOL   H10644418   5.852   0.919   6.748  1.2062 -1.5144  0.2057
  117MOL   H10744419   5.969   0.788   6.893  2.1759 -1.1230 -1.5398
  117MOL   H10844420   5.946   0.936   6.991 -0.1561  0.4985 -0.8215
  117MOL   H10944421   6.220   0.835   6.930  0.6674  0.8882  1.2058
  117MOL   H11044422   6.125   0.769   7.071 -0.3324 -2.1639 -2.5736
  117MOL   H11144423   6.147   1.006   7.170  0.5030  0.1894 -0.1807
  117MOL   H11244424   6.222   1.067   7.018 -1.0034 -0.6501 -1.1920
  117MOL   H11344425   6.371   0.873   7.205  0.7165  0.7308  1.0325
  117MOL   H11444426   6.425   0.935   7.051 -0.8155  1.3956 -0.7615
  117MOL   H11544427   6.390   1.044   7.177 -0.5870 -1.1233  1.1843
  117MOL   C11644428   5.859   1.118   6.800  0.4413 -0.5326  0.9016
  117MOL   C11744429   5.943   1.249   6.795 -0.6287  0.2446  0.3915
  117MOL   O11844430   5.930   1.323   6.672 -0.0785 -0.4395 -0.5172
  117MOL   C11944431   6.040   1.394   6.624  0.0936  0.4026  0.3392
  117MOL   C12044432   6.012   1.468   6.491  0.4455 -0.0381  0.2003
  117MOL   C12144433   6.106   1.588   6.468  0.1511 -0.3559  0.3387
  117MOL   C12244434   6.085   1.642   6.326  0.3709 -0.1278 -0.8447
  117MOL   H12344435   5.767   1.134   6.743  0.3311  0.6307  1.3912
  117MOL   H12444436   5.832   1.088   6.901  0.0356 -1.6649  0.4570
  117MOL   H12544437   6.045   1.211   6.805 -1.5127 -2.2032  0.5286
  117MOL   H12644438   6.136   1.342   6.624 -0.4858 -0.6971  1.6661
  117MOL   H12744439   6.048   1.469   6.703 -1.7128  1.2881 -0.3089
  117MOL   H12844440   5.912   1.510   6.485  0.1727 -0.8663 -1.2900
  117MOL   H12944441   6.026   1.395   6.412  1.2971 -2.0072  2.1256
  117MOL   H13044442   6.097   1.671   6.538 -1.0555 -0.3696  0.2111
  117MOL   H13144443   6.208   1.554   6.487 -0.4688 -3.2131 -1.2007
  117MOL   H13244444   5.999   1.708   6.326  1.0741  0.8035 -0.7592
  117MOL   H13344445   6.079   1.566   6.248 -2.3628  0.5195 -1.3122
  117MOL   H13444446   6.171   1.705   6.304 -0.0913  0.4921 -0.8656
  117MOL   C13544447   5.915   1.345   6.915 -0.1546  0.2988 -0.1087
  117MOL   C13644448   5.945   1.284   7.056  0.3045 -0.6182  0.4829
  117MOL   O13744449   6.038   1.370   7.121 -0.0800 -0.0654 -0.2223
  117MOL   C13844450   6.176   1.376   7.083  0.1656  0.1276  0.2163
  117MOL   C13944451   6.269   1.304   7.190  0.2261 -0.8797  0.1150
  117MOL   C14044452   6.278   1.381   7.324 -0.2210 -0.1566 -0.4465
  117MOL   C14144453   6.358   1.310   7.433 -0.0687  0.3011  0.1302
  117MOL   H14244454   5.811   1.378   6.916  0.4122  2.3524 -1.8911
  117MOL   H14344455   5.976   1.435   6.909 -1.4452  1.4439  2.8495
  117MOL   H14444456   5.995   1.189   7.036  2.3505  0.4305  0.4828
  117MOL   H14544457   6.193   1.484   7.075  2.6550 -0.2561 -0.0147
  117MOL   H14644458   6.198   1.337   6.983 -0.6323 -1.1086  0.5165
  117MOL   H14744459   6.367   1.286   7.147  0.3791  0.9801 -0.3449
  117MOL   H14844460   6.218   1.209   7.207  0.2999 -0.7286  1.2367
  117MOL   H14944461   6.316   1.483   7.314 -1.0146  0.1845 -0.0677
  117MOL   H15044462   6.176   1.391   7.361 -0.2668 -0.2299 -0.5555
  117MOL   H15144463   6.359   1.377   7.519 -0.2829  0.7612 -0.2248
  117MOL   H15244464   6.307   1.216   7.456 -0.5917  0.6999  0.6255
  117MOL   H15344465   6.458   1.292   7.395  0.3100  0.1137  1.2014
  117MOL   C15444466   5.816   1.277   7.141  0.6203  0.3689  0.3526
  117MOL   C15544467   5.811   1.194   7.267  0.5580  0.7183 -0.0585
  117MOL   O15644468   5.673   1.197   7.308 -0.4456  0.3111  0.8476
  117MOL   C15744469   5.584   1.094   7.273 -0.5106 -0.2862 -0.0031
  117MOL   C15844470   5.463   1.105   7.368  0.4901 -0.0048 -0.3645
  117MOL   C15944471   5.370   0.978   7.373  0.0460  0.0024  0.4775
  117MOL   C16044472   5.240   0.995   7.459  0.1143  0.0378  0.0465
  117MOL   H16144473   5.741   1.229   7.077  0.8622  0.8432 -0.2910
  117MOL   H16244474   5.780   1.380   7.147 -0.5541 -0.0765  1.1953
  117MOL   H16344475   5.844   1.093   7.243 -1.1672 -0.0130  0.5889
  117MOL   H16444476   5.546   1.101   7.171 -0.5918  1.1422  0.1150
  117MOL   H16544477   5.633   0.997   7.281  0.8026  0.2756 -1.1224
  117MOL   H16644478   5.403   1.192   7.340  0.7611 -0.1133 -1.3079
  117MOL   H16744479   5.498   1.135   7.466  0.8975  1.1819 -0.8561
  117MOL   H16844480   5.324   0.958   7.276  2.5230 -0.3797 -0.6465
  117MOL   H16944481   5.432   0.894   7.403  0.3843 -0.0338 -0.3188
  117MOL   H17044482   5.261   1.023   7.562  3.2991 -0.3485 -0.4405
  117MOL   H17144483   5.185   1.081   7.420  4.7258  1.7494 -3.1907
  117MOL   H17244484   5.170   0.912   7.453  1.7418 -1.3274 -0.6688
  117MOL   C17344485   5.891   1.241   7.383 -0.0931 -0.5402  0.0188
  117MOL   C17444486   5.893   1.164   7.514  0.0893  0.6033  0.2602
  117MOL   O17544487   5.982   1.056   7.493 -0.4112  1.0654 -0.0669
  117MOL   C17644488   5.977   0.933   7.564  0.3206 -0.3842 -1.1790
  117MOL   C17744489   6.071   0.821   7.511 -0.2802  0.5651 -0.2507
  117MOL   C17844490   6.222   0.864   7.511 -0.0936 -0.3782  0.2143
  117MOL   C17944491   6.316   0.745   7.505 -0.7294 -0.1347  0.0816
  117MOL   H18044492   5.870   1.347   7.400  0.9024 -0.4055  0.4815
  117MOL   H18144493   5.992   1.260   7.346 -0.3354  1.7538  0.4607
  117MOL   H18244494   5.795   1.119   7.532  1.0330 -1.7642 -0.2699
  117MOL   H18344495   5.875   0.896   7.554  0.3324 -0.1764 -2.1397
  117MOL   H18444496   6.001   0.946   7.669  0.3569  1.2114 -1.3596
  117MOL   H18544497   6.042   0.810   7.406  2.5592 -2.4653 -0.8388
  117MOL   H18644498   6.057   0.728   7.566  0.0040  1.1404  0.8069
  117MOL   H18744499   6.244   0.920   7.420 -1.5573 -0.5614 -0.2669
  117MOL   H18844500   6.255   0.927   7.593  1.6553 -1.6222  0.4888
  117MOL   H18944501   6.313   0.683   7.594  1.1139  0.7666  0.7997
  117MOL   H19044502   6.303   0.677   7.420  2.8752  0.3551 -0.9457
  117MOL   H19144503   6.415   0.788   7.489 -0.2906 -0.6342  1.3539
  117MOL   C19244504   5.940   1.252   7.634 -0.0031  0.4205  0.1591
  117MOL   C19344505   5.829   1.345   7.682  0.8073  0.6400 -0.0509
  117MOL   O19444506   5.741   1.259   7.757 -0.2799  0.1667  0.8717
  117MOL   C19544507   5.606   1.304   7.768 -0.4412  0.2309 -0.1293
  117MOL   C19644508   5.535   1.224   0.075  0.1858 -0.1189  0.1431
  117MOL   C19744509   5.390   1.280   0.082  0.8691 -0.3517  0.5056
  117MOL   C19844510   5.313   1.208   0.202 -0.3072  0.7183  0.3577
  117MOL   H19944511   6.031   1.307   7.612 -0.4144  1.5280  1.1501
  117MOL   H20044512   5.968   1.183   7.713 -0.5888 -0.0180 -0.0155
  117MOL   H20144513   5.775   1.375   7.592  1.9634  2.1629 -0.2543
  117MOL   H20244514   5.555   1.278   7.675 -0.5038 -1.9813  0.4924
  117MOL   H20344515   5.594   1.411   7.781 -2.0869  0.2489 -1.5855
  117MOL   H20444516   5.547   1.118   0.053 -2.6794 -0.9088  2.0324
  117MOL   H20544517   5.582   1.237   0.172 -2.5234  0.7304  1.3872
  117MOL   H20644518   5.345   1.257   7.787  1.6653  4.2766 -1.0777
  117MOL   H20744519   5.392   1.389   0.084  1.2443 -0.3254 -0.8521
  117MOL   H20844520   5.359   1.225   0.299  0.0383  2.4823 -0.1076
  117MOL   H20944521   5.207   1.236   0.202 -1.0092 -1.7819  1.0240
  117MOL   H21044522   5.308   1.101   0.179 -1.7070  1.1328 -1.3518
  117MOL   C21144523   5.866   1.468   7.766 -0.1397  0.2934 -0.5014
  117MOL   C21244524   5.970   1.562   7.704  0.3348  0.1628 -0.4835
  117MOL   O21344525   5.909   1.613   7.585  0.5242  0.2404  0.5262
  117MOL   C21444526   6.008   1.640   7.483  0.0752 -0.1957  0.9320
  117MOL   C21544527   5.928   1.702   7.356 -0.0586  0.2176 -0.1347
  117MOL   C21644528   6.016   1.738   7.237 -0.2913 -0.5435  0.9109
  117MOL   C21744529   5.960   1.739   7.096 -0.3677  0.3629  0.4456
  117MOL   H21844530   5.907   1.435   0.060 -1.1891  3.8382  1.2531
  117MOL   H21944531   5.777   1.525   7.791 -1.0900 -0.1173 -2.7631
  117MOL   H22044532   6.065   1.514   7.679  1.1297  0.6345  1.5749
  117MOL   H22144533   6.087   1.706   7.517  1.5630 -0.7661 -1.2981
  117MOL   H22244534   6.055   1.547   7.451 -2.2162 -0.5423 -1.6403
  117MOL   H22344535   5.853   1.631   7.322 -1.3059  0.7403  1.4512
  117MOL   H22444536   5.871   1.791   7.383 -1.7219 -1.3597  1.7700
  117MOL   H22544537   6.076   1.648   7.240  0.8840  0.1685 -0.6900
  117MOL   H22644538   6.080   1.823   7.260 -0.6498  0.1322 -0.5722
  117MOL   H22744539   5.901   1.828   7.073  0.4796  0.7683 -0.1835
  117MOL   H22844540   5.894   1.653   7.084  0.7383 -0.4035 -0.2169
  117MOL   H22944541   6.029   1.731   7.013  0.9276  0.2638  1.5176
  117MOL   C23044542   6.016   1.680   7.787 -1.0102 -0.2578  0.4011
  117MOL   C23144543   6.077   1.653   0.129 -0.0638  0.3141 -0.1344
  117MOL   O23244544   6.189   1.563   0.119  0.1715 -0.4262  0.1083
  117MOL   C23344545   6.215   1.489   0.236 -0.3125  0.1263 -0.3703
  117MOL   C23444546   6.283   1.356   0.211  0.1236  0.2919  0.2312
  117MOL   C23544547   6.194   1.264   0.124  0.2225  0.1595 -0.1152
  117MOL   C23644548   6.269   1.126   0.116  0.0426 -0.1407  0.0273
  117MOL   H23744549   5.936   1.754   7.792 -0.9285 -0.2002  0.9615
  117MOL   H23844550   6.100   1.720   7.731 -1.5796  1.2903  0.5944
  117MOL   H23944551   6.007   1.601   0.195  0.4055 -1.8255 -1.2800
  117MOL   H24044552   6.273   1.559   0.296 -1.3039  1.5066 -0.9769
  117MOL   H24144553   6.118   1.471   0.283  0.7207 -0.9349  1.4064
  117MOL   H24244554   6.377   1.372   0.158  0.5295  0.7067  1.0759
  117MOL   H24344555   6.304   1.306   0.305  0.7607  0.7486  0.3358
  117MOL   H24444556   6.182   1.309   0.025 -0.7298  0.5463  0.1729
  117MOL   H24544557   6.099   1.254   0.175 -0.4586 -0.6669 -1.5041
  117MOL   H24644558   6.206   1.050   0.068 -1.0195 -0.7674  2.3168
  117MOL   H24744559   6.283   1.097   0.220  2.9081 -0.5585 -0.4481
  117MOL   H24844560   6.360   1.121   0.057  1.2288  0.5053  1.7750
  117MOL   C24944561   6.124   1.785   0.194  0.4822  0.0597 -0.0366
  117MOL   C25044562   6.013   1.840   0.292  0.4500 -0.0807 -0.2288
  117MOL   O25144563   5.886   1.859   0.230  0.1710  0.4169  0.2464
  117MOL   C25244564   5.770   1.826   0.301  0.5350 -0.3508 -0.4256
  117MOL   C25344565   5.652   1.780   0.211 -0.0670  0.0163  0.6014
  117MOL   C25444566   5.525   1.728   0.278 -1.2169 -0.5715  0.3224
  117MOL   C25544567   5.456   1.639   0.179 -0.5899  0.1625  0.0177
  117MOL   H25644568   6.147   1.862   0.121  0.1358 -0.1576 -0.3815
  117MOL   H25744569   6.212   1.766   0.255  1.6407 -0.3168 -1.7972
  117MOL   H25844570   6.019   1.763   0.369 -2.0018  0.2834  0.3615
  117MOL   H25944571   5.752   1.912   0.365  0.6012 -0.3310 -0.4331
  117MOL   H26044572   5.789   1.737   0.361  0.1631 -0.5927 -0.6665
  117MOL   H26144573   5.633   1.865   0.145  2.3015 -0.3191 -0.5443
  117MOL   H26244574   5.696   1.709   0.141 -1.2165  0.2258 -0.3502
  117MOL   H26344575   5.554   1.682   0.373 -0.7497 -0.3297  0.2999
  117MOL   H26444576   5.469   1.821   0.291 -1.8923 -1.1489  1.6360
  117MOL   H26544577   5.367   1.595   0.225 -0.0538  0.4474  1.3520
  117MOL   H26644578   5.518   1.551   0.162  0.3817  0.7931  0.2772
  117MOL   H26744579   5.431   1.694   0.088  0.7236  1.0213  0.1667
  117MOL   C26844580   6.050   1.984   0.338  0.4113 -0.0640  0.5632
  117MOL   C26944581   5.978   2.051   0.457  0.1661  0.7907 -0.4907
  117MOL   O27044582   6.065   2.100   0.559  0.2190 -0.3160  0.2054
  117MOL   C27144583   6.101   2.002   0.649  0.2921  0.7124 -0.0757
  117MOL   C27244584   6.191   2.064   0.760  0.1124  0.0905 -0.3900
  117MOL   C27344585   6.106   2.173   0.832 -0.1866 -0.0175  0.4265
  117MOL   C27444586   6.204   2.249   0.927 -0.8392 -0.0447  0.2328
  117MOL   H27544587   6.154   1.969   0.369  0.4899 -1.9033 -0.4599
  117MOL   H27644588   6.067   2.058   0.260  0.9093  0.5989  1.3022
  117MOL   H27744589   5.905   1.981   0.498 -0.2073  0.5841 -1.4931
  117MOL   H27844590   6.016   1.953   0.698  0.3157  2.0449  1.3540
  117MOL   H27944591   6.161   1.925   0.601 -1.8600 -0.8870 -0.3271
  117MOL   H28044592   6.211   1.973   0.817  0.4700 -0.5114 -1.4520
  117MOL   H28144593   6.287   2.098   0.720 -0.9585  0.5722 -2.6594
  117MOL   H28244594   6.014   2.134   0.875 -0.9414  1.8517  0.5341
  117MOL   H28344595   6.065   2.244   0.760  3.0359  0.4339 -1.0281
  117MOL   H28444596   6.261   2.320   0.867 -0.3741 -0.2401  0.4405
  117MOL   H28544597   6.267   2.186   0.990  1.4652  1.2831 -0.6928
  117MOL   H28644598   6.142   2.316   0.986  1.8067  2.9222 -0.2390
  117MOL   C28744599   5.907   2.177   0.408 -0.2207 -0.0831  0.9748
  117MOL   C28844600   5.828   2.246   0.506 -0.0625  0.4564  0.3808
  117MOL   O28944601   5.713   2.167   0.532  0.7081  0.0574  0.2445
  117MOL   C29044602   5.705   2.123   0.667  0.0011 -0.2300  0.3588
  117MOL   C29144603   5.576   2.053   0.685  0.0381 -0.3211 -0.0628
  117MOL   C29244604   5.553   1.936   0.594  0.2391 -0.2452  0.7770
  117MOL   C29344605   5.424   1.863   0.631  0.2220  0.5969 -0.2394
  117MOL   H29444606   5.842   2.133   0.332  2.9571  0.5949 -2.2987
  117MOL   H29544607   5.963   2.250   0.350  0.7567 -0.0643  1.9340
  117MOL   H29644608   5.891   2.266   0.593  0.0352  2.5732 -0.1699
  117MOL   H29744609   5.790   2.062   0.698  0.1714 -0.7414 -1.0879
  117MOL   H29844610   5.706   2.206   0.737  1.1705 -0.5804  0.7779
  117MOL   H29944611   5.494   2.125   0.683 -1.0405 -1.3992  2.4928
  117MOL   H30044612   5.568   2.026   0.790  1.8398  0.1587  0.2160
  117MOL   H30144613   5.631   1.860   0.597  0.4158 -0.1455 -1.0278
  117MOL   H30244614   5.537   1.979   0.495 -0.1284 -0.6522  0.6553
  117MOL   H30344615   5.443   1.819   0.729  1.2394  0.8889 -0.3025
  117MOL   H30444616   5.345   1.935   0.654  1.2309  1.5873  0.1621
  117MOL   H30544617   5.389   1.796   0.553 -1.4088  1.1450  0.0090
  117MOL   C30644618   5.762   2.383   0.467 -0.2537  0.1636  0.6751
  117MOL   C30744619   5.730   2.472   0.591 -0.2960  0.3540 -0.0999
  117MOL   O30844620   5.672   2.596   0.548  0.2113 -0.5031 -0.3115
  117MOL   C30944621   5.535   2.585   0.523  0.1187  0.1553 -0.1920
  117MOL   C31044622   5.471   2.716   0.559  0.5592  0.4254  0.5248
  117MOL   C31144623   5.488   2.817   0.439  0.7301 -0.1431  0.1738
  117MOL   C31244624   5.432   2.775   0.302 -0.3035 -0.0854 -0.1789
  117MOL   H31344625   5.838   2.441   0.415 -2.3592  3.3498  0.9701
  117MOL   H31444626   5.682   2.368   0.394 -0.4229 -0.4583  0.9896
  117MOL   H31544627   5.663   2.411   0.652  1.7766 -2.3162 -0.4104
  117MOL   H31644628   5.485   2.513   0.589 -0.3927  0.1837 -0.5510
  117MOL   H31744629   5.527   2.548   0.421 -0.9115  1.2029 -0.5063
  117MOL   H31844630   5.513   2.764   0.647  1.1214  0.2424  0.3618
  117MOL   H31944631   5.367   2.700   0.586 -0.0124  0.6239 -1.4638
  117MOL   H32044632   5.441   2.912   0.464  1.5847  1.2404 -3.1749
  117MOL   H32144633   5.593   2.836   0.416  1.1114 -2.0537  0.2076
  117MOL   H32244634   5.487   2.705   0.238 -0.8653  0.5632 -1.4069
  117MOL   H32344635   5.422   2.862   0.237  3.1629  0.7914  0.3863
  117MOL   H32444636   5.332   2.733   0.311  0.4883 -1.8286  0.6190
  117MOL   C32544637   5.856   2.523   0.669  0.1748 -0.2310 -0.7117
  117MOL   C32644638   5.828   2.566   0.810 -0.0394 -0.2174  0.2702
  117MOL   O32744639   5.826   2.445   0.882 -0.1647  0.6302 -0.1405
  117MOL   C32844640   5.699   2.416   0.943  0.3185  0.1762  0.3346
  117MOL   C32944641   5.702   2.293   1.024  0.0598 -0.5545  0.2977
  117MOL   C33044642   5.805   2.299   1.136 -0.2026  0.7028  0.5617
  117MOL   C33144643   5.783   2.407   1.242 -0.0327  0.7049  0.4455
  117MOL   H33244644   5.908   2.599   0.611  0.4084 -0.8028 -1.2644
  117MOL   H33344645   5.929   2.443   0.676 -0.3285 -0.6432 -0.1081
  117MOL   H33444646   5.730   2.613   0.809 -0.8621 -1.7674  3.1449
  117MOL   H33544647   5.622   2.404   0.866  2.4603 -1.5395 -1.5889
  117MOL   H33644648   5.675   2.501   1.007  2.3598 -0.5354  2.0595
  117MOL   H33744649   5.603   2.271   1.067  0.2798 -1.5106  0.3211
  117MOL   H33844650   5.717   2.213   0.951 -0.7136 -2.5167  2.2180
  117MOL   H33944651   5.902   2.320   1.092  0.3730 -1.7924  0.5532
  117MOL   H34044652   5.820   2.204   1.188 -0.8684  1.0996  1.4978
  117MOL   H34144653   5.691   2.387   1.296 -0.2036  0.0975 -0.0783
  117MOL   H34244654   5.776   2.505   1.194 -2.0230 -0.3238 -1.4496
  117MOL   H34344655   5.862   2.412   1.317 -0.2316 -0.0686  0.7026
  117MOL   C34444656   5.942   2.645   0.872  0.0046 -0.3505  0.1266
  117MOL   C34544657   5.904   2.722   1.006  0.1542 -0.0701 -0.2522
  117MOL   O34644658   5.870   2.861   0.989  0.3227  0.3332  0.0675
  117MOL   C34744659   5.744   2.875   0.930  0.1959  0.2910  0.2851
  117MOL   C34844660   5.700   3.016   0.929 -0.2549 -0.0045 -0.0312
  117MOL   C34944661   5.691   3.075   1.063 -0.0064  0.1151  0.4379
  117MOL   C35044662   5.635   3.219   1.052 -0.2882  0.7098  0.3498
  117MOL   H35144663   6.037   2.592   0.882  0.3894  0.0282 -1.4097
  117MOL   H35244664   5.968   2.725   0.803  0.9281 -0.5713  0.2191
  117MOL   H35344665   5.825   2.663   1.055 -0.4336  0.5372 -0.4640
  117MOL   H35444666   5.671   2.807   0.975 -2.0447  1.5894 -1.2716
  117MOL   H35544667   5.750   2.837   0.828  0.0068 -0.3870  0.5264
  117MOL   H35644668   5.602   3.012   0.882  1.2178 -2.9428 -3.0174
  117MOL   H35744669   5.775   3.067   0.867 -0.2844  0.3393  0.2108
  117MOL   H35844670   5.632   3.018   1.135  1.4257  2.2419  3.4372
  117MOL   H35944671   5.788   3.094   1.109 -0.8236  4.3200  0.6282
  117MOL   H36044672   5.617   3.263   1.150 -2.6700  2.0494 -0.6397
  117MOL   H36144673   5.550   3.226   0.984  0.2032 -1.9907 -0.6161
  117MOL   H36244674   5.709   3.283   1.004  0.9295 -2.3907 -2.0772
  117MOL   C36344675   6.028   2.732   1.099 -0.5383  0.4808  0.3347
  117MOL   C36444676   6.065   2.600   1.174 -0.0253 -0.0975 -0.5058
  117MOL   O36544677   6.192   2.621   1.221 -0.3034 -0.2959  0.0888
  117MOL   C36644678   6.256   2.516   1.279 -0.0435  0.5001 -0.0944
  117MOL   C36744679   6.405   2.538   1.267 -0.0794 -0.1727  0.7778
  117MOL   C36844680   6.446   2.544   1.115  0.1584 -0.1625 -0.1493
  117MOL   C36944681   6.593   2.559   1.092 -0.4980 -0.6548 -0.4100
  117MOL   H37044682   5.999   2.804   1.175 -2.7337  0.3209 -0.3145
  117MOL   H37144683   6.120   2.751   1.044 -0.1414  0.1366  0.8720
  117MOL   H37244684   6.067   2.513   1.109 -0.2593  0.3521 -1.1210
  117MOL   H37344685   6.243   2.414   1.242 -1.8655  0.6504  0.0921
  117MOL   H37444686   6.215   2.514   1.380 -0.4914 -0.2975 -0.2872
  117MOL   H37544687   6.455   2.458   1.322 -0.2011  0.4007  1.7227
  117MOL   H37644688   6.435   2.632   1.312 -1.0078 -0.5182  2.1563
  117MOL   H37744689   6.409   2.640   1.079  0.1638  0.3193  1.0813
  117MOL   H37844690   6.397   2.475   1.047  0.7744  0.5108 -1.2760
  117MOL   H37944691   6.641   2.625   1.164  2.4245 -0.9221 -2.0216
  117MOL   H38044692   6.635   2.458   1.094 -0.9807 -0.9146 -2.1393
  117MOL   H38144693   6.615   2.612   0.999  3.3297 -0.3928  0.5722
  117MOL   H38244694   6.001   2.579   1.260 -0.9275 -2.0189 -1.6008
  118MOL     C144695   3.092   3.975   0.207  0.2793  0.4225 -0.3144
  118MOL     C244696   3.035   4.020   0.344 -0.2133  0.6193 -0.1193
  118MOL     O344697   3.104   3.951   0.445  0.6099  0.0593  0.0063
  118MOL     C444698   3.020   3.853   0.507  0.2157 -0.0386  0.5530
  118MOL     C544699   3.117   3.773   0.595  0.0316  0.5909  0.3715
  118MOL     C644700   3.046   3.683   0.695 -0.0146 -0.0064 -0.1674
  118MOL     C744701   3.154   3.601   0.766 -0.1171  0.1224  0.0462
  118MOL     H844702   3.201   3.971   0.214  0.2029 -1.8064 -0.1449
  118MOL     H944703   3.053   3.882   0.167  1.8006 -0.0685 -0.7090
  118MOL    H1044704   2.926   4.017   0.339 -0.1870 -1.8377  0.3531
  118MOL    H1144705   2.934   3.903   0.553 -1.4982 -1.2034 -1.2684
  118MOL    H1244706   2.963   3.796   0.434 -1.0517  1.9025 -0.0206
  118MOL    H1344707   3.177   3.846   0.647 -0.3370  1.4591 -0.3972
  118MOL    H1444708   3.180   3.704   0.538 -1.2737 -0.0970 -0.2814
  118MOL    H1544709   2.971   3.627   0.640  0.8999 -1.0503 -0.3689
  118MOL    H1644710   2.998   3.746   0.770 -0.2911 -0.4046 -0.0133
  118MOL    H1744711   3.211   3.671   0.827  0.2920 -1.7658  1.9044
  118MOL    H1844712   3.222   3.542   0.704 -0.1572 -0.2874  0.3840
  118MOL    H1944713   3.114   3.537   0.845 -2.1803 -1.8480 -2.4919
  118MOL    H2044714   3.061   4.043   0.128 -0.5618  0.6101  0.1716
  118MOL    C2144715   3.064   4.167   0.378 -0.6535  0.7221 -1.2038
  118MOL    C2244716   2.985   4.278   0.311 -0.4523 -0.1080  0.0934
  118MOL    O2344717   2.846   4.253   0.343  0.0872  0.4839  0.2628
  118MOL    C2444718   2.754   4.314   0.248  0.1128  0.7933  0.4772
  118MOL    C2544719   2.663   4.211   0.180 -0.2657  0.8321 -0.5407
  118MOL    C2644720   2.577   4.286   0.073 -0.5067 -0.6058  0.0810
  118MOL    C2744721   2.453   4.217   0.040 -0.6740 -0.1111 -0.3961
  118MOL    H2844722   3.171   4.185   0.369 -0.6478  1.0843 -0.4521
  118MOL    H2944723   3.045   4.181   0.484 -3.2287 -1.9682 -1.2463
  118MOL    H3044724   2.998   4.255   0.205 -0.7799  0.7400 -0.1393
  118MOL    H3144725   2.796   4.384   0.175 -0.3830  0.7916  0.1896
  118MOL    H3244726   2.693   4.375   0.314  2.8774  3.5956  0.6183
  118MOL    H3344727   2.721   4.133   0.129  0.1960  0.2650  0.8386
  118MOL    H3444728   2.604   4.163   0.258 -1.3081  1.1102 -1.1393
  118MOL    H3544729   2.541   4.382   0.110 -0.1008 -1.3001  2.3127
  118MOL    H3644730   2.625   4.291   7.777 -0.3422  1.7000  0.2503
  118MOL    H3744731   2.394   4.275   7.770 -0.5496 -2.5358 -2.5523
  118MOL    H3844732   2.492   4.127   7.793  0.1339  1.7650 -3.3643
  118MOL    H3944733   2.393   4.196   0.128 -0.0468  2.1609  0.5994
  118MOL    C4044734   3.033   4.424   0.339  0.2393 -0.3221 -0.1020
  118MOL    C4144735   3.181   4.451   0.327  0.1089  0.6666  0.0763
  118MOL    O4244736   3.195   4.594   0.342  0.0316 -0.8244  0.4611
  118MOL    C4344737   3.196   4.645   0.471  0.0161 -0.2844  0.2508
  118MOL    C4444738   3.148   4.795   0.464  0.1097  0.1666 -0.3198
  118MOL    C4544739   3.024   4.831   0.380 -0.0635  0.5957  0.6272
  118MOL    C4644740   2.984   4.974   0.384  0.6847  0.3304 -0.0474
  118MOL    H4744741   3.000   4.442   0.441  1.4723  0.0154  0.2458
  118MOL    H4844742   2.985   4.497   0.274  0.8043  0.6440  0.5468
  118MOL    H4944743   3.237   4.397   0.403  0.6727  0.7463 -0.2760
  118MOL    H5044744   3.302   4.652   0.493 -0.3477  0.5947  1.7876
  118MOL    H5144745   3.129   4.598   0.543  1.5452 -1.9759  0.6177
  118MOL    H5244746   3.225   4.841   0.402 -1.6574 -2.2746 -4.5337
  118MOL    H5344747   3.149   4.851   0.558  1.1773  1.6613 -1.2000
  118MOL    H5444748   2.943   4.777   0.429  0.0672 -0.0809  0.1052
  118MOL    H5544749   3.019   4.782   0.283 -0.8040  0.6162  0.6497
  118MOL    H5644750   2.974   4.983   0.492  0.6455 -0.7736  0.0528
  118MOL    H5744751   3.060   5.048   0.357 -0.6926  1.1710 -1.7024
  118MOL    H5844752   2.895   4.995   0.325  1.2376  0.6280 -0.7937
  118MOL    C5944753   3.228   4.414   0.185 -0.0168 -0.5258  0.3014
  118MOL    C6044754   3.381   4.406   0.176 -0.5679 -1.1134 -0.1076
  118MOL    O6144755   3.413   4.365   0.044 -0.4085 -0.1489  0.0263
  118MOL    C6244756   3.416   4.229   0.023  1.0035 -0.0668  0.0681
  118MOL    C6344757   3.525   4.196   7.726 -0.8399  0.1246 -0.8883
  118MOL    C6444758   3.501   4.253   7.581 -0.1252  0.0398  0.3081
  118MOL    C6544759   3.614   4.205   7.496  0.0131  0.1362  0.7173
  118MOL    H6644760   3.206   4.310   0.162 -1.1728 -0.0204 -0.9504
  118MOL    H6744761   3.177   4.470   0.106 -1.7944 -2.0255  0.3582
  118MOL    H6844762   3.414   4.336   0.253 -0.2718 -0.3161  0.4982
  118MOL    H6944763   3.319   4.199   7.786  1.2158  0.5283 -0.9338
  118MOL    H7044764   3.423   4.172   0.116 -1.4173 -0.4520  0.0516
  118MOL    H7144765   3.616   4.248   7.757 -1.6438  1.3052 -0.5074
  118MOL    H7244766   3.536   4.088   7.713 -0.9152  0.1719 -1.3613
  118MOL    H7344767   3.402   4.227   7.544  0.5745 -2.8264  0.3439
  118MOL    H7444768   3.508   4.362   7.589 -1.8533  0.3793 -2.3873
  118MOL    H7544769   3.600   4.098   7.489  1.1007 -0.3008  4.4732
  118MOL    H7644770   3.615   4.256   7.399  2.1375  0.3247  0.8178
  118MOL    H7744771   3.709   4.245   7.531  1.2625 -1.3549 -0.9037
  118MOL    C7844772   3.460   4.539   0.179  0.0316  0.2376  0.0115
  118MOL    C7944773   3.613   4.515   0.185 -0.8045 -0.0528  0.0325
  118MOL    O8044774   3.643   4.466   0.315 -0.7330  0.0960 -0.0246
  118MOL    C8144775   3.761   4.386   0.308  0.9423 -0.4282 -0.3096
  118MOL    C8244776   3.814   4.350   0.448 -0.3549 -0.3669 -0.9278
  118MOL    C8344777   3.887   4.472   0.508  0.1019  0.3280 -0.1800
  118MOL    C8444778   3.958   4.447   0.644 -0.8888 -0.5493 -0.2183
  118MOL    H8544779   3.436   4.608   0.260  2.2770  0.7723  0.2456
  118MOL    H8644780   3.424   4.597   0.095 -0.0611  1.2578  0.7430
  118MOL    H8744781   3.635   4.440   0.108 -0.8331 -1.1641  1.0837
  118MOL    H8844782   3.840   4.436   0.251 -0.6760  1.5869 -0.8421
  118MOL    H8944783   3.735   4.295   0.255  1.3479 -0.2237 -0.8673
  118MOL    H9044784   3.740   4.339   0.528  1.3849 -0.9520  0.6542
  118MOL    H9144785   3.879   4.262   0.443 -0.0705 -0.1515 -0.9946
  118MOL    H9244786   3.813   4.552   0.513 -1.2750 -0.9801  0.6343
  118MOL    H9344787   3.967   4.500   0.440  0.3323  1.0615  0.3880
  118MOL    H9444788   4.012   4.538   0.671 -2.2671  0.3802 -0.5647
  118MOL    H9544789   3.891   4.417   0.725 -0.0548  1.0523  1.1043
  118MOL    H9644790   4.019   4.357   0.633 -1.9132 -1.5077  1.6279
  118MOL    C9744791   3.683   4.648   0.146  0.1127 -1.6112  0.1887
  118MOL    C9844792   3.686   4.683   7.801  0.3848  0.3286  0.4677
  118MOL    O9944793   3.708   4.827   7.793 -0.2063 -0.2821  0.2249
  118MOL   C10044794   3.833   4.877   0.041  0.2342 -0.2755 -0.1432
  118MOL   C10144795   3.834   5.031   0.058  1.3615  0.4055 -0.3454
  118MOL   C10244796   3.813   5.105   7.722 -0.5826 -0.7356 -0.9087
  118MOL   C10344797   3.878   5.249   7.701 -0.2783  0.9577 -0.5084
  118MOL   H10444798   3.781   4.656   0.194  0.7454 -0.3890 -1.2762
  118MOL   H10544799   3.618   4.726   0.186  0.5323 -2.1616  2.0016
  118MOL   H10644800   3.584   4.672   7.763 -0.2484  2.1270  1.5616
  118MOL   H10744801   3.926   4.844   7.797  0.9371  0.6649  0.5820
  118MOL   H10844802   3.837   4.854   0.148  0.8589 -0.0848 -0.1235
  118MOL   H10944803   3.923   5.078   0.100  0.6460  3.0633 -1.6515
  118MOL   H11044804   3.756   5.058   0.129  0.8129 -1.3026 -0.2714
  118MOL   H11144805   3.708   5.105   7.693 -0.4069  0.0706 -1.5416
  118MOL   H11244806   3.872   5.065   7.639 -0.7874 -0.6812 -1.0780
  118MOL   H11344807   3.835   5.299   7.614 -2.2564 -0.6769 -0.5221
  118MOL   H11444808   3.863   5.316   7.786 -1.4176  1.2204 -0.9104
  118MOL   H11544809   3.987   5.252   7.698 -0.2594  0.9222  0.0836
  118MOL   C11644810   3.787   4.602   7.720 -0.0213  0.3403  0.2711
  118MOL   C11744811   3.808   4.653   7.575  0.2581 -0.4091 -0.0410
  118MOL   O11844812   3.917   4.570   7.540 -0.1735 -0.1881 -0.2183
  118MOL   C11944813   3.994   4.623   7.435  0.2807 -0.3012  0.1134
  118MOL   C12044814   4.114   4.530   7.433 -0.1510 -0.2093 -0.3042
  118MOL   C12144815   4.224   4.574   7.336 -0.2808 -0.6942  0.3017
  118MOL   C12244816   4.352   4.509   7.355 -0.4178  0.0566 -0.5402
  118MOL   H12344817   3.877   4.601   7.782 -1.5970 -0.7529  2.6344
  118MOL   H12444818   3.751   4.499   7.722  1.0971 -0.0702 -0.1284
  118MOL   H12544819   3.834   4.759   7.576  1.7255 -0.7593  1.8661
  118MOL   H12644820   4.022   4.722   7.473  1.2175 -0.7384  0.5820
  118MOL   H12744821   3.946   4.615   7.337 -0.0391  0.5411  0.1970
  118MOL   H12844822   4.087   4.427   7.406 -1.3387 -0.2852  1.0716
  118MOL   H12944823   4.161   4.511   7.529  0.0873 -1.3562 -0.6319
  118MOL   H13044824   4.193   4.562   7.232 -0.6003 -2.4319  0.5770
  118MOL   H13144825   4.246   4.680   7.348  0.7259 -0.9754  0.9417
  118MOL   H13244826   4.438   4.575   7.347 -0.5104 -0.0920 -3.2247
  118MOL   H13344827   4.365   4.433   7.278  0.5789 -0.1390 -0.1802
  118MOL   H13444828   4.354   4.455   7.449  0.9255 -2.3726 -1.8928
  118MOL   C13544829   3.689   4.632   7.477 -0.8103  0.8719 -0.3512
  118MOL   C13644830   3.664   4.755   7.387  0.4961  1.0585  0.1828
  118MOL   O13744831   3.594   4.729   7.268  0.1806  0.1128  0.5826
  118MOL   C13844832   3.656   4.650   7.170  1.0081  0.1113  0.0874
  118MOL   C13944833   3.597   4.505   7.173 -0.3457  0.0986  0.4319
  118MOL   C14044834   3.444   4.507   7.158  0.2693 -0.4474  0.0398
  118MOL   C14144835   3.385   4.362   7.183  0.2381 -0.7280 -0.0603
  118MOL   H14244836   3.595   4.613   7.529 -0.5280 -1.9425 -0.8005
  118MOL   H14344837   3.717   4.545   7.417 -0.6257  1.0174 -0.4781
  118MOL   H14444838   3.758   4.802   7.356  1.1420 -1.0445 -1.1575
  118MOL   H14544839   3.765   4.652   7.182  0.7266 -1.1381  3.6553
  118MOL   H14644840   3.632   4.692   7.073 -0.9891 -3.2730 -0.9880
  118MOL   H14744841   3.625   4.453   7.264  0.0746  1.4343  1.0839
  118MOL   H14844842   3.634   4.452   7.086  0.1481  3.4526 -1.5077
  118MOL   H14944843   3.392   4.579   7.221 -0.0568 -0.6226 -0.0291
  118MOL   H15044844   3.418   4.542   7.058 -0.5135  2.1267  1.1042
  118MOL   H15144845   3.405   4.317   7.280 -1.4684 -3.4979 -0.9561
  118MOL   H15244846   3.277   4.377   7.175  0.5543  1.6754 -0.3381
  118MOL   H15344847   3.424   4.293   7.109  2.5267  1.5485 -1.0455
  118MOL   C15444848   3.606   4.873   7.463 -0.2549  0.0597 -0.1770
  118MOL   C15544849   3.562   4.989   7.371  0.0952 -0.7466 -0.3421
  118MOL   O15644850   3.687   5.037   7.323  0.0701  0.4545  0.5073
  118MOL   C15744851   3.724   5.031   7.184 -0.1509  0.4676 -0.4232
  118MOL   C15844852   3.873   5.083   7.172 -0.4841  0.0266 -0.1571
  118MOL   C15944853   3.968   5.014   7.265 -0.5909 -0.8515  0.1108
  118MOL   C16044854   4.016   4.888   7.208 -0.6408 -0.1485 -0.3016
  118MOL   H16144855   3.676   4.906   7.540  0.2512 -1.2441 -0.0523
  118MOL   H16244856   3.522   4.832   7.519  1.0079 -3.6098 -0.7849
  118MOL   H16344857   3.503   4.942   7.293 -0.2338  2.0960 -1.8692
  118MOL   H16444858   3.717   4.929   7.145  1.5942  0.6943 -1.3319
  118MOL   H16544859   3.661   5.090   7.118 -0.6969 -0.0828 -0.4011
  118MOL   H16644860   3.883   5.191   7.186  3.7603 -0.1501 -0.9267
  118MOL   H16744861   3.899   5.057   7.069 -0.6362 -0.5170 -0.0584
  118MOL   H16844862   4.059   5.073   7.273  0.7135 -3.0265  2.1304
  118MOL   H16944863   3.931   5.014   7.368  0.0144 -2.0882  0.3343
  118MOL   H17044864   4.073   4.818   7.268  0.8388 -0.5198 -2.0853
  118MOL   H17144865   3.933   4.828   7.173 -0.6613  0.3714 -1.1579
  118MOL   H17244866   4.075   4.927   7.124  1.3055 -0.8073  0.7214
  118MOL   C17344867   3.494   5.110   7.444 -0.3373 -0.4790  0.0593
  118MOL   C17444868   3.346   5.091   7.458 -0.7553  0.0910 -0.6226
  118MOL   O17544869   3.306   4.976   7.544 -0.3296 -0.3925  0.0149
  118MOL   C17644870   3.188   4.909   7.500 -0.6707 -0.4059  0.6264
  118MOL   C17744871   3.133   4.823   7.619  0.8078  0.2935  0.0037
  118MOL   C17844872   3.237   4.718   7.672 -0.0837  0.5169  0.1611
  118MOL   C17944873   3.290   4.606   7.575 -0.0364 -0.5561 -0.2095
  118MOL   H18044874   3.514   5.202   7.389  1.4567 -1.2466 -0.6308
  118MOL   H18144875   3.544   5.128   7.539  1.1055 -0.8215 -0.6249
  118MOL   H18244876   3.311   5.066   7.358  0.4563 -1.3867 -0.6891
  118MOL   H18344877   3.220   4.838   7.424  3.7349  2.0049  0.0684
  118MOL   H18444878   3.115   4.983   7.467  0.0656 -0.9569 -2.3211
  118MOL   H18544879   3.038   4.774   7.593 -0.0519  1.6927  0.4688
  118MOL   H18644880   3.108   4.883   7.706  0.8126 -0.1345  0.3019
  118MOL   H18744881   3.322   4.775   7.708 -0.3577  0.3022  1.1923
  118MOL   H18844882   3.192   4.674   7.761  0.9026  0.4704  0.6445
  118MOL   H18944883   3.208   4.577   7.508  0.3441 -0.3539 -0.7692
  118MOL   H19044884   3.377   4.636   7.516  0.5829 -2.4975 -0.3132
  118MOL   H19144885   3.322   4.514   7.625  0.7642 -0.6542 -0.8956
  118MOL   C19244886   3.268   5.218   7.506  0.1523 -0.2098 -0.3438
  118MOL   C19344887   3.257   5.336   7.403 -0.1668 -0.5384 -0.2597
  118MOL   O19444888   3.119   5.348   7.370 -0.0614  0.2770 -0.0377
  118MOL   C19544889   3.073   5.268   7.268  0.7486  0.7604 -0.4937
  118MOL   C19644890   2.917   5.251   7.289  0.4127 -0.5040  0.3344
  118MOL   C19744891   2.838   5.378   7.299 -0.2311 -0.6477  0.4866
  118MOL   C19844892   2.692   5.363   7.323 -0.1337 -0.0647 -0.1858
  118MOL   H19944893   3.302   5.250   7.605 -1.3532  0.7102 -0.1028
  118MOL   H20044894   3.166   5.191   7.532  0.4732 -1.2180 -0.1162
  118MOL   H20144895   3.323   5.321   7.317  1.2767  0.5751  0.6222
  118MOL   H20244896   3.132   5.177   7.271  0.1332  0.4006  0.8581
  118MOL   H20344897   3.099   5.330   7.182 -1.5182  2.2495 -0.1578
  118MOL   H20444898   2.877   5.195   7.204  0.2005  0.0929  0.0377
  118MOL   H20544899   2.899   5.186   7.375 -0.0437  1.2066  1.5502
  118MOL   H20644900   2.856   5.435   7.208 -0.3648  0.7962  1.3550
  118MOL   H20744901   2.871   5.437   7.384 -1.2323 -3.1976  2.7155
  118MOL   H20844902   2.657   5.331   7.421  2.3864  0.4049  0.8979
  118MOL   H20944903   2.647   5.461   7.310 -1.3658  0.0585  4.1356
  118MOL   H21044904   2.645   5.291   7.256 -0.0407  1.0606 -1.4875
  118MOL   C21144905   3.301   5.481   7.456 -0.4817 -0.2680 -0.2351
  118MOL   C21244906   3.453   5.479   7.515 -0.1393 -0.0013 -0.2881
  118MOL   O21344907   3.543   5.496   7.410 -0.1390  0.2982 -0.0982
  118MOL   C21444908   3.670   5.442   7.417 -0.9150  0.3024  0.1272
  118MOL   C21544909   3.737   5.470   7.283 -0.4539 -0.2280  0.3002
  118MOL   C21644910   3.654   5.419   7.158  0.0709  0.4034  0.5550
  118MOL   C21744911   3.711   5.463   7.022  0.0162 -0.2233  0.3147
  118MOL   H21844912   3.239   5.515   7.538 -1.7183  0.0059 -1.2642
  118MOL   H21944913   3.290   5.560   7.381 -0.2047  1.9773  2.0253
  118MOL   H22044914   3.478   5.381   7.554  0.4503  0.2051 -0.1530
  118MOL   H22144915   3.732   5.488   7.493 -0.3552  0.6841 -0.5595
  118MOL   H22244916   3.675   5.335   7.437 -1.2637  0.3729  0.6025
  118MOL   H22344917   3.756   5.575   7.261  1.5906 -0.5114  0.6240
  118MOL   H22444918   3.836   5.425   7.281 -0.5600 -0.4317 -0.3611
  118MOL   H22544919   3.551   5.455   7.169 -0.1419 -0.0886  0.1666
  118MOL   H22644920   3.650   5.311   7.174  2.6250  0.3806  1.1642
  118MOL   H22744921   3.737   5.568   7.019  0.0592 -0.2796 -1.7855
  118MOL   H22844922   3.637   5.455   6.942  0.7600  2.1081 -0.6491
  118MOL   H22944923   3.801   5.403   7.007 -0.5965 -1.2907  0.8549
  118MOL   C23044924   3.479   5.594   7.615 -0.0179  0.6968 -0.2467
  118MOL   C23144925   3.435   5.558   7.756  0.2088  0.1187  0.6234
  118MOL   O23244926   3.498   5.436   7.788  0.4096  0.2715  0.1551
  118MOL   C23344927   3.417   5.346   0.064  0.4716 -0.1898  0.3764
  118MOL   C23444928   3.480   5.209   0.075  0.4458 -0.1360 -0.4518
  118MOL   C23544929   3.391   5.107   0.144  0.3230  0.5754  0.5919
  118MOL   C23644930   3.464   4.973   0.189 -0.9547 -0.1748 -0.1509
  118MOL   H23744931   3.425   5.681   7.577 -1.3283  0.5123  1.1520
  118MOL   H23844932   3.585   5.619   7.611  0.0061  1.2534  2.7954
  118MOL   H23944933   3.326   5.558   7.765 -0.0313  0.8451 -1.9472
  118MOL   H24044934   3.385   5.381   0.162  0.2409  2.9770 -0.7986
  118MOL   H24144935   3.319   5.339   0.018  1.3361 -1.8489 -1.2640
  118MOL   H24244936   3.508   5.167   7.780 -0.0177  0.5595 -0.9005
  118MOL   H24344937   3.576   5.229   0.121  0.2620  0.4958 -0.3289
  118MOL   H24444938   3.301   5.088   0.086  0.4178 -1.7944  1.1901
  118MOL   H24544939   3.363   5.155   0.238  0.2605 -0.1593  0.9488
  118MOL   H24644940   3.560   5.004   0.231 -1.3853 -0.5086  1.1101
  118MOL   H24744941   3.471   4.911   0.099  0.7876 -0.7664  0.3719
  118MOL   H24844942   3.402   4.916   0.258 -1.6739 -1.4715 -1.8189
  118MOL   C24944943   3.486   5.664   0.052  0.1537  0.4958 -0.7860
  118MOL   C25044944   3.431   5.803   0.038  0.1606  0.8494  0.0825
  118MOL   O25144945   3.292   5.809   0.037  0.2396 -0.0984  0.5268
  118MOL   C25244946   3.236   5.783   0.165  0.8367  0.0320  0.7751
  118MOL   C25344947   3.080   5.767   0.156 -0.3445 -0.6772 -0.0605
  118MOL   C25444948   3.028   5.743   0.294  0.4902  0.9176  0.2974
  118MOL   C25544949   2.877   5.727   0.292 -0.8088  0.4325 -0.4143
  118MOL   H25644950   3.594   5.659   0.037  0.7712 -0.5736  3.4656
  118MOL   H25744951   3.455   5.627   0.149 -0.8672  0.8247 -0.9823
  118MOL   H25844952   3.463   5.848   0.132  0.1411 -0.4188  0.6963
  118MOL   H25944953   3.266   5.868   0.225  0.3277  0.9757 -0.2874
  118MOL   H26044954   3.266   5.687   0.208 -0.8735 -0.7204  0.3596
  118MOL   H26144955   3.047   5.867   0.126 -1.6939 -1.5910 -1.7152
  118MOL   H26244956   3.051   5.696   0.079  0.9126 -1.1073 -0.1497
  118MOL   H26344957   3.069   5.652   0.338 -2.4436 -0.4218  0.4355
  118MOL   H26444958   3.063   5.825   0.357  0.9719  1.6023 -0.8489
  118MOL   H26544959   2.817   5.814   0.267  1.5664  2.8317  1.9662
  118MOL   H26644960   2.855   5.691   0.393 -0.6732 -0.9531 -0.8714
  118MOL   H26744961   2.853   5.649   0.220 -1.5164 -1.7828  2.1319
  118MOL   C26844962   3.492   5.887   7.725 -0.4918 -0.2119  0.2863
  118MOL   C26944963   3.488   6.038   7.751  0.6931 -0.1388  0.5710
  118MOL   O27044964   3.562   6.077   0.068 -0.2637 -0.1258 -0.2509
  118MOL   C27144965   3.485   6.153   0.162  0.0428 -0.5641 -0.2184
  118MOL   C27244966   3.581   6.187   0.278  0.2197  1.0142 -0.2234
  118MOL   C27344967   3.586   6.083   0.389 -0.0500 -0.1447 -0.2786
  118MOL   C27444968   3.662   6.132   0.514  0.5490  0.5380 -0.2444
  118MOL   H27544969   3.585   5.852   7.683  0.2651  0.9244  0.9675
  118MOL   H27644970   3.422   5.879   7.642 -0.4547 -4.0447  0.5660
  118MOL   H27744971   3.382   6.061   7.758  0.6275  0.1552 -1.2385
  118MOL   H27844972   3.441   6.244   0.121  2.3400  1.5357  1.8982
  118MOL   H27944973   3.397   6.101   0.201 -1.5650  1.9998 -0.3263
  118MOL   H28044974   3.681   6.217   0.246  0.9906  0.6139  1.7642
  118MOL   H28144975   3.542   6.275   0.328  0.4984  0.9022  0.1917
  118MOL   H28244976   3.634   5.997   0.341 -1.1923 -0.6714 -0.5004
  118MOL   H28344977   3.484   6.052   0.412 -0.3375  0.2118 -1.0638
  118MOL   H28444978   3.763   6.132   0.473  0.8082 -1.3232  0.3604
  118MOL   H28544979   3.665   6.061   0.596  2.0180  1.6479  0.6695
  118MOL   H28644980   3.628   6.230   0.548 -0.4789 -0.0668  0.5191
  118MOL   C28744981   3.557   6.109   7.634  0.2730 -0.3062 -0.1548
  118MOL   C28844982   3.522   6.258   7.611  0.3763  0.2465  0.3504
  118MOL   O28944983   3.387   6.257   7.559  0.2126  0.1102  0.2795
  118MOL   C29044984   3.320   6.376   7.542 -0.3342 -0.5089  0.2201
  118MOL   C29144985   3.168   6.366   7.553 -0.0009 -0.7759  0.1849
  118MOL   C29244986   3.090   6.488   7.513  0.0931 -0.0555 -0.2487
  118MOL   C29344987   2.939   6.483   7.499 -0.2489  0.0925  0.4767
  118MOL   H29444988   3.551   6.065   7.535  0.6018  0.0925 -0.3547
  118MOL   H29544989   3.662   6.083   7.648 -0.0288 -0.2852  2.5358
  118MOL   H29644990   3.520   6.308   7.708 -1.5670  1.8050 -0.4599
  118MOL   H29744991   3.348   6.449   7.618  2.5060 -2.3617  1.0210
  118MOL   H29844992   3.349   6.426   7.450  0.5468 -0.5146  0.4946
  118MOL   H29944993   3.142   6.346   7.657 -1.6999 -0.7263 -0.2241
  118MOL   H30044994   3.133   6.292   7.481 -0.0445 -1.7001  1.1455
  118MOL   H30144995   3.138   6.518   7.419 -0.2193  1.2230 -0.0060
  118MOL   H30244996   3.101   6.570   7.584 -2.9414  0.9258 -0.8570
  118MOL   H30344997   2.899   6.581   7.474  1.7740  1.1833  1.3402
  118MOL   H30444998   2.917   6.417   7.416 -0.0419  0.1921  0.3425
  118MOL   H30544999   2.879   6.446   7.582 -1.5056  0.8058 -0.1123
  118MOL   C30645000   3.629   6.317   7.519 -0.2102 -0.0901  0.1546
  118MOL   C30745001   3.761   6.346   7.577 -0.3151 -0.1506 -0.1321
  118MOL   O30845002   3.733   6.443   7.676  0.0406 -0.2434  0.1583
  118MOL   C30945003   3.809   6.440   7.794  0.4195 -0.0058 -0.0115
  118MOL   C31045004   3.820   6.581   0.040 -0.2708 -0.0842 -0.2676
  118MOL   C31145005   3.904   6.608   0.167 -0.1523 -0.2290 -0.5926
  118MOL   C31245006   3.885   6.746   0.230 -0.4206 -0.5677  0.6923
  118MOL   H31345007   3.628   6.248   7.435  0.5517  0.8672 -0.6383
  118MOL   H31445008   3.595   6.412   7.478  3.8877  0.0675 -3.1752
  118MOL   H31545009   3.801   6.259   7.629  0.6478  1.1388  1.3240
  118MOL   H31645010   3.910   6.408   7.769 -0.2378 -1.4345 -0.8877
  118MOL   H31745011   3.755   6.379   0.065  2.1768 -0.6287  0.7893
  118MOL   H31845012   3.727   6.637   0.047 -0.5774 -0.1122 -3.2772
  118MOL   H31945013   3.870   6.626   7.756 -1.1803 -0.4157 -0.9911
  118MOL   H32045014   3.875   6.532   0.239  0.0397 -0.0312 -0.3023
  118MOL   H32145015   4.007   6.607   0.132 -0.3977  1.4620 -1.4032
  118MOL   H32245016   3.978   6.791   0.264  0.9855 -2.8407 -0.0388
  118MOL   H32345017   3.822   6.752   0.318 -2.6014  0.3468 -0.8920
  118MOL   H32445018   3.840   6.822   0.167  1.1818  0.2083  0.4419
  118MOL   C32545019   3.860   6.402   7.482 -0.0136 -0.2401  0.7506
  118MOL   C32645020   3.913   6.305   7.372 -0.0354  0.0043 -0.6875
  118MOL   O32745021   4.013   6.379   7.300  0.0329  0.4884  0.1886
  118MOL   C32845022   4.034   6.337   7.162  0.2004 -0.2553  0.1367
  118MOL   C32945023   4.176   6.387   7.135 -0.4257  0.0237 -0.0823
  118MOL   C33045024   4.289   6.310   7.203  0.3626 -0.8501  0.3735
  118MOL   C33145025   4.431   6.363   7.173 -0.2094  0.0027 -1.1093
  118MOL   H33245026   3.940   6.447   7.541  1.2044 -2.3153  0.7570
  118MOL   H33345027   3.820   6.490   7.432 -0.0054  0.2337  1.5896
  118MOL   H33445028   3.842   6.271   7.297  0.3828 -0.6603 -0.7861
  118MOL   H33545029   3.972   6.399   7.098 -1.7663 -1.3065  0.9618
  118MOL   H33645030   4.014   6.234   7.134  3.1291 -0.8635  0.1862
  118MOL   H33745031   4.178   6.389   7.026 -2.0114 -0.1685 -0.1271
  118MOL   H33845032   4.184   6.491   7.167 -1.0095 -0.2397  0.9479
  118MOL   H33945033   4.279   6.206   7.171  2.4651 -1.4085  1.4639
  118MOL   H34045034   4.263   6.311   7.308  0.3223 -0.8973  0.3641
  118MOL   H34145035   4.451   6.351   7.067 -0.3835  0.6986 -1.2247
  118MOL   H34245036   4.501   6.297   7.224 -0.6492 -0.3466 -0.9473
  118MOL   H34345037   4.439   6.468   7.200  1.5031  0.0827 -1.9074
  118MOL   C34445038   3.976   6.176   7.432 -0.5719  0.5535 -0.1686
  118MOL   C34545039   3.884   6.050   7.434  0.9249  0.4014 -0.0798
  118MOL   O34645040   3.960   5.954   7.513 -0.2946  0.1036  0.0972
  118MOL   C34745041   3.908   5.927   7.639  0.9832 -0.3859 -0.0360
  118MOL   C34845042   4.026   5.887   7.725 -0.3532 -0.1927 -1.1002
  118MOL   C34945043   4.136   5.991   7.752  0.0053 -0.2711 -0.1730
  118MOL   C35045044   4.078   6.129   7.799 -0.4092 -0.1397  0.4942
  118MOL   H35145045   4.057   6.145   7.365  0.8284  0.4489  1.5555
  118MOL   H35245046   4.028   6.193   7.526 -0.7237 -0.4673  0.1071
  118MOL   H35345047   3.783   6.074   7.468  0.9504  0.5808 -0.1358
  118MOL   H35445048   3.832   5.849   7.640 -0.9064  1.4137  0.4463
  118MOL   H35545049   3.866   6.019   7.679  0.2837 -0.4822 -0.5309
  118MOL   H35645050   4.074   5.795   7.691 -0.1774 -1.5692  2.6919
  118MOL   H35745051   3.996   5.860   0.024  1.5792 -2.2157 -1.0259
  118MOL   H35845052   4.193   5.945   0.032  1.9223  0.7981 -0.8679
  118MOL   H35945053   4.194   6.001   7.660  0.5601  1.5943  0.3715
  118MOL   H36045054   3.993   6.129   0.066 -0.9123  2.6772 -0.0662
  118MOL   H36145055   4.037   6.182   7.713 -0.6730 -0.5877  0.3407
  118MOL   H36245056   4.146   6.195   0.051 -0.4998 -0.6429  1.2441
  118MOL   C36345057   3.861   5.986   7.293  0.1399  0.3245 -0.4526
  118MOL   C36445058   3.750   5.879   7.286  0.7700 -0.3407  0.1887
  118MOL   O36545059   3.627   5.938   7.305  0.1772 -0.9513  0.5761
  118MOL   C36645060   3.525   5.849   7.317 -0.4058 -0.7513 -0.5571
  118MOL   C36745061   3.386   5.913   7.310 -0.2741 -0.1902  0.3791
  118MOL   C36845062   3.360   5.980   7.177  0.0856 -0.0387  0.2102
  118MOL   C36945063   3.215   6.028   7.169  0.0038 -0.3361 -0.3540
  118MOL   H37045064   3.957   5.945   7.262 -0.4203 -0.3086 -1.3679
  118MOL   H37145065   3.843   6.067   7.222  3.2984  0.1503 -1.5234
  118MOL   H37245066   3.763   5.805   7.364 -0.2886 -1.0813 -0.3187
  118MOL   H37345067   3.538   5.789   7.406 -2.3226  0.0771  0.3265
  118MOL   H37445068   3.519   5.774   7.238 -2.3628 -1.9094  0.6256
  118MOL   H37545069   3.384   5.992   7.385  0.9503  0.4922 -0.2868
  118MOL   H37645070   3.321   5.830   7.336 -2.0863  1.8930  2.7652
  118MOL   H37745071   3.381   5.905   7.101  0.3662 -0.6650  0.9082
  118MOL   H37845072   3.423   6.069   7.169 -1.6167  1.1599 -0.1875
  118MOL   H37945073   3.195   6.066   7.069  0.7324  0.7077 -0.1170
  118MOL   H38045074   3.144   5.949   7.192 -1.9133  1.6884  0.8705
  118MOL   H38145075   3.189   6.106   7.241  0.5024  0.7763 -1.3607
  118MOL   H38245076   3.741   5.821   7.194  2.0794  2.1234 -1.5610
  119MOL     C145077   4.919   2.630   5.476  0.5308 -0.5921  0.0014
  119MOL     C245078   4.921   2.749   5.375  0.5403  0.0515 -0.4723
  119MOL     O345079   4.975   2.857   5.444  0.4206 -0.1232 -0.2061
  119MOL     C445080   4.879   2.961   5.470 -0.5778  0.3105  0.2695
  119MOL     C545081   4.947   3.074   5.552  0.2533 -0.1109  0.0083
  119MOL     C645082   4.843   3.187   5.585 -0.2426  0.5346  0.2408
  119MOL     C745083   4.750   3.148   5.701 -0.4946 -1.0216  1.0919
  119MOL     H845084   4.893   2.661   5.577  1.8216  0.5198 -0.0008
  119MOL     H945085   4.857   2.550   5.433  1.2172 -0.8472 -0.5297
  119MOL    H1045086   4.813   2.756   5.360  0.0815 -2.6869  1.3124
  119MOL    H1145087   4.826   2.999   5.382  0.2509 -0.0723 -0.4104
  119MOL    H1245088   4.801   2.917   5.530 -0.9371 -0.8920 -1.0634
  119MOL    H1345089   5.038   3.105   5.501 -0.2260  0.2527 -0.6345
  119MOL    H1445090   4.982   3.037   5.648 -1.2711  0.0435  0.6346
  119MOL    H1545091   4.785   3.194   5.493  0.5217 -1.9710 -0.4593
  119MOL    H1645092   4.878   3.289   5.598 -0.5853  0.7413 -0.4317
  119MOL    H1745093   4.682   3.077   5.653 -0.4896  1.2676 -2.5307
  119MOL    H1845094   4.677   3.222   5.733 -2.2744 -1.0862 -2.5617
  119MOL    H1945095   4.799   3.116   5.793  0.9141  0.0179  0.7148
  119MOL    H2045096   5.021   2.595   5.493  1.7337  2.6896 -0.1758
  119MOL    C2145097   4.999   2.710   5.241 -0.0351 -0.2258  0.8568
  119MOL    C2245098   4.915   2.609   5.153 -0.0588 -0.5257 -0.2885
  119MOL    O2345099   4.796   2.675   5.121  0.3133  0.1847  0.6861
  119MOL    C2445100   4.688   2.588   5.099  0.9464  0.2453  0.6260
  119MOL    C2545101   4.558   2.668   5.085  0.4338 -0.3028  0.0722
  119MOL    C2645102   4.539   2.742   4.948 -0.5102  0.0740  0.7361
  119MOL    C2745103   4.414   2.831   4.940 -0.0033 -0.3919 -0.1953
  119MOL    H2845104   5.090   2.666   5.281  0.9199  1.4336  0.5564
  119MOL    H2945105   5.024   2.794   5.177 -1.2000 -0.7367 -0.2974
  119MOL    H3045106   4.884   2.526   5.216  0.2401 -0.5223 -0.1336
  119MOL    H3145107   4.684   2.540   5.197  1.1596 -2.4766 -0.6665
  119MOL    H3245108   4.709   2.514   5.022 -0.4296  1.3843 -0.8890
  119MOL    H3345109   4.474   2.598   5.096  0.7530 -0.7292 -0.2044
  119MOL    H3445110   4.539   2.742   5.164 -1.3489 -0.1790 -0.4483
  119MOL    H3545111   4.626   2.808   4.945 -0.8330  0.4251 -1.8991
  119MOL    H3645112   4.556   2.676   4.863 -1.7191  0.4283  0.2151
  119MOL    H3745113   4.330   2.772   4.905  0.2147 -1.5024  1.1081
  119MOL    H3845114   4.393   2.881   5.035 -0.0627 -0.2251 -0.2972
  119MOL    H3945115   4.428   2.913   4.870 -1.8285 -1.5426 -1.9490
  119MOL    C4045116   4.990   2.560   5.023 -0.1712 -0.4576 -0.1442
  119MOL    C4145117   5.128   2.501   5.053 -0.2387  0.4068 -0.0445
  119MOL    O4245118   5.202   2.467   4.946 -0.8858  0.7071  0.1247
  119MOL    C4345119   5.285   2.572   4.894  0.5774 -0.3294  0.3758
  119MOL    C4445120   5.343   2.518   4.764 -0.5571  0.2418  0.3274
  119MOL    C4545121   5.456   2.419   4.786  0.2384 -0.2579  0.0556
  119MOL    C4645122   5.518   2.369   4.656 -0.1301  0.4982  0.3651
  119MOL    H4745123   4.994   2.647   4.958 -1.5130 -0.2910 -0.0204
  119MOL    H4845124   4.922   2.487   4.978  0.5837  0.1369 -2.3072
  119MOL    H4945125   5.178   2.582   5.107  0.0439 -0.2721  0.7169
  119MOL    H5045126   5.350   2.609   4.972  1.0925 -0.4014 -0.0175
  119MOL    H5145127   5.221   2.655   4.864 -1.1507 -2.4416 -2.0866
  119MOL    H5245128   5.385   2.601   4.707 -1.5928  0.7368  0.2786
  119MOL    H5345129   5.254   2.481   4.713  0.0212 -0.3936 -0.2434
  119MOL    H5445130   5.433   2.338   4.854 -2.0531  0.8512  0.6613
  119MOL    H5545131   5.528   2.484   4.834 -1.9001  0.8931  1.7973
  119MOL    H5645132   5.591   2.289   4.673  0.7355  0.6675 -2.3571
  119MOL    H5745133   5.438   2.323   4.599  0.4719 -0.8655  0.6054
  119MOL    H5845134   5.575   2.442   4.599  0.5957 -1.3566 -1.3409
  119MOL    C5945135   5.134   2.370   5.135  0.4640 -0.6407 -0.5423
  119MOL    C6045136   5.266   2.346   5.204  0.2368 -0.4576  0.1813
  119MOL    O6145137   5.268   2.439   5.315 -0.1274 -0.4897 -0.7197
  119MOL    C6245138   5.400   2.501   5.331 -0.8165  0.1802  0.0997
  119MOL    C6345139   5.399   2.604   5.442 -0.4479  0.1179  0.6517
  119MOL    C6445140   5.388   2.556   5.591 -0.4221  0.5186 -0.2793
  119MOL    C6545141   5.430   2.657   5.693 -0.3766 -0.0253 -0.3542
  119MOL    H6645142   5.042   2.366   5.194  0.5472  1.1783 -0.2495
  119MOL    H6745143   5.129   2.287   5.064 -0.0996  0.5337 -1.9022
  119MOL    H6845144   5.342   2.360   5.127 -0.6042  0.5690 -0.4701
  119MOL    H6945145   5.428   2.555   5.240 -2.1011 -1.2831 -1.1903
  119MOL    H7045146   5.476   2.424   5.329  1.0257  1.9939 -0.9905
  119MOL    H7145147   5.491   2.661   5.432  0.3743 -1.0434  1.4888
  119MOL    H7245148   5.323   2.679   5.419  1.4591  1.5935 -1.0019
  119MOL    H7345149   5.287   2.517   5.605 -0.1383 -0.3442 -0.5973
  119MOL    H7445150   5.459   2.475   5.607  1.1568  2.0749  0.7955
  119MOL    H7545151   5.432   2.602   5.786 -2.2135 -0.7594 -0.7165
  119MOL    H7645152   5.537   2.669   5.678  0.1105 -0.4471  2.6459
  119MOL    H7745153   5.377   2.752   5.698 -0.0372  0.0272  2.8798
  119MOL    C7845154   5.254   2.211   5.259 -0.5284 -0.3542 -0.8799
  119MOL    C7945155   5.281   2.104   5.157 -0.0513  0.2959 -0.0578
  119MOL    O8045156   5.232   1.977   5.203  0.2440  0.1623 -0.6107
  119MOL    C8145157   5.107   1.936   5.151  0.0544  0.2684 -0.8347
  119MOL    C8245158   5.122   1.880   5.010  0.1489 -0.0104 -0.2562
  119MOL    C8345159   5.170   1.735   5.031  0.3422  0.7156  0.5855
  119MOL    C8445160   5.216   1.669   4.898 -0.6077  0.2684  0.6514
  119MOL    H8545161   5.154   2.197   5.298 -1.0215  3.4859 -0.5884
  119MOL    H8645162   5.305   2.209   5.356  1.7902 -1.0411 -2.0742
  119MOL    H8745163   5.247   2.119   5.055 -0.6460 -0.1286  0.0709
  119MOL    H8845164   5.048   2.027   5.141 -1.6630 -0.9754 -2.4732
  119MOL    H8945165   5.056   1.872   5.223 -2.7771  0.6120 -2.4382
  119MOL    H9045166   5.027   1.884   4.957 -0.8337  1.6684  1.5885
  119MOL    H9145167   5.191   1.941   4.952 -0.5419 -0.2950 -1.3952
  119MOL    H9245168   5.095   1.666   5.072  0.0720  0.9123  0.4214
  119MOL    H9345169   5.259   1.739   5.093  0.4161  1.0654  0.4536
  119MOL    H9445170   5.277   1.580   4.911  1.9040  1.5023 -2.0752
  119MOL    H9545171   5.136   1.648   4.827  0.6685 -0.8775 -0.4518
  119MOL    H9645172   5.271   1.737   4.833 -0.5667 -1.6655 -1.3884
  119MOL    C9745173   5.434   2.092   5.142 -0.4886 -0.0892  0.2522
  119MOL    C9845174   5.483   2.012   5.023  0.0196 -0.0642  0.7072
  119MOL    O9945175   5.426   2.072   4.908  0.2866  0.3134 -0.7516
  119MOL   C10045176   5.440   2.003   4.792  0.1788  0.2158  0.1268
  119MOL   C10145177   5.324   2.038   4.701 -0.4267  0.5695  0.4883
  119MOL   C10245178   5.349   2.004   4.557  0.1613 -0.8323  0.3097
  119MOL   C10345179   5.259   2.095   4.465  0.4651  0.1178 -0.5645
  119MOL   H10445180   5.479   2.057   5.235 -0.0212  3.4714  1.4249
  119MOL   H10545181   5.475   2.192   5.126  1.8115 -1.0652 -0.1856
  119MOL   H10645182   5.442   1.911   5.029 -3.0266  1.1177  0.5971
  119MOL   H10745183   5.450   1.895   4.802 -1.1900  0.1571  0.9901
  119MOL   H10845184   5.525   2.051   4.742  0.4595 -0.3683  0.0415
  119MOL   H10945185   5.325   2.147   4.703 -1.2718  0.5667  4.3004
  119MOL   H11045186   5.231   1.996   4.741 -0.4851 -0.5212 -0.7371
  119MOL   H11145187   5.307   1.904   4.544 -0.8572 -0.4802  0.7525
  119MOL   H11245188   5.454   2.009   4.531  0.1331  0.7828  0.5058
  119MOL   H11345189   5.166   2.116   4.518  0.2433 -2.1787  0.0016
  119MOL   H11445190   5.315   2.188   4.454  0.5273  0.0587 -0.7447
  119MOL   H11545191   5.236   2.062   4.364  0.5898  2.3949 -1.3721
  119MOL   C11645192   5.640   1.986   5.032 -0.2520  0.7492  0.1570
  119MOL   C11745193   5.738   2.095   4.995  0.2241  0.1396 -0.1053
  119MOL   O11845194   5.713   2.202   5.082  0.0170  0.8033  0.7084
  119MOL   C11945195   5.757   2.331   5.055  0.0483 -0.9460 -0.0345
  119MOL   C12045196   5.752   2.402   5.192 -0.0822 -0.0628  0.7888
  119MOL   C12145197   5.814   2.538   5.181  0.4775  0.2680  0.6790
  119MOL   C12245198   5.803   2.608   5.309 -0.0046 -0.5580  0.1681
  119MOL   H12345199   5.656   1.956   5.135 -0.1321  0.0429 -0.0621
  119MOL   H12445200   5.663   1.898   4.971  0.4446  2.7382 -2.5532
  119MOL   H12545201   5.717   2.123   4.891  0.1766  0.5123  0.0037
  119MOL   H12645202   5.692   2.391   4.991  0.4787 -2.0163 -1.4907
  119MOL   H12745203   5.859   2.328   5.018  1.2895 -0.8860  3.1854
  119MOL   H12845204   5.789   2.347   5.278  1.0200  0.8453  0.9115
  119MOL   H12945205   5.646   2.421   5.208  0.0038  0.7316  0.4704
  119MOL   H13045206   5.917   2.534   5.146  1.0847  1.5867  2.2680
  119MOL   H13145207   5.754   2.588   5.105  1.9901  0.4371 -0.4339
  119MOL   H13245208   5.854   2.704   5.296 -0.3512 -0.3033  0.6561
  119MOL   H13345209   5.854   2.553   5.388  1.0735  0.8289  0.4588
  119MOL   H13445210   5.703   2.618   5.350 -0.2889 -0.5023 -0.5442
  119MOL   C13545211   5.880   2.051   4.999 -0.7396 -0.3737 -0.7057
  119MOL   C13645212   5.943   2.039   5.141  0.2423  0.0755 -0.3727
  119MOL   O13745213   5.995   1.909   5.147  0.5265  0.0491 -0.3410
  119MOL   C13845214   5.904   1.814   5.203 -0.3198 -0.3556  0.0648
  119MOL   C13945215   5.970   1.678   5.217  0.1546 -0.9013 -0.2480
  119MOL   C14045216   5.967   1.584   5.095 -0.9044 -0.6202 -0.3556
  119MOL   C14145217   6.061   1.467   5.107  0.0016 -0.6439 -0.2311
  119MOL   H14245218   5.934   2.126   4.939 -1.0448 -0.9152 -1.6725
  119MOL   H14345219   5.877   1.953   4.950  0.5309 -1.8091  1.9831
  119MOL   H14445220   5.871   2.058   5.220  0.1370  0.6696 -0.6081
  119MOL   H14545221   5.814   1.795   5.146 -0.1456  0.5562 -0.5190
  119MOL   H14645222   5.879   1.853   5.302  3.6061  0.2582  0.8881
  119MOL   H14745223   5.912   1.617   5.287 -0.3593 -1.4888 -1.1751
  119MOL   H14845224   6.071   1.691   5.255  0.9377 -2.1577 -1.8226
  119MOL   H14945225   5.865   1.551   5.074 -1.3240  0.7908 -0.5774
  119MOL   H15045226   6.005   1.631   5.005 -0.2202 -1.7936 -0.6852
  119MOL   H15145227   6.035   1.414   5.199 -1.7074 -0.6563 -0.6974
  119MOL   H15245228   6.048   1.403   5.019  2.0314  1.8751 -2.4585
  119MOL   H15345229   6.166   1.494   5.110 -0.4771  1.1474  1.4602
  119MOL   C15445230   6.055   2.139   5.173 -0.0615  0.4934  0.0432
  119MOL   C15545231   6.093   2.149   5.319  0.2842 -0.8974 -0.0044
  119MOL   O15645232   6.000   2.208   5.404 -0.5441 -0.3320 -0.2695
  119MOL   C15745233   5.937   2.125   5.504  0.5304  0.0055 -0.1262
  119MOL   C15845234   5.837   2.214   5.574 -0.3048  0.0502  0.2991
  119MOL   C15945235   5.913   2.315   5.660 -0.4609 -0.2657 -0.0588
  119MOL   C16045236   5.824   2.375   5.767  0.2063  0.2416 -0.2800
  119MOL   H16145237   6.007   2.234   5.148  1.6594  1.2257 -0.5462
  119MOL   H16245238   6.136   2.118   5.103  0.4890  1.6666  0.3179
  119MOL   H16345239   6.105   2.046   5.353 -1.2588 -0.6944  1.1755
  119MOL   H16445240   5.875   2.051   5.453 -0.2727 -0.3744  1.3467
  119MOL   H16545241   6.002   2.084   5.581  0.0951 -1.0942 -0.3401
  119MOL   H16645242   5.782   2.144   5.638 -1.2129  1.1563  0.7497
  119MOL   H16745243   5.763   2.262   5.511 -0.2606 -1.6555 -1.0956
  119MOL   H16845244   5.996   2.264   5.708  1.4632  2.3683 -0.4662
  119MOL   H16945245   5.950   2.398   5.599  0.7054  0.5240  1.6937
  119MOL   H17045246   5.881   2.445   5.828 -2.8059  1.2911  1.4326
  119MOL   H17145247   5.738   2.423   5.720 -0.5100 -0.5008  0.2555
  119MOL   H17245248   5.774   2.293   5.819 -0.5824  0.6726 -0.3414
  119MOL   C17345249   6.234   2.213   5.323  0.3464 -0.5504 -0.5966
  119MOL   C17445250   6.294   2.221   5.467  0.6420  0.2339 -0.6103
  119MOL   O17545251   6.318   2.083   5.506  0.1913 -0.7766  0.4601
  119MOL   C17645252   6.323   2.064   5.651  0.1272 -0.0554 -0.1261
  119MOL   C17745253   6.324   1.910   5.655  0.0579  0.0486 -0.2341
  119MOL   C17845254   6.181   1.853   5.620 -0.7309 -0.6539 -0.1029
  119MOL   C17945255   6.180   1.703   5.581  0.1049 -0.1446 -0.4643
  119MOL   H18045256   6.222   2.313   5.282 -1.1868 -0.3207  0.3521
  119MOL   H18145257   6.301   2.156   5.258  1.3428 -1.4410  1.1602
  119MOL   H18245258   6.229   2.272   5.538 -0.7154 -0.2691 -1.4614
  119MOL   H18345259   6.235   2.105   5.700 -2.2749 -2.3452 -2.3197
  119MOL   H18445260   6.412   2.107   5.697 -1.5377  0.4360  2.7942
  119MOL   H18545261   6.357   1.878   5.754  0.8629  1.2941 -0.0806
  119MOL   H18645262   6.395   1.875   5.581  1.1381  1.0657  0.2931
  119MOL   H18745263   6.116   1.875   5.705  3.0509  0.4578  2.6494
  119MOL   H18845264   6.159   1.909   5.530  2.6463  3.1251  1.2657
  119MOL   H18945265   6.226   1.631   5.649  1.0576  1.3727  0.5126
  119MOL   H19045266   6.078   1.671   5.558 -0.6602  0.4190  1.9870
  119MOL   H19145267   6.237   1.694   5.489  3.0256 -0.9092  1.3644
  119MOL   C19245268   6.432   2.294   5.466 -0.0585  0.4419 -0.0171
  119MOL   C19345269   6.431   2.445   5.446 -0.3500 -0.6997  0.2538
  119MOL   O19445270   6.416   2.506   5.573  0.1172  0.4533  0.0179
  119MOL   C19545271   6.280   2.545   5.592  0.9607 -0.3197  0.1570
  119MOL   C19645272   6.264   2.647   5.714  0.1265 -0.0584 -0.0492
  119MOL   C19745273   6.331   2.784   5.674 -1.1433  0.0823 -0.3579
  119MOL   C19845274   6.321   2.905   5.765  0.0649 -0.1875  0.6425
  119MOL   H19945275   6.491   2.263   5.380 -0.2520 -0.1450  0.0549
  119MOL   H20045276   6.501   2.267   5.547  2.3023  0.6983 -1.9043
  119MOL   H20145277   6.347   2.469   5.381 -0.9105 -1.4533  0.6937
  119MOL   H20245278   6.204   2.471   5.615  3.1674 -1.8946  2.6616
  119MOL   H20345279   6.246   2.591   5.499 -0.5442  0.1750  0.9257
  119MOL   H20445280   6.159   2.676   5.716  0.0908 -0.1847 -0.0634
  119MOL   H20545281   6.299   2.604   5.807 -0.9712 -0.6650  0.0986
  119MOL   H20645282   6.286   2.813   5.580  1.4033  1.9114 -1.0705
  119MOL   H20745283   6.433   2.762   5.643 -1.0618  1.2326 -0.9428
  119MOL   H20845284   6.221   2.949   5.759 -0.7274 -2.2404 -2.1070
  119MOL   H20945285   6.354   2.877   5.865  0.4010 -0.8212  0.3583
  119MOL   H21045286   6.393   2.978   5.727 -0.3197 -0.5202 -0.7780
  119MOL   C21145287   6.565   2.492   5.383 -0.4858  0.1178  0.4948
  119MOL   C21245288   6.692   2.493   5.482 -0.0305  0.7235  0.2312
  119MOL   O21345289   6.736   2.359   5.495  0.2727  0.1135 -0.8790
  119MOL   C21445290   6.787   2.316   5.628  0.2517 -0.0893 -0.0403
  119MOL   C21545291   6.795   2.166   5.617 -0.0417 -0.2237  0.3137
  119MOL   C21645292   6.815   2.078   5.749  0.3642  0.4644  0.8807
  119MOL   C21745293   6.800   1.926   5.737 -1.0980  0.1775 -0.0301
  119MOL   H21845294   6.532   2.593   5.356  0.4604  0.4595  0.6061
  119MOL   H21945295   6.590   2.448   5.287  1.2923  0.4726  0.7796
  119MOL   H22045296   6.665   2.545   5.574 -0.1522  0.5310  0.3031
  119MOL   H22145297   6.887   2.359   5.632  0.9068 -1.6592  1.3243
  119MOL   H22245298   6.737   2.351   5.718 -2.0314 -2.8551 -0.1241
  119MOL   H22345299   6.703   2.122   5.575  0.6327 -1.0357 -0.3430
  119MOL   H22445300   6.872   2.141   5.544  1.1689 -1.0658  1.8441
  119MOL   H22545301   6.734   2.101   5.819  0.9312 -1.2753  2.1382
  119MOL   H22645302   6.914   2.103   5.788  0.6877  0.3931  0.0984
  119MOL   H22745303   6.880   1.878   5.681 -0.2994 -1.1543  2.1785
  119MOL   H22845304   6.709   1.898   5.683 -1.2075  4.0715 -2.0747
  119MOL   H22945305   6.803   1.875   5.833 -2.0906 -1.6432 -0.9370
  119MOL   C23045306   6.802   2.578   5.413 -0.6400 -0.8444  0.1314
  119MOL   C23145307   6.780   2.731   5.416 -0.3232 -0.0101  0.1598
  119MOL   O23245308   6.833   2.772   5.544 -0.4478 -0.0074 -0.2383
  119MOL   C23345309   6.771   2.891   5.593 -0.4901 -0.2007 -0.2925
  119MOL   C23445310   6.800   2.912   5.744  0.2806  0.2632  0.2648
  119MOL   C23545311   6.767   2.794   5.833 -0.2605  0.0170  0.0899
  119MOL   C23645312   6.815   2.821   5.981 -0.4518 -0.3792 -0.3704
  119MOL   H23745313   6.824   2.541   5.313 -0.3884  0.8936 -0.4633
  119MOL   H23845314   6.893   2.553   5.468  1.5563 -0.4495 -3.1910
  119MOL   H23945315   6.676   2.757   5.397 -0.4494 -0.6749 -0.0734
  119MOL   H24045316   6.811   2.980   5.544  0.8243  0.3061  1.6190
  119MOL   H24145317   6.663   2.892   5.579 -0.8172  0.2230  2.0731
  119MOL   H24245318   6.907   2.927   5.755  0.5336  2.1984 -3.7603
  119MOL   H24345319   6.740   2.996   5.776  0.0767  0.9770 -1.9188
  119MOL   H24445320   6.820   2.708   5.793  0.2293  0.2364  0.2583
  119MOL   H24545321   6.660   2.782   5.824 -0.3301  0.6276  0.0460
  119MOL   H24645322   6.784   2.741   6.049  0.7545  0.4718  1.2165
  119MOL   H24745323   6.778   2.912   6.029  0.0078 -1.1837  1.5843
  119MOL   H24845324   6.921   2.844   5.974 -0.8544  1.5159 -0.5307
  119MOL   C24945325   6.869   2.812   5.316  0.4743 -0.6583 -0.0911
  119MOL   C25045326   6.837   2.787   5.164  0.0697  0.2142 -0.7329
  119MOL   O25145327   6.942   2.851   5.098 -0.0869 -0.3178 -0.0018
  119MOL   C25245328   7.044   2.764   5.046 -0.5687  0.2450 -0.3733
  119MOL   C25345329   7.161   2.831   4.976 -0.0840 -0.3401  0.0691
  119MOL   C25445330   7.213   2.945   5.069 -0.5399 -0.2669  0.5468
  119MOL   C25545331   7.348   3.006   5.017  0.2598  0.9044  0.3385
  119MOL   H25645332   6.975   2.797   5.334  1.1773  0.3592 -2.9996
  119MOL   H25745333   6.859   2.921   5.323 -1.2392 -0.6311 -2.3209
  119MOL   H25845334   6.826   2.681   5.144 -2.3509  0.5367 -1.1592
  119MOL   H25945335   7.004   2.693   4.973 -3.4560  0.9371  0.4624
  119MOL   H26045336   7.086   2.705   5.128 -1.4469 -2.0120 -1.5086
  119MOL   H26145337   7.230   2.752   4.948 -1.5672 -2.3322  1.8372
  119MOL   H26245338   7.123   2.878   4.885  1.0107  1.3432  0.4657
  119MOL   H26345339   7.142   3.026   5.087  0.3820  0.9776 -1.3615
  119MOL   H26445340   7.245   2.902   5.164 -0.2509 -2.0175 -0.3238
  119MOL   H26545341   7.410   3.048   5.096 -1.1591 -0.4596  2.2129
  119MOL   H26645342   7.349   3.069   4.929  1.3769 -0.1560 -0.4376
  119MOL   H26745343   7.410   2.923   4.981 -0.6468  1.3849 -2.4565
  119MOL   C26845344   6.705   2.864   5.115 -0.3822 -0.1569 -0.0534
  119MOL   C26945345   6.639   2.808   4.988  0.2591 -0.0539 -0.6254
  119MOL   O27045346   6.512   2.865   4.971 -0.0944 -0.4321  0.3091
  119MOL   C27145347   6.400   2.807   5.045 -0.6853  0.2378  0.1057
  119MOL   C27245348   6.317   2.717   4.957  0.4819 -0.5899 -0.8257
  119MOL   C27345349   6.257   2.783   4.837  0.0806 -0.1670  0.0137
  119MOL   C27445350   6.165   2.685   4.748 -0.2578 -0.6434 -0.5239
  119MOL   H27545351   6.626   2.847   5.188 -0.3518  0.0586  0.0282
  119MOL   H27645352   6.717   2.972   5.118 -3.3376  0.2045  4.1582
  119MOL   H27745353   6.632   2.700   5.005  2.6702 -0.2159 -0.4651
  119MOL   H27845354   6.432   2.742   5.127  1.6714 -1.1795 -1.8625
  119MOL   H27945355   6.333   2.886   5.079 -0.9062 -0.6614  1.8179
  119MOL   H28045356   6.381   2.645   4.905 -1.0532 -1.2029 -1.8995
  119MOL   H28145357   6.246   2.662   5.018  1.0157 -0.6581 -0.2619
  119MOL   H28245358   6.330   2.823   4.767 -0.4753 -0.2215 -0.5937
  119MOL   H28345359   6.193   2.866   4.864  0.8430 -0.1160  1.7374
  119MOL   H28445360   6.104   2.624   4.814  0.5227 -0.3994  0.4270
  119MOL   H28545361   6.231   2.616   4.695  1.1784 -0.5846  1.1520
  119MOL   H28645362   6.106   2.742   4.675  0.0414 -1.3284 -1.3146
  119MOL   C28745363   6.708   2.847   4.861 -0.8126 -0.2936 -0.2943
  119MOL   C28845364   6.668   2.761   4.737  0.2653  0.1590 -0.5415
  119MOL   O28945365   6.743   2.640   4.744 -0.3007 -0.0144 -0.2160
  119MOL   C29045366   6.662   2.519   4.755  0.6909  0.1907 -0.2222
  119MOL   C29145367   6.739   2.416   4.834 -0.2364  0.0115  0.1291
  119MOL   C29245368   6.755   2.456   4.980 -1.1435  0.3535  0.2121
  119MOL   C29345369   6.812   2.343   5.070 -0.1545  0.2117 -0.2945
  119MOL   H29445370   6.814   2.824   4.875 -0.7163 -0.9486 -1.9289
  119MOL   H29545371   6.686   2.948   4.829  3.3121  1.3321  1.6718
  119MOL   H29645372   6.563   2.740   4.755 -0.1074  2.3582 -0.0016
  119MOL   H29745373   6.567   2.533   4.806  0.4536 -0.2045 -0.5430
  119MOL   H29845374   6.632   2.480   4.657  0.0877 -0.6791  0.3021
  119MOL   H29945375   6.839   2.402   4.792  0.8465 -2.4795  3.3064
  119MOL   H30045376   6.694   2.318   4.825 -1.3014  0.6141 -1.3095
  119MOL   H30145377   6.652   2.481   5.007 -1.0404 -1.4927  2.4318
  119MOL   H30245378   6.814   2.548   4.985 -2.4382  1.0838  3.5253
  119MOL   H30345379   6.907   2.309   5.028 -0.7574 -2.3234  0.2850
  119MOL   H30445380   6.828   2.383   5.170  1.3201 -2.1395  0.4464
  119MOL   H30545381   6.746   2.258   5.091  1.0256 -0.4238  0.9158
  119MOL   C30645382   6.690   2.840   4.605 -0.2220 -0.3676  0.7137
  119MOL   C30745383   6.630   2.764   4.469  0.9125 -0.4921 -0.5716
  119MOL   O30845384   6.651   2.853   4.365 -0.2345 -0.2901  0.2548
  119MOL   C30945385   6.782   2.860   4.314 -0.2415 -1.3877 -0.3551
  119MOL   C31045386   6.789   2.982   4.214  0.2621 -0.1018  0.0991
  119MOL   C31145387   6.684   2.996   4.102 -0.5886  1.3546  0.1557
  119MOL   C31245388   6.700   3.119   4.021 -0.0403 -0.2205  1.0199
  119MOL   H31345389   6.641   2.937   4.613 -1.7753 -1.0554 -0.2625
  119MOL   H31445390   6.795   2.858   4.584 -0.7947  1.6274 -0.5778
  119MOL   H31545391   6.691   2.674   4.455  1.3569 -0.4423  0.9714
  119MOL   H31645392   6.808   2.764   4.270  0.8268 -0.3016 -2.1646
  119MOL   H31745393   6.852   2.877   4.397 -0.4867  0.1882 -0.4572
  119MOL   H31845394   6.886   2.988   4.165 -0.4671  1.2033 -1.2352
  119MOL   H31945395   6.797   3.077   4.267  1.2478  0.7130 -1.4648
  119MOL   H32045396   6.684   2.911   4.034 -0.7782  0.5986  1.0874
  119MOL   H32145397   6.580   2.979   4.129 -0.2371 -4.4723 -1.5195
  119MOL   H32245398   6.689   3.214   4.073  0.7237  1.7341 -2.2748
  119MOL   H32345399   6.628   3.123   3.939 -1.6309 -2.8808  2.2096
  119MOL   H32445400   6.797   3.129   3.971  0.4707  2.4052  2.4178
  119MOL   C32545401   6.478   2.730   4.474  0.5957  0.0535  0.5978
  119MOL   C32645402   6.443   2.630   4.356  0.3108  0.4674  0.5917
  119MOL   O32745403   6.523   2.517   4.368 -0.6723  0.6675  0.1860
  119MOL   C32845404   6.609   2.476   4.256 -0.2003 -0.3840 -0.3718
  119MOL   C32945405   6.690   2.358   4.304 -0.5209  0.7684 -0.2136
  119MOL   C33045406   6.800   2.383   4.405  0.0309  0.1986  0.2475
  119MOL   C33145407   6.886   2.258   4.435  0.4126  0.6533 -0.7849
  119MOL   H33245408   6.420   2.821   4.458  1.2052  0.0797 -1.6681
  119MOL   H33345409   6.446   2.694   4.571  0.6556  0.7172  0.8713
  119MOL   H33445410   6.456   2.692   4.267 -1.7466 -2.0957 -1.6027
  119MOL   H33545411   6.659   2.562   4.212  0.9570 -1.3865 -1.0637
  119MOL   H33645412   6.536   2.450   4.179  2.0851  0.6033 -2.9417
  119MOL   H33745413   6.623   2.285   4.350 -0.0514 -0.4285 -1.3936
  119MOL   H33845414   6.737   2.311   4.218  0.0297 -1.8137  1.4484
  119MOL   H33945415   6.760   2.418   4.500  0.7833 -1.0090  1.0088
  119MOL   H34045416   6.872   2.462   4.383 -1.1254  0.9586 -0.9298
  119MOL   H34145417   6.813   2.199   4.489  1.1385  0.9874  0.5854
  119MOL   H34245418   6.976   2.268   4.495  1.0404  1.8519 -1.8946
  119MOL   H34345419   6.913   2.216   4.338  0.8392 -0.6162 -0.1355
  119MOL   C34445420   6.294   2.588   4.378 -0.3261 -0.0423 -0.2754
  119MOL   C34545421   6.187   2.691   4.323  0.0405 -0.3379 -0.0898
  119MOL   O34645422   6.194   2.811   4.397  0.0348  0.5134  0.2552
  119MOL   C34745423   6.231   2.930   4.328  0.3532 -0.4881  0.1842
  119MOL   C34845424   6.239   3.040   4.434  0.0917  0.3772  0.6534
  119MOL   C34945425   6.299   3.169   4.372 -0.1742  0.0008  0.2016
  119MOL   C35045426   6.319   3.274   4.480  0.6748  0.3225  0.3124
  119MOL   H35145427   6.275   2.494   4.327 -0.2963 -0.2189  0.0316
  119MOL   H35245428   6.275   2.549   4.479  3.3464  0.4857  0.6911
  119MOL   H35345429   6.205   2.708   4.217 -2.3782 -0.3661 -0.5321
  119MOL   H35445430   6.162   2.974   4.256  0.4418  1.2490  1.1396
  119MOL   H35545431   6.330   2.912   4.286  1.4568  1.0215  2.0629
  119MOL   H35645432   6.300   3.003   4.516 -2.1808 -2.3053  1.2309
  119MOL   H35745433   6.138   3.062   4.470 -1.2346 -3.2202 -0.6286
  119MOL   H35845434   6.392   3.130   4.329  0.3013 -0.7471  1.8671
  119MOL   H35945435   6.240   3.194   4.284 -0.6326  0.1647  0.5553
  119MOL   H36045436   6.372   3.353   4.428  1.1594  0.8578  1.5812
  119MOL   H36145437   6.380   3.240   4.564  2.4915  0.5319 -0.8810
  119MOL   H36245438   6.229   3.322   4.518  0.1664 -1.3901  1.3416
  119MOL   C36345439   6.049   2.635   4.356  0.2199 -0.1347  0.3819
  119MOL   C36445440   6.010   2.518   4.270 -0.1956 -0.0215  0.5611
  119MOL   O36545441   5.878   2.483   4.301 -0.5232  0.3425 -1.0056
  119MOL   C36645442   5.812   2.380   4.230 -0.4638  0.2823 -0.2674
  119MOL   C36745443   5.662   2.387   4.241  0.8504  0.3073 -0.5502
  119MOL   C36845444   5.565   2.353   4.126  0.1045  0.4466 -0.3509
  119MOL   C36945445   5.562   2.214   4.076 -0.0671 -0.2647 -0.4843
  119MOL   H37045446   5.967   2.708   4.350 -0.8175 -1.3453 -0.3653
  119MOL   H37145447   6.045   2.591   4.455  0.4226 -2.7079 -0.7103
  119MOL   H37245448   6.081   2.437   4.286  0.3278  0.9788  3.7937
  119MOL   H37345449   5.860   2.284   4.249  1.3533  0.9708 -1.3197
  119MOL   H37445450   5.827   2.391   4.123  2.0932 -1.2752 -0.1034
  119MOL   H37545451   5.645   2.492   4.266 -1.4125 -0.3994  1.0527
  119MOL   H37645452   5.628   2.348   4.337  1.5588  1.8277  0.3368
  119MOL   H37745453   5.599   2.413   4.041  2.9546 -0.7482 -0.1265
  119MOL   H37845454   5.465   2.378   4.160 -0.3069 -2.3822  0.6608
  119MOL   H37945455   5.487   2.203   3.998 -1.2394 -0.1434  0.5945
  119MOL   H38045456   5.664   2.199   4.040  0.4365  1.0663  0.3395
  119MOL   H38145457   5.533   2.139   4.151  0.7985 -0.2556 -0.1293
  119MOL   H38245458   6.009   2.534   4.163 -1.9250 -1.5818  0.3174
  120MOL     C145459   5.121   2.796   6.089 -0.3259  1.0033  0.1961
  120MOL     C245460   4.973   2.830   6.058 -0.2190 -0.1109 -0.2377
  120MOL     O345461   4.911   2.707   6.048 -0.1280  0.0056  0.6668
  120MOL     C445462   4.918   2.647   5.918  0.0850 -0.5581 -0.0882
  120MOL     C545463   4.881   2.505   5.933  0.3523  0.3109  0.0293
  120MOL     C645464   4.736   2.481   5.953 -0.5621 -0.6735 -0.3984
  120MOL     C745465   4.691   2.336   5.922 -0.1095  0.1317  0.2152
  120MOL     H845466   5.188   2.804   6.003 -1.6306  1.5502 -0.7867
  120MOL     H945467   5.165   2.865   6.161  0.2178  0.6590  0.1959
  120MOL    H1045468   4.959   2.895   5.972 -0.6436 -1.7479 -1.4451
  120MOL    H1145469   4.854   2.708   5.854  1.0616 -1.7742 -2.2745
  120MOL    H1245470   5.020   2.639   5.881  0.5930  0.6460  1.0065
  120MOL    H1345471   4.945   2.459   6.008 -0.4733  0.7091  0.9732
  120MOL    H1445472   4.891   2.458   5.835 -2.7172 -0.1698 -0.1090
  120MOL    H1545473   4.680   2.558   5.900 -0.9109 -0.4072  0.3547
  120MOL    H1645474   4.729   2.505   6.059  2.4383 -1.0141 -0.1031
  120MOL    H1745475   4.756   2.270   5.979  3.1306  1.1345 -2.1519
  120MOL    H1845476   4.718   2.332   5.816 -1.4043  1.2481 -0.1725
  120MOL    H1945477   4.585   2.314   5.932 -0.2460 -0.3578 -1.9667
  120MOL    H2045478   5.130   2.704   6.146  0.5770  0.3687 -0.9489
  120MOL    C2145479   4.905   2.894   6.183  0.4960 -0.6382 -0.2951
  120MOL    C2245480   4.754   2.911   6.172 -0.1057 -0.2968 -0.0224
  120MOL    O2345481   4.700   2.934   6.305  0.7271  0.5578  0.1914
  120MOL    C2445482   4.649   2.821   6.373  0.2513  0.0230 -0.0404
  120MOL    C2545483   4.652   2.859   6.524  0.0641 -0.1783 -0.5748
  120MOL    C2645484   4.569   2.759   6.609 -0.4820 -0.3413  0.2887
  120MOL    C2745485   4.582   2.768   6.759 -0.0432 -0.7666  0.3933
  120MOL    H2845486   4.948   2.991   6.211  1.1880 -0.7058 -1.0911
  120MOL    H2945487   4.926   2.834   6.271 -0.8019  2.4095  2.1863
  120MOL    H3045488   4.705   2.818   6.144 -1.6735  0.9008 -1.3263
  120MOL    H3145489   4.720   2.738   6.366 -0.2847 -0.7641  3.1143
  120MOL    H3245490   4.552   2.789   6.335  1.2414 -1.5342 -1.4064
  120MOL    H3345491   4.755   2.868   6.558  0.8525  0.9208 -3.1129
  120MOL    H3445492   4.614   2.960   6.533 -1.6791 -0.9766  1.3382
  120MOL    H3545493   4.463   2.762   6.585 -0.0797 -0.8883 -1.6285
  120MOL    H3645494   4.608   2.660   6.585  1.1588  0.0299  1.3396
  120MOL    H3745495   4.687   2.782   6.785  0.2145  0.1284 -1.0519
  120MOL    H3845496   4.529   2.852   6.803  0.7569 -0.0647  0.0322
  120MOL    H3945497   4.532   2.677   6.794  1.0752 -2.1335 -1.4275
  120MOL    C4045498   4.721   3.024   6.075 -0.0291 -0.3088  0.1457
  120MOL    C4145499   4.571   3.036   6.029 -0.5061 -0.4385 -0.0430
  120MOL    O4245500   4.563   2.987   5.895 -0.0314 -0.4166  0.0703
  120MOL    C4345501   4.552   2.846   5.882 -0.1360 -0.0574 -0.4201
  120MOL    C4445502   4.543   2.809   5.733 -0.7439  0.1039 -0.1130
  120MOL    C4545503   4.584   2.662   5.698  0.2633  0.6517  0.0724
  120MOL    C4645504   4.542   2.619   5.554 -0.1294 -0.9771  0.2411
  120MOL    H4745505   4.764   2.995   5.979 -1.2927 -1.8472  0.0121
  120MOL    H4845506   4.755   3.123   6.104 -1.5807  0.6691 -1.2888
  120MOL    H4945507   4.516   2.975   6.100  0.9156 -0.7732  0.7920
  120MOL    H5045508   4.464   2.808   5.933  1.0450  0.7863  2.2884
  120MOL    H5145509   4.636   2.803   5.935  0.9978  2.1280 -0.3859
  120MOL    H5245510   4.609   2.874   5.675  1.0391 -0.1215  1.6211
  120MOL    H5345511   4.437   2.818   5.707 -0.7259 -0.3599 -0.3532
  120MOL    H5445512   4.535   2.597   5.771  1.3610  2.3304  2.3793
  120MOL    H5545513   4.692   2.656   5.710  0.2089 -1.1787 -0.1798
  120MOL    H5645514   4.560   2.511   5.563 -1.5286 -1.1278  1.6375
  120MOL    H5745515   4.435   2.635   5.541  0.3055  1.2334 -0.7302
  120MOL    H5845516   4.593   2.675   5.477 -0.8370  0.6350  0.9330
  120MOL    C5945517   4.514   3.180   6.024 -0.2964 -0.3059 -0.0113
  120MOL    C6045518   4.364   3.199   6.021 -0.2353  0.4447 -0.2962
  120MOL    O6145519   4.309   3.170   6.149 -0.1206  0.3851  0.1501
  120MOL    C6245520   4.243   3.043   6.168 -0.2506  0.5406  0.3874
  120MOL    C6345521   4.195   3.050   6.318 -0.8869  0.1933 -0.6990
  120MOL    C6445522   4.308   3.087   6.414 -0.2515  0.6558  0.3411
  120MOL    C6545523   4.285   3.038   6.557  0.0128 -0.3413  0.1534
  120MOL    H6645524   4.560   3.240   6.103 -0.8476 -0.8650  0.7359
  120MOL    H6745525   4.545   3.231   5.933 -2.0897 -1.4466 -1.3096
  120MOL    H6845526   4.325   3.130   5.945  0.5408  0.1073 -0.3881
  120MOL    H6945527   4.318   2.965   6.157 -2.1796 -1.2860 -0.0730
  120MOL    H7045528   4.164   3.024   6.095 -0.9836  0.6910  1.1243
  120MOL    H7145529   4.105   3.109   6.333 -0.3895  0.7575  0.1131
  120MOL    H7245530   4.188   2.945   6.346 -0.1527  0.1212 -0.7600
  120MOL    H7345531   4.397   3.044   6.369  0.7795  2.2193  0.8621
  120MOL    H7445532   4.316   3.196   6.413 -0.4966  0.7824 -5.2890
  120MOL    H7545533   4.267   2.931   6.566 -2.9613 -0.0334 -1.4107
  120MOL    H7645534   4.366   3.062   6.626  0.4476 -1.3265  0.0037
  120MOL    H7745535   4.194   3.084   6.596 -0.4697 -2.6970  1.9031
  120MOL    C7845536   4.317   3.340   5.989 -0.1516 -0.0733 -0.4738
  120MOL    C7945537   4.168   3.357   6.010 -0.4997 -0.7112  0.3709
  120MOL    O8045538   4.129   3.453   5.911 -0.0717 -0.0442  0.3402
  120MOL    C8145539   4.018   3.409   5.839  0.5710  0.3122 -0.2607
  120MOL    C8245540   3.951   3.517   5.752  0.3311 -0.4102  0.0865
  120MOL    C8345541   3.907   3.634   5.838 -0.3327 -0.8867 -0.7727
  120MOL    C8445542   3.850   3.739   5.754 -0.2214 -0.4456 -0.4765
  120MOL    H8545543   4.330   3.367   5.885 -2.3799  1.1479 -0.4653
  120MOL    H8645544   4.357   3.423   6.048 -1.5961  0.4803 -0.2480
  120MOL    H8745545   4.122   3.260   5.993 -0.6772  0.0610 -4.1618
  120MOL    H8845546   3.947   3.360   5.905 -0.2680  0.5655 -0.9705
  120MOL    H8945547   4.052   3.333   5.769  0.4245 -0.1632  0.1882
  120MOL    H9045548   4.033   3.545   5.685  0.0206 -1.7619 -0.8946
  120MOL    H9145549   3.865   3.469   5.706  2.0597 -2.5491 -1.0114
  120MOL    H9245550   3.991   3.673   5.895 -2.9819  1.0918  1.9107
  120MOL    H9345551   3.823   3.601   5.900 -1.6908  1.5883 -1.2523
  120MOL    H9445552   3.925   3.774   5.684 -2.0815  1.2933 -1.6519
  120MOL    H9545553   3.764   3.692   5.707  0.1234 -3.2399  1.5277
  120MOL    H9645554   3.808   3.825   5.807  2.1532  0.3620  0.1707
  120MOL    C9745555   4.133   3.413   6.152 -0.1429  0.6789  0.1390
  120MOL    C9845556   3.981   3.433   6.185 -0.8607  0.1341  0.0341
  120MOL    O9945557   3.920   3.310   6.211 -0.2268 -0.1522  0.5641
  120MOL   C10045558   3.793   3.300   6.142  0.6670 -0.0774 -0.2624
  120MOL   C10145559   3.723   3.172   6.189  0.0345 -0.0281  0.1116
  120MOL   C10245560   3.792   3.029   6.192 -0.1656 -0.5929 -0.3681
  120MOL   C10345561   3.846   2.994   6.056  0.1992  0.6269  0.1641
  120MOL   H10445562   4.183   3.509   6.160 -1.1320  0.9643  3.5883
  120MOL   H10545563   4.180   3.346   6.224  0.7169  0.4823 -0.5883
  120MOL   H10645564   3.928   3.480   6.101 -0.7349  0.1409 -0.0417
  120MOL   H10745565   3.812   3.280   6.036 -3.4026 -1.1130 -0.8833
  120MOL   H10845566   3.726   3.383   6.166  0.4699 -0.2933 -0.0556
  120MOL   H10945567   3.631   3.164   6.132 -0.0007  0.4403  0.1044
  120MOL   H11045568   3.683   3.180   6.290  1.3479 -2.8239  0.9394
  120MOL   H11145569   3.734   2.954   6.244  0.6119  0.1752  1.6592
  120MOL   H11245570   3.879   3.038   6.257 -2.1549  0.8305  2.2073
  120MOL   H11345571   3.924   3.060   6.017  0.0171  0.1499 -1.0416
  120MOL   H11445572   3.897   2.900   6.074  0.5226  0.5709 -0.9966
  120MOL   H11545573   3.774   2.983   5.974  2.0490 -1.0836 -1.2687
  120MOL   C11645574   3.959   3.522   6.307  0.2646  1.0599  0.4903
  120MOL   C11745575   3.887   3.651   6.280 -0.2306 -0.8025  0.7311
  120MOL   O11845576   3.746   3.640   6.244  0.0559 -0.3942  0.1461
  120MOL   C11945577   3.690   3.729   6.151 -0.1485  0.2729  0.5852
  120MOL   C12045578   3.558   3.660   6.107 -0.0064 -0.0563  0.1753
  120MOL   C12145579   3.476   3.758   6.013  0.2489 -0.1502 -0.0329
  120MOL   C12245580   3.368   3.680   5.938  0.1264  0.1711  0.7833
  120MOL   H12345581   3.896   3.467   6.376  1.4118 -1.6765 -0.5643
  120MOL   H12445582   4.053   3.545   6.357  0.3596  1.2138  0.2458
  120MOL   H12545583   3.932   3.700   6.193 -0.0436 -0.3225  1.0961
  120MOL   H12645584   3.752   3.770   6.072  0.2159 -0.6464  0.3870
  120MOL   H12745585   3.662   3.818   6.208  0.5293  0.7011  0.2481
  120MOL   H12845586   3.507   3.627   6.197 -0.5091  0.4858  0.0959
  120MOL   H12945587   3.586   3.569   6.054 -1.0147 -0.8108  0.9231
  120MOL   H13045588   3.448   3.850   6.063  1.1176  0.0291  0.1481
  120MOL   H13145589   3.545   3.786   5.933  0.7789 -0.1897  0.4002
  120MOL   H13245590   3.326   3.748   5.865  0.7003 -1.0720 -0.7473
  120MOL   H13345591   3.282   3.640   5.992 -1.5968  2.4434 -0.2022
  120MOL   H13445592   3.411   3.591   5.891  1.5580  2.1777 -1.8723
  120MOL   C13545593   3.880   3.762   6.398 -0.5207 -0.4526 -0.1530
  120MOL   C13645594   3.842   3.704   6.538 -0.1868  0.3749  0.2778
  120MOL   O13745595   3.860   3.809   6.634  0.6744  0.1241 -0.1260
  120MOL   C13845596   3.987   3.795   6.697 -0.6069  0.7771  0.3104
  120MOL   C13945597   4.003   3.912   6.791  0.2496  0.5378  0.2205
  120MOL   C14045598   4.002   4.041   6.713  0.0485  0.3214  0.8300
  120MOL   C14145599   4.031   4.174   6.796  0.4739  0.4046  0.0843
  120MOL   H14245600   3.817   3.847   6.372 -0.0103  0.5057  1.6409
  120MOL   H14345601   3.979   3.808   6.398 -0.5336 -0.4213 -0.4793
  120MOL   H14445602   3.898   3.614   6.562 -0.9825  0.0754  1.0500
  120MOL   H14545603   4.057   3.791   6.613 -0.3841  0.1575  0.5263
  120MOL   H14645604   3.985   3.699   6.749 -2.1046  0.4150 -0.3797
  120MOL   H14745605   4.099   3.907   6.842  1.6186  1.1462 -2.2278
  120MOL   H14845606   3.930   3.910   6.872  0.6312  2.1187  0.6171
  120MOL   H14945607   4.075   4.023   6.634  1.1899  0.3921  1.8591
  120MOL   H15045608   3.906   4.058   6.664  1.5898  1.0062 -2.1311
  120MOL   H15145609   3.959   4.189   6.877 -0.1677  1.3810 -0.6506
  120MOL   H15245610   4.132   4.169   6.837 -0.0056  0.4802  1.2893
  120MOL   H15345611   4.034   4.258   6.726 -1.9964 -1.0314 -1.8177
  120MOL   C15445612   3.695   3.668   6.560 -0.4714 -0.5281 -0.2597
  120MOL   C15545613   3.663   3.607   6.698 -0.6838 -0.2617  0.4613
  120MOL   O15645614   3.712   3.477   6.696  0.6468  0.3152  0.0673
  120MOL   C15745615   3.790   3.441   6.807  0.2958 -0.1838  1.0734
  120MOL   C15845616   3.854   3.309   6.788 -0.1805  0.3489  0.1783
  120MOL   C15945617   3.758   3.187   6.790 -0.3881  0.1092  0.6718
  120MOL   C16045618   3.819   3.044   6.793 -0.2746  0.2596 -0.3747
  120MOL   H16145619   3.652   3.607   6.482 -0.5640 -2.1550  1.0344
  120MOL   H16245620   3.628   3.752   6.547 -0.9022 -0.9782 -0.9467
  120MOL   H16345621   3.707   3.665   6.780  0.4715  0.8172 -0.9006
  120MOL   H16445622   3.864   3.518   6.827  0.5138  0.1694 -0.9816
  120MOL   H16545623   3.730   3.455   6.897 -0.2586  3.5064  0.2051
  120MOL   H16645624   3.932   3.297   6.863  0.0608 -1.1980 -0.2861
  120MOL   H16745625   3.922   3.306   6.703  1.3396 -0.9143  1.4111
  120MOL   H16845626   3.707   3.208   6.884 -1.2069 -2.7879  0.9051
  120MOL   H16945627   3.684   3.198   6.711  0.3665 -2.8862 -0.5275
  120MOL   H17045628   3.742   2.970   6.814  0.3741  0.2247  2.0428
  120MOL   H17145629   3.858   3.020   6.694 -1.1057  0.1661 -0.6869
  120MOL   H17245630   3.897   3.042   6.868  0.2594  0.8908 -0.9000
  120MOL   C17345631   3.510   3.612   6.723 -0.3627  0.7767 -0.1351
  120MOL   C17445632   3.464   3.577   6.868 -0.0437 -0.0531 -0.1576
  120MOL   O17545633   3.503   3.687   6.951  0.0834 -0.5236 -0.0208
  120MOL   C17645634   3.582   3.647   7.064 -0.5613 -0.1066 -0.4534
  120MOL   C17745635   3.603   3.769   7.170  0.6366  0.0564  0.0420
  120MOL   C17845636   3.515   3.741   7.289 -0.2053 -0.3840  0.0302
  120MOL   C17945637   3.529   3.856   7.391 -0.3323  0.0011 -0.2669
  120MOL   H18045638   3.455   3.552   6.650 -1.1205  1.1746  0.1105
  120MOL   H18145639   3.482   3.715   6.702  0.0706  0.1528 -4.1562
  120MOL   H18245640   3.509   3.485   6.905 -2.6180 -1.6071 -0.7565
  120MOL   H18345641   3.681   3.623   7.026 -0.0297  0.6301  0.4333
  120MOL   H18445642   3.528   3.568   7.115  0.5732 -1.4406 -1.3008
  120MOL   H18545643   3.592   3.870   7.130  1.3033  0.0599 -0.1426
  120MOL   H18645644   3.708   3.768   7.198  0.9644  0.5712 -1.1127
  120MOL   H18745645   3.415   3.713   7.258  0.2159 -0.1513 -1.5585
  120MOL   H18845646   3.562   3.655   7.337  4.4675  1.4970 -0.9101
  120MOL   H18945647   3.482   3.952   7.366  1.0045  1.0044  0.9792
  120MOL   H19045648   3.495   3.824   7.489  0.8468 -1.1722 -0.2378
  120MOL   H19145649   3.629   3.895   7.411 -1.1316  2.4398 -0.8601
  120MOL   C19245650   3.308   3.570   6.880  0.1686 -0.0214  0.4614
  120MOL   C19345651   3.245   3.443   6.809 -0.4594  0.4977  0.2323
  120MOL   O19445652   3.313   3.318   6.842 -0.0542  0.4760  0.4352
  120MOL   C19545653   3.337   3.229   6.733 -0.3042  1.0808 -0.9044
  120MOL   C19645654   3.392   3.096   6.782 -0.0869  0.0165  0.3193
  120MOL   C19745655   3.418   2.996   6.672 -0.3090 -0.0566  0.1391
  120MOL   C19845656   3.296   2.965   6.580  0.3229 -0.6426 -0.1831
  120MOL   H19945657   3.276   3.666   6.841  0.5396 -0.4279 -0.8674
  120MOL   H20045658   3.284   3.566   6.987  0.0098  0.2598  0.4337
  120MOL   H20145659   3.249   3.459   6.702 -0.0406  1.8965  0.4352
  120MOL   H20245660   3.413   3.274   6.670  0.5918 -1.0702 -1.4105
  120MOL   H20345661   3.248   3.189   6.683  0.1620 -1.0740 -0.0790
  120MOL   H20445662   3.481   3.118   6.841  0.3813 -1.6781  0.2550
  120MOL   H20545663   3.317   3.062   6.853  0.7572 -0.4186  1.0106
  120MOL   H20645664   3.458   2.906   6.718  0.1139  0.3828  0.6310
  120MOL   H20745665   3.508   3.015   6.613 -0.6861 -1.4392 -0.9193
  120MOL   H20845666   3.288   3.038   6.500 -2.4496  1.6369  2.0236
  120MOL   H20945667   3.296   2.868   6.531 -0.4867  0.5471 -2.5959
  120MOL   H21045668   3.199   2.963   6.630  0.1771  0.5652 -0.3888
  120MOL   C21145669   3.105   3.435   6.860 -0.5458  0.3589 -0.1304
  120MOL   C21245670   3.016   3.336   6.793 -0.3049 -0.2515 -0.4752
  120MOL   O21345671   2.893   3.357   6.859 -0.6042 -0.4138 -0.1026
  120MOL   C21445672   2.865   3.268   6.965  0.6444  0.2586  0.7581
  120MOL   C21545673   2.736   3.286   7.046  0.0457  0.0137  0.0087
  120MOL   C21645674   2.713   3.150   7.120 -0.7043 -0.2816  0.1558
  120MOL   C21745675   2.564   3.143   7.171  0.3113  0.6216 -0.0972
  120MOL   H21845676   3.062   3.535   6.846 -0.4175  0.5868  1.0628
  120MOL   H21945677   3.106   3.416   6.967  1.6016 -0.3831 -0.2492
  120MOL   H22045678   3.054   3.234   6.797 -1.5799 -0.7138  0.5246
  120MOL   H22145679   2.864   3.174   6.909  1.0239 -0.3478  1.7527
  120MOL   H22245680   2.946   3.256   7.037 -0.3521 -0.4970  1.7761
  120MOL   H22345681   2.746   3.363   7.122 -0.3171  0.7374 -0.6708
  120MOL   H22445682   2.650   3.304   6.981 -1.7306 -0.3198  2.2018
  120MOL   H22545683   2.780   3.135   7.204 -1.6528 -0.2129  0.9281
  120MOL   H22645684   2.723   3.062   7.057 -1.5515 -0.7090  0.6032
  120MOL   H22745685   2.513   3.106   7.082  1.7045  2.9495 -1.9323
  120MOL   H22845686   2.521   3.238   7.205  1.7311  0.7455  1.3745
  120MOL   H22945687   2.536   3.063   7.239 -1.4608  0.6206 -0.8049
  120MOL   C23045688   2.978   3.363   6.648 -0.4141 -0.2024  0.4523
  120MOL   C23145689   2.888   3.264   6.584  0.1863  0.2829 -0.8530
  120MOL   O23245690   2.816   3.328   6.474  0.0380 -0.4749 -0.2179
  120MOL   C23345691   2.696   3.375   6.527  0.4431 -0.1874  0.5242
  120MOL   C23445692   2.615   3.453   6.424  0.4261 -0.3101  0.3755
  120MOL   C23545693   2.468   3.463   6.463  0.2541 -0.0818  0.5542
  120MOL   C23645694   2.421   3.588   6.537  0.5609  0.3193 -0.7381
  120MOL   H23745695   3.068   3.376   6.588  0.3146  2.4677  2.0710
  120MOL   H23845696   2.932   3.461   6.654 -0.2103 -0.0443 -0.4675
  120MOL   H23945697   2.821   3.217   6.656 -0.1012  0.0619 -1.2618
  120MOL   H24045698   2.634   3.288   6.549  2.2352 -1.6768 -0.1843
  120MOL   H24145699   2.712   3.438   6.614  0.4161  1.4440 -0.6381
  120MOL   H24245700   2.651   3.556   6.421 -1.4865  0.3885  0.1265
  120MOL   H24345701   2.639   3.429   6.321  2.0326  0.9629  0.4321
  120MOL   H24445702   2.440   3.379   6.527 -2.3511  0.4847  0.2389
  120MOL   H24545703   2.406   3.454   6.374 -1.7257 -2.3418  2.0977
  120MOL   H24645704   2.431   3.681   6.480  1.7939 -0.1405 -1.2857
  120MOL   H24745705   2.471   3.596   6.634 -1.1707 -0.0174  0.1944
  120MOL   H24845706   2.315   3.580   6.561  0.4364 -0.1766 -1.4412
  120MOL   C24945707   2.965   3.144   6.525  0.2405 -0.4295  0.0500
  120MOL   C25045708   2.872   3.046   6.466  0.7123 -0.2508 -0.2730
  120MOL   O25145709   2.808   2.972   6.570 -0.3399  0.3559 -0.1731
  120MOL   C25245710   2.669   2.943   6.545 -0.0813  0.1694 -0.1275
  120MOL   C25345711   2.600   2.883   6.673  0.0284  0.1750 -0.6820
  120MOL   C25445712   2.596   2.982   6.790  0.2258 -0.2973 -0.4036
  120MOL   C25545713   2.499   3.097   6.765 -0.7919  0.5189  0.7784
  120MOL   H25645714   3.015   3.092   6.607 -0.1369  1.6459  1.6474
  120MOL   H25745715   3.042   3.176   6.455  0.4776  1.6347  1.2060
  120MOL   H25845716   2.801   3.095   6.399 -0.0886 -1.8811 -0.6484
  120MOL   H25945717   2.668   2.881   6.456  2.3310  2.0867 -1.5665
  120MOL   H26045718   2.621   3.036   6.513  0.4651  0.2191 -0.8095
  120MOL   H26145719   2.501   2.841   6.651  0.8667 -1.8173 -0.7911
  120MOL   H26245720   2.663   2.800   6.703  0.6293  1.1918  0.8932
  120MOL   H26345721   2.568   2.935   6.885 -0.3819  0.1278 -0.3678
  120MOL   H26445722   2.696   3.022   6.802  0.0551 -0.5729  2.2415
  120MOL   H26545723   2.397   3.061   6.751 -1.0536  1.6863 -0.3768
  120MOL   H26645724   2.529   3.144   6.671 -3.1814 -0.8110 -0.7051
  120MOL   H26745725   2.496   3.162   6.852  0.7861  1.5786  0.0641
  120MOL   C26845726   2.951   2.949   6.376 -0.7237  0.2490  0.2174
  120MOL   C26945727   2.956   2.993   6.225  0.3699  0.7759 -0.3167
  120MOL   O27045728   3.072   2.937   6.158 -0.0510 -0.1135  0.0274
  120MOL   C27145729   3.185   3.022   6.148 -0.4146 -0.0035 -0.5143
  120MOL   C27245730   3.302   2.926   6.124 -0.2027 -1.0607  0.4695
  120MOL   C27345731   3.285   2.846   5.994  0.0495 -0.3433  0.1145
  120MOL   C27445732   3.407   2.761   5.968  0.2071 -0.6515 -0.0482
  120MOL   H27545733   3.052   2.934   6.416 -0.0369  0.1014 -1.4987
  120MOL   H27645734   2.913   2.847   6.385 -0.7822  0.4396  2.3450
  120MOL   H27745735   2.960   3.101   6.228 -2.2782  0.8696  3.6266
  120MOL   H27845736   3.170   3.096   6.070 -0.4791  0.2017 -0.3072
  120MOL   H27945737   3.208   3.063   6.246  0.3412 -5.3751  1.6980
  120MOL   H28045738   3.400   2.972   6.120 -1.1547  1.2344  2.1922
  120MOL   H28145739   3.301   2.852   6.204 -1.3327 -0.4992  0.9884
  120MOL   H28245740   3.257   2.910   5.910 -0.8465  1.7909  1.9878
  120MOL   H28345741   3.197   2.783   6.008  0.0806 -0.3621  0.2239
  120MOL   H28445742   3.447   2.714   6.058  0.2426  1.3850  1.0339
  120MOL   H28545743   3.489   2.819   5.927 -0.0883  0.5591  1.0212
  120MOL   H28645744   3.374   2.682   5.901 -0.5332 -1.1637  0.8982
  120MOL   C28745745   2.821   2.953   6.155  0.1875  0.7027 -0.4319
  120MOL   C28845746   2.769   3.066   6.068 -0.1365  0.0431 -0.9696
  120MOL   O28945747   2.627   3.060   6.093 -1.0629  0.3809  1.0718
  120MOL   C29045748   2.560   3.186   6.101  0.4785 -0.7116  0.3818
  120MOL   C29145749   2.409   3.172   6.124  0.2968  0.4729  0.1925
  120MOL   C29245750   2.373   3.110   6.258  0.0050 -0.1549  1.0746
  120MOL   C29345751   2.228   3.078   6.262  0.6786  0.3625 -1.0686
  120MOL   H29445752   2.747   2.941   6.234  0.0774  1.3931 -0.4340
  120MOL   H29545753   2.826   2.858   6.100 -0.5365 -0.0810  0.8369
  120MOL   H29645754   2.797   3.166   6.100  1.0770 -0.6669  0.2379
  120MOL   H29745755   2.607   3.241   6.183 -0.0546 -0.1876  0.3353
  120MOL   H29845756   2.572   3.240   6.007  2.3701 -0.5312  0.6987
  120MOL   H29945757   2.364   3.115   6.043  2.1693 -1.2980  0.3334
  120MOL   H30045758   2.361   3.269   6.131  0.2757  0.4558  0.3038
  120MOL   H30145759   2.400   3.169   6.345 -0.9699  0.4033  1.0136
  120MOL   H30245760   2.417   3.011   6.268  0.6529 -0.0702 -0.7985
  120MOL   H30345761   2.209   2.990   6.201 -0.3574 -1.6376  2.0747
  120MOL   H30445762   2.196   3.060   6.364  0.2414  1.4754 -1.0004
  120MOL   H30545763   2.172   3.157   6.211 -0.6886  0.2448  0.2256
  120MOL   C30645764   2.800   3.038   5.922  0.1119 -0.8098 -0.2459
  120MOL   C30745765   2.840   3.163   5.836  0.3038 -0.7675 -0.1510
  120MOL   O30845766   2.843   3.123   5.694 -0.3394  0.1846 -0.4424
  120MOL   C30945767   2.712   3.127   5.635 -0.0060  0.3894 -0.7553
  120MOL   C31045768   2.707   3.010   5.532 -0.5228  0.5418 -0.0731
  120MOL   C31145769   2.718   2.867   5.593 -0.0219 -0.0235  0.1820
  120MOL   C31245770   2.748   2.749   5.497 -0.4397 -0.3473 -0.9329
  120MOL   H31345771   2.877   2.961   5.916 -0.8878 -1.9021  0.4435
  120MOL   H31445772   2.713   2.982   5.886  0.4590 -0.8749 -1.0019
  120MOL   H31545773   2.771   3.247   5.847 -1.9545 -2.4775 -0.6989
  120MOL   H31645774   2.701   3.222   5.583  0.4555  0.2969 -1.0210
  120MOL   H31745775   2.629   3.111   5.704  0.7085  0.3109  0.0938
  120MOL   H31845776   2.796   3.014   5.470 -0.9208 -2.8297 -0.9484
  120MOL   H31945777   2.611   3.014   5.480 -0.7836 -0.6164  0.3019
  120MOL   H32045778   2.790   2.877   5.674 -1.0213  0.1045  1.0459
  120MOL   H32145779   2.625   2.834   5.639  0.2370 -0.4194  0.4223
  120MOL   H32245780   2.840   2.761   5.439 -1.4983 -0.1116 -2.6291
  120MOL   H32345781   2.664   2.747   5.427 -1.6574 -1.2048  0.5414
  120MOL   H32445782   2.759   2.656   5.552 -0.2176 -0.3799 -1.0307
  120MOL   C32545783   2.983   3.202   5.878  0.6288 -0.0760 -0.1012
  120MOL   C32645784   3.029   3.337   5.816 -0.5435  0.5491  0.1334
  120MOL   O32745785   2.976   3.437   5.903  0.1979 -0.3012  0.4306
  120MOL   C32845786   2.945   3.564   5.847 -0.4309  0.2563 -0.4569
  120MOL   C32945787   2.896   3.669   5.941  0.0098 -0.0405  0.0226
  120MOL   C33045788   2.758   3.650   5.990  0.0521 -0.2481 -0.1389
  120MOL   C33145789   2.710   3.759   6.087 -0.2902  0.0908 -0.2347
  120MOL   H33245790   3.058   3.129   5.847  1.6376  1.0268 -0.3077
  120MOL   H33345791   2.982   3.215   5.987 -1.3015 -2.5418  0.2252
  120MOL   H33445792   2.977   3.357   5.722  0.0314 -0.3854 -0.3929
  120MOL   H33545793   2.862   3.566   5.776 -1.7440  3.7056  1.0429
  120MOL   H33645794   3.040   3.600   5.807  0.0110 -1.0831 -0.6249
  120MOL   H33745795   2.977   3.686   6.011  2.6689 -0.6938 -2.7832
  120MOL   H33845796   2.894   3.767   5.893  0.8369  0.4307  0.9419
  120MOL   H33945797   2.752   3.553   6.039  0.5796 -0.2101  0.0038
  120MOL   H34045798   2.683   3.645   5.911 -0.2382 -0.7098  0.1652
  120MOL   H34145799   2.659   3.839   6.033 -0.4802  0.3864  0.3785
  120MOL   H34245800   2.800   3.805   6.128 -0.4214  0.7886 -0.7058
  120MOL   H34345801   2.645   3.711   6.159 -1.2890  0.4610 -0.8813
  120MOL   C34445802   3.184   3.350   5.814  0.7962  0.3692 -0.0692
  120MOL   C34545803   3.234   3.284   5.679  0.6865 -0.2612 -0.8120
  120MOL   O34645804   3.380   3.286   5.680 -0.3470 -0.2133 -0.6667
  120MOL   C34745805   3.439   3.155   5.683  0.2424  0.4878 -0.4238
  120MOL   C34845806   3.586   3.173   5.676  0.4810 -0.8017 -0.3307
  120MOL   C34945807   3.649   3.226   5.804  0.6531 -0.2811  0.0473
  120MOL   C35045808   3.615   3.383   5.811  0.4480  0.3817  0.4581
  120MOL   H35145809   3.213   3.453   5.796 -1.6002  0.7759 -1.9242
  120MOL   H35245810   3.243   3.305   5.894  1.1329 -1.7095 -1.4481
  120MOL   H35345811   3.190   3.186   5.661  1.2763 -0.7510  0.3599
  120MOL   H35445812   3.408   3.105   5.592  2.5820 -0.2265 -0.8390
  120MOL   H35545813   3.406   3.100   5.771  1.8007 -0.4178 -0.3973
  120MOL   H35645814   3.616   3.214   5.580  2.3332  1.1795  1.0547
  120MOL   H35745815   3.619   3.069   5.669  1.6164 -0.4647 -0.1101
  120MOL   H35845816   3.617   3.179   5.897  1.8450 -1.4223 -0.1162
  120MOL   H35945817   3.757   3.223   5.791  0.9479 -0.3013  2.3602
  120MOL   H36045818   3.697   3.437   5.858 -0.1806  1.6518  0.1287
  120MOL   H36145819   3.523   3.391   5.868 -0.6610 -0.4664 -1.1758
  120MOL   H36245820   3.585   3.429   5.717  1.8813  3.0067  1.2294
  120MOL   C36345821   3.188   3.373   5.559 -0.0990  0.4624  0.4944
  120MOL   C36445822   3.264   3.353   5.433  0.0983 -0.6816 -0.6263
  120MOL   O36545823   3.198   3.411   5.319 -0.6322 -0.0286 -0.1721
  120MOL   C36645824   3.282   3.415   5.212 -0.9083 -0.0369  0.9191
  120MOL   C36745825   3.197   3.478   5.094 -0.6968 -0.4206 -0.8477
  120MOL   C36845826   3.150   3.623   5.108  0.8950  0.5523  0.3391
  120MOL   C36945827   3.101   3.688   4.977  0.8770  0.3772 -0.3378
  120MOL   H37045828   3.181   3.476   5.596 -0.6377  0.7175 -0.2881
  120MOL   H37145829   3.085   3.343   5.539 -0.0473 -0.3290  1.4074
  120MOL   H37245830   3.286   3.246   5.424 -0.0477 -0.9723  2.2192
  120MOL   H37345831   3.338   3.327   5.180  0.9280  0.5285  2.4336
  120MOL   H37445832   3.352   3.497   5.227 -2.4284  1.3260  0.6810
  120MOL   H37545833   3.107   3.417   5.080 -2.1646  1.5586 -0.2557
  120MOL   H37645834   3.253   3.476   5.001 -0.1620  1.8986 -0.6053
  120MOL   H37745835   3.233   3.685   5.142  0.0803  0.7859  1.9472
  120MOL   H37845836   3.070   3.631   5.181 -0.1197 -0.9954 -0.5674
  120MOL   H37945837   3.089   3.794   5.000 -0.0503 -0.0427  1.1905
  120MOL   H38045838   3.180   3.678   4.902  2.0444  2.1488  0.6215
  120MOL   H38145839   3.008   3.645   4.942  0.4119 -0.3640  1.7163
  120MOL   H38245840   3.370   3.376   5.445 -0.5412  0.8250  2.6489
  121MOL     C145841   5.399   3.664   3.288 -0.3558 -0.0611  0.7943
  121MOL     C245842   5.264   3.715   3.245  0.0158 -0.4267  0.1523
  121MOL     O345843   5.216   3.815   3.339  0.4146  0.0428 -0.2481
  121MOL     C445844   5.168   3.754   3.448 -0.2454  0.1342  0.3960
  121MOL     C545845   5.109   3.859   3.546 -0.2535 -0.4831 -0.4563
  121MOL     C645846   5.069   3.792   3.677  0.5915 -0.1739 -0.0845
  121MOL     C745847   5.008   3.887   3.777 -0.2278  0.1124  0.1060
  121MOL     H845848   5.401   3.604   3.380 -0.1166 -0.3762  0.5822
  121MOL     H945849   5.443   3.608   3.206  0.1139  3.1998 -1.2669
  121MOL    H1045850   5.197   3.629   3.240 -2.3577  1.3279  1.0154
  121MOL    H1145851   5.087   3.689   3.415  0.1228 -0.8396  1.3619
  121MOL    H1245852   5.243   3.695   3.502  1.6695  0.8351 -1.4547
  121MOL    H1345853   5.029   3.906   3.489  0.1274  0.5742 -0.1360
  121MOL    H1445854   5.178   3.940   3.570 -0.0978 -0.6862 -0.2228
  121MOL    H1545855   5.158   3.740   3.712 -1.6490 -2.8815  1.8326
  121MOL    H1645856   4.997   3.713   3.653  0.5001 -0.4317  0.9937
  121MOL    H1745857   4.927   3.949   3.740  0.1339  1.6745  1.8494
  121MOL    H1845858   5.084   3.956   3.814  0.4140 -0.7410  0.4023
  121MOL    H1945859   4.957   3.836   3.859  0.8974  0.7122  1.1952
  121MOL    H2045860   5.477   3.739   3.298 -0.8050  0.5322 -0.0671
  121MOL    C2145861   5.250   3.775   3.104  0.2307 -0.4131  0.2267
  121MOL    C2245862   5.222   3.679   2.990  0.2701  0.0463 -1.3143
  121MOL    O2345863   5.319   3.577   2.976  0.0879 -0.1269  0.5974
  121MOL    C2445864   5.397   3.605   2.868  0.0434 -0.1925  0.3697
  121MOL    C2545865   5.520   3.519   2.896  0.2849 -0.5499 -0.5898
  121MOL    C2645866   5.633   3.534   2.793  0.2202 -0.2727  0.0209
  121MOL    C2745867   5.764   3.470   2.836 -0.1900  1.1835 -0.3214
  121MOL    H2845868   5.341   3.831   3.081  1.0878 -0.7581  2.6323
  121MOL    H2945869   5.172   3.850   3.111 -0.2826 -1.1333  2.4256
  121MOL    H3045870   5.213   3.739   2.900  0.8525 -1.1268 -2.1577
  121MOL    H3145871   5.425   3.711   2.874 -0.3097 -0.0909  0.2323
  121MOL    H3245872   5.350   3.574   2.775 -2.2319  0.0255  1.4268
  121MOL    H3345873   5.559   3.547   2.994 -2.6065  1.8053 -0.0531
  121MOL    H3445874   5.491   3.413   2.898 -1.1674 -0.1429  1.7202
  121MOL    H3545875   5.596   3.496   2.697  2.2905 -0.9914 -0.5061
  121MOL    H3645876   5.647   3.640   2.773 -4.9065  0.1569 -2.2429
  121MOL    H3745877   5.839   3.502   2.763  0.3028  1.4457  0.3003
  121MOL    H3845878   5.793   3.498   2.937  0.4795  1.4444 -0.5849
  121MOL    H3945879   5.747   3.363   2.831 -0.5163  1.2513 -0.8047
  121MOL    C4045880   5.090   3.604   3.004 -0.9032  0.1142  0.1523
  121MOL    C4145881   4.961   3.690   3.019  0.6647  0.2476  0.0138
  121MOL    O4245882   4.857   3.614   3.079  0.7183 -0.5956 -0.0883
  121MOL    C4345883   4.849   3.590   3.223  0.3643 -0.0132 -0.7655
  121MOL    C4445884   4.790   3.709   3.305 -0.3047  1.0073  0.7144
  121MOL    C4545885   4.741   3.663   3.447 -0.4913  0.2701 -0.0385
  121MOL    C4645886   4.691   3.784   3.529 -0.0621 -0.5994 -0.1425
  121MOL    H4745887   5.097   3.525   3.079  0.6408 -0.0394 -0.1379
  121MOL    H4845888   5.075   3.545   2.913  1.4415 -2.2142  1.1817
  121MOL    H4945889   4.968   3.779   3.082 -0.8664  2.4088 -2.7334
  121MOL    H5045890   4.937   3.543   3.267 -0.7496 -1.6060 -0.1660
  121MOL    H5145891   4.773   3.512   3.228  1.1409 -0.7067  0.4337
  121MOL    H5245892   4.706   3.759   3.257 -0.5503  0.2352  0.3258
  121MOL    H5345893   4.866   3.787   3.314  1.1357 -0.2519 -0.1392
  121MOL    H5445894   4.828   3.628   3.502  0.8191  1.8098 -1.0815
  121MOL    H5545895   4.663   3.589   3.430 -0.7200  0.0259  1.9074
  121MOL    H5645896   4.609   3.834   3.478  0.6438 -1.5819 -2.2759
  121MOL    H5745897   4.654   3.737   3.620 -0.2977  0.8066  0.5009
  121MOL    H5845898   4.767   3.854   3.564  1.7692 -1.8455 -1.5571
  121MOL    C5945899   4.910   3.743   2.880  0.6869  0.0897  0.2016
  121MOL    C6045900   4.830   3.879   2.877 -0.2705 -0.1957  0.6462
  121MOL    O6145901   4.712   3.875   2.959 -0.2017 -0.0888 -0.5013
  121MOL    C6245902   4.602   3.815   2.891  0.5625  0.7632 -0.0158
  121MOL    C6345903   4.472   3.803   2.976  0.7933 -0.4898 -0.2045
  121MOL    C6445904   4.348   3.733   2.910 -0.1955 -0.1168 -0.3295
  121MOL    C6545905   4.225   3.735   2.998 -0.7765 -0.4819  0.0411
  121MOL    H6645906   4.986   3.748   2.802  0.8909  1.3859  0.4648
  121MOL    H6745907   4.840   3.668   2.843 -0.2322  0.1875  1.7339
  121MOL    H6845908   4.796   3.893   2.774 -0.0371 -0.5691  0.5175
  121MOL    H6945909   4.621   3.713   2.858 -0.1717  1.4744 -2.7261
  121MOL    H7045910   4.581   3.868   2.798 -1.1843 -1.1968 -0.7607
  121MOL    H7145911   4.482   3.751   3.071 -2.2189  1.4148  1.2339
  121MOL    H7245912   4.448   3.907   2.999  1.3514 -0.4660  0.2950
  121MOL    H7345913   4.331   3.784   2.816 -0.0671  0.3279 -0.1109
  121MOL    H7445914   4.368   3.633   2.871  1.4183 -0.0265  0.2089
  121MOL    H7545915   4.139   3.688   2.950 -2.2314  0.5379  1.6018
  121MOL    H7645916   4.242   3.689   3.096 -1.6710  0.1501  0.4967
  121MOL    H7745917   4.200   3.839   3.021  0.5809 -0.1746  0.2032
  121MOL    C7845918   4.914   4.006   2.911  0.2835 -0.1080 -0.1456
  121MOL    C7945919   4.851   4.139   2.857 -0.0539 -0.4406  0.4556
  121MOL    O8045920   4.852   4.139   2.716 -0.2695 -0.4657  0.2758
  121MOL    C8145921   4.718   4.160   2.664 -0.0561 -0.4301 -0.1218
  121MOL    C8245922   4.726   4.158   2.510  0.1353  0.0448  0.2442
  121MOL    C8345923   4.752   4.017   2.453 -0.1073 -0.7494 -0.2848
  121MOL    C8445924   4.693   4.002   2.316  0.1920 -0.0595  0.0371
  121MOL    H8545925   5.017   4.001   2.876  0.6634 -0.3817  1.0206
  121MOL    H8645926   4.927   4.013   3.019  0.6064  1.7347 -0.2807
  121MOL    H8745927   4.751   4.146   2.900 -0.1633  1.8489 -0.1019
  121MOL    H8845928   4.685   4.258   2.697  1.7191  0.5390 -1.1200
  121MOL    H8945929   4.649   4.085   2.703 -1.4221  0.0241 -1.6160
  121MOL    H9045930   4.630   4.197   2.477 -0.1977  0.0283  1.1927
  121MOL    H9145931   4.797   4.232   2.474 -1.3211  1.5228  0.3605
  121MOL    H9245932   4.701   3.944   2.515 -0.2042  0.7193  1.4162
  121MOL    H9345933   4.857   3.990   2.443 -0.6172 -2.7353 -0.5393
  121MOL    H9445934   4.756   4.048   2.240 -1.6600 -0.5020 -1.8139
  121MOL    H9545935   4.702   3.904   2.268  0.0310 -0.3071  0.5019
  121MOL    H9645936   4.593   4.040   2.295  1.1172  2.6503  0.3382
  121MOL    C9745937   4.941   4.254   2.914  0.2478  0.0553 -0.0831
  121MOL    C9845938   4.917   4.400   2.859 -0.2225 -0.2343  0.3661
  121MOL    O9945939   4.976   4.489   2.956 -0.4626 -0.7775  0.6299
  121MOL   C10045940   4.896   4.519   3.069  0.2412 -0.6032 -0.0757
  121MOL   C10145941   4.991   4.594   3.162  0.6120  0.1907 -0.3700
  121MOL   C10245942   5.046   4.722   3.104 -0.4649  0.3955  0.1908
  121MOL   C10345943   5.140   4.797   3.199  0.1513 -0.3405  0.1413
  121MOL   H10445944   5.046   4.229   2.904 -0.1974 -2.1487  0.6087
  121MOL   H10545945   4.929   4.252   3.022  2.4111 -1.9905  0.1472
  121MOL   H10645946   4.812   4.422   2.841 -0.7615 -1.5956  1.7448
  121MOL   H10745947   4.846   4.433   3.115  1.3059 -0.6583  0.9811
  121MOL   H10845948   4.823   4.589   3.028 -0.5826 -0.7658  1.0911
  121MOL   H10945949   5.077   4.529   3.181 -0.0721 -0.3318  1.0422
  121MOL   H11045950   4.948   4.627   3.257  0.2261  1.8268 -1.0974
  121MOL   H11145951   4.957   4.782   3.085  0.0483  1.3989  0.9250
  121MOL   H11245952   5.088   4.702   3.006 -1.0533  1.3743 -0.2675
  121MOL   H11345953   5.246   4.786   3.180  0.4241  3.5216 -0.9449
  121MOL   H11445954   5.125   4.903   3.181 -0.4986  0.0476  2.6393
  121MOL   H11545955   5.117   4.794   3.306 -1.0617  0.1294 -0.0933
  121MOL   C11645956   5.005   4.429   2.734  0.7626  0.0507 -0.2741
  121MOL   C11745957   5.015   4.580   2.692  0.2808 -0.2638  1.0336
  121MOL   O11845958   5.088   4.591   2.565 -0.7482 -0.5571 -0.7778
  121MOL   C11945959   5.229   4.634   2.582 -0.1328 -0.1872  0.4421
  121MOL   C12045960   5.323   4.572   2.475  0.6475 -0.6868  0.2363
  121MOL   C12145961   5.468   4.610   2.492 -0.1777  0.2177  0.1129
  121MOL   C12245962   5.506   4.758   2.524 -0.0809 -0.1052  0.2172
  121MOL   H12345963   5.108   4.394   2.743  0.3442 -1.3547 -0.7941
  121MOL   H12445964   4.965   4.371   2.651  1.0442 -0.3967 -0.0993
  121MOL   H12545965   5.073   4.634   2.767 -1.1933  0.3508  1.7535
  121MOL   H12645966   5.256   4.597   2.681  2.9828  1.7992  0.4202
  121MOL   H12745967   5.237   4.743   2.578 -0.7263 -0.0379  2.8103
  121MOL   H12845968   5.298   4.602   2.373 -0.4415 -1.7038  0.1925
  121MOL   H12945969   5.305   4.465   2.489 -1.0012 -0.5348 -0.6106
  121MOL   H13045970   5.508   4.540   2.565 -0.1650 -1.2866 -1.3129
  121MOL   H13145971   5.516   4.583   2.398  0.2266 -0.8340  0.6170
  121MOL   H13245972   5.455   4.779   2.618 -2.5553 -1.1405 -0.8684
  121MOL   H13345973   5.479   4.816   2.436 -1.9744 -3.2232 -1.3590
  121MOL   H13445974   5.609   4.767   2.559  1.1819  0.5258 -3.4337
  121MOL   C13545975   4.880   4.652   2.673 -0.1316 -0.4342  0.0379
  121MOL   C13645976   4.885   4.808   2.646  0.4686  0.3400  0.7261
  121MOL   O13745977   4.755   4.835   2.605  0.1141  0.1519  0.0570
  121MOL   C13845978   4.745   4.871   2.459 -0.0120  0.4865 -0.6779
  121MOL   C13945979   4.603   4.894   2.410 -0.4330  0.6273  0.0011
  121MOL   C14045980   4.598   4.983   2.285 -0.7434 -0.0486  0.3335
  121MOL   C14145981   4.462   5.034   2.246 -0.1374  0.2173  0.5479
  121MOL   H14245982   4.823   4.650   2.766 -0.5749 -2.4370 -0.2530
  121MOL   H14345983   4.822   4.596   2.599  0.8757 -1.1555 -0.2174
  121MOL   H14445984   4.957   4.831   2.568  1.2512  3.8318  2.3567
  121MOL   H14545985   4.788   4.789   2.401 -1.9080 -1.0847  0.0946
  121MOL   H14645986   4.808   4.954   2.429  1.4136 -0.6833 -0.9841
  121MOL   H14745987   4.554   4.944   2.494 -2.2516  1.8398 -1.7235
  121MOL   H14845988   4.550   4.799   2.396  1.0007 -0.1602 -0.1465
  121MOL   H14945989   4.662   5.070   2.296 -3.4663  1.7102  2.9314
  121MOL   H15045990   4.633   4.930   2.197 -1.6039 -1.9598  1.0934
  121MOL   H15145991   4.412   4.948   2.202  1.6347 -0.3361 -0.4438
  121MOL   H15245992   4.408   5.093   2.319 -2.9905 -1.6451  0.0376
  121MOL   H15345993   4.475   5.105   2.164  0.9760 -1.6718 -0.9654
  121MOL   C15445994   4.926   4.893   2.767 -0.5877  0.9061 -0.0082
  121MOL   C15545995   4.907   5.045   2.743  0.3533 -0.7496 -1.4129
  121MOL   O15645996   5.013   5.098   2.659 -0.0277 -0.1699 -0.3057
  121MOL   C15745997   4.974   5.200   2.572  0.0271  0.2019  0.1407
  121MOL   C15845998   5.084   5.232   2.472 -0.1290 -0.3260  0.5886
  121MOL   C15945999   5.029   5.318   2.356 -0.2691 -0.2575  0.2053
  121MOL   C16046000   5.137   5.362   2.255  0.4456 -0.0606  0.2786
  121MOL   H16146001   5.026   4.863   2.797 -0.0367  0.0940 -2.5251
  121MOL   H16246002   4.864   4.865   2.852 -0.5909  1.4852  0.1836
  121MOL   H16346003   4.809   5.064   2.700 -0.8508  0.8648  1.8564
  121MOL   H16446004   4.891   5.165   2.510 -0.6240 -0.5178  1.4016
  121MOL   H16546005   4.936   5.290   2.620 -0.4949  0.3694 -0.5817
  121MOL   H16646006   5.128   5.140   2.434  0.8598  0.7052 -0.8380
  121MOL   H16746007   5.163   5.270   2.537 -0.5647  0.2740  0.7689
  121MOL   H16846008   4.947   5.271   2.302 -1.4172  0.8858  0.9246
  121MOL   H16946009   4.978   5.405   2.397  0.0907  0.8262 -1.6337
  121MOL   H17046010   5.154   5.286   2.180 -2.6880  0.6976 -1.2961
  121MOL   H17146011   5.104   5.457   2.213 -0.0847 -0.1845  0.3981
  121MOL   H17246012   5.234   5.387   2.297  0.9345 -2.4603  0.6428
  121MOL   C17346013   4.914   5.111   2.879  0.1313  0.7905 -0.5700
  121MOL   C17446014   4.770   5.124   2.948 -0.7373 -0.8302  0.3371
  121MOL   O17546015   4.749   4.995   3.007 -0.0331  0.1202  0.4900
  121MOL   C17646016   4.615   4.940   2.977 -0.3400 -0.7048 -0.2926
  121MOL   C17746017   4.599   4.797   3.036  0.6166  0.0912 -0.5909
  121MOL   C17846018   4.609   4.784   3.188 -0.1553 -0.6511 -0.2049
  121MOL   C17946019   4.586   4.640   3.244  0.6386  0.0817  0.3240
  121MOL   H18046020   4.939   5.217   2.872 -1.5182  1.1898 -0.6269
  121MOL   H18146021   4.985   5.072   2.952 -1.3491 -0.9059 -0.0025
  121MOL   H18246022   4.700   5.144   2.867  0.0237  0.7432  0.0661
  121MOL   H18346023   4.598   4.930   2.870  2.4915 -0.4577 -0.8028
  121MOL   H18446024   4.536   5.003   3.018  0.2377 -0.2249  0.0866
  121MOL   H18546025   4.670   4.732   2.985  1.4665  0.9321 -0.4919
  121MOL   H18646026   4.494   4.781   3.012  0.1294  4.0204 -1.3864
  121MOL   H18746027   4.708   4.820   3.215 -0.3795 -1.8254  2.3091
  121MOL   H18846028   4.545   4.856   3.238 -0.7709  0.3462 -2.3404
  121MOL   H18946029   4.583   4.629   3.352  0.2646 -2.3460  0.0858
  121MOL   H19046030   4.486   4.624   3.204  1.2869 -0.5171 -1.1206
  121MOL   H19146031   4.658   4.567   3.206  1.0441  0.7030 -0.1137
  121MOL   C19246032   4.751   5.234   3.060 -0.1559 -0.3201  0.2743
  121MOL   C19346033   4.764   5.384   3.014 -0.4366  0.1643 -0.1102
  121MOL   O19446034   4.655   5.394   2.923  0.3005 -0.1779 -0.4279
  121MOL   C19546035   4.677   5.435   2.788 -0.9548 -0.1190 -0.5005
  121MOL   C19646036   4.567   5.367   2.702 -0.3719  0.3863 -0.1365
  121MOL   C19746037   4.603   5.378   2.548 -0.8567 -0.1914 -1.0114
  121MOL   C19846038   4.517   5.291   2.463 -0.5784  0.6609 -0.4307
  121MOL   H19946039   4.826   5.229   3.138 -0.5802  1.2755  0.7968
  121MOL   H20046040   4.654   5.214   3.106 -1.3590 -0.3143 -2.1430
  121MOL   H20146041   4.857   5.398   2.959 -1.3549 -0.0436 -1.7728
  121MOL   H20246042   4.770   5.386   2.761 -0.6788  0.3518 -0.4150
  121MOL   H20346043   4.684   5.542   2.768  2.8705 -0.3187 -0.5026
  121MOL   H20446044   4.559   5.263   2.733  0.2395  1.0660  2.4789
  121MOL   H20546045   4.470   5.415   2.717  0.7888  3.0087 -0.5984
  121MOL   H20646046   4.706   5.346   2.532 -0.5630  1.3384 -2.3922
  121MOL   H20746047   4.599   5.485   2.527  0.9014  0.2732  0.8135
  121MOL   H20846048   4.508   5.187   2.493  0.0355  0.6208 -0.3724
  121MOL   H20946049   4.418   5.334   2.446 -1.3086 -1.3015 -1.2424
  121MOL   H21046050   4.563   5.288   2.365  0.5569 -2.1933  0.1391
  121MOL   C21146051   4.729   5.484   3.120  0.6916  0.5158  0.4266
  121MOL   C21246052   4.842   5.495   3.230  0.3133 -0.1533  0.6574
  121MOL   O21346053   4.957   5.553   3.170  0.0212  0.0902 -0.6138
  121MOL   C21446054   5.081   5.518   3.222 -0.6072  0.2267 -0.3689
  121MOL   C21546055   5.198   5.559   3.130 -0.7364  0.6132  0.8295
  121MOL   C21646056   5.216   5.710   3.102 -0.6480 -0.5118 -0.6372
  121MOL   C21746057   5.316   5.765   3.000 -0.4380  0.0362 -0.2289
  121MOL   H21846058   4.634   5.464   3.171  0.9039  0.3893  0.7771
  121MOL   H21946059   4.716   5.585   3.081  1.9136  0.5442  0.0772
  121MOL   H22046060   4.869   5.394   3.262  0.2716  0.0418  1.3129
  121MOL   H22146061   5.094   5.538   3.329 -0.8576 -0.9814 -0.0975
  121MOL   H22246062   5.081   5.409   3.228  2.9153  0.1741 -0.4123
  121MOL   H22346063   5.294   5.519   3.165  0.5128  0.2509 -2.8154
  121MOL   H22446064   5.181   5.515   3.032 -0.9558  0.2480  1.0306
  121MOL   H22546065   5.233   5.760   3.197 -1.7522  0.0790 -0.7507
  121MOL   H22646066   5.116   5.743   3.075 -0.7192  0.5003  0.8045
  121MOL   H22746067   5.345   5.869   3.016  0.4000 -0.0248 -1.3202
  121MOL   H22846068   5.285   5.743   2.898 -0.2781 -0.1665 -0.2349
  121MOL   H22946069   5.414   5.719   3.014  0.7706  3.3431  3.2743
  121MOL   C23046070   4.804   5.593   3.342 -0.0217 -0.0446 -0.3216
  121MOL   C23146071   4.684   5.555   3.431 -0.3202 -0.0270  0.7112
  121MOL   O23246072   4.695   5.411   3.459  0.2248 -0.6224  0.5361
  121MOL   C23346073   4.572   5.348   3.460  0.0646 -0.0520  0.0183
  121MOL   C23446074   4.591   5.198   3.501  0.2086 -0.0926 -0.2847
  121MOL   C23546075   4.678   5.113   3.412 -0.2440  0.6361  0.0994
  121MOL   C23646076   4.715   4.987   3.476 -0.0482  0.6465  0.0243
  121MOL   H23746077   4.795   5.692   3.296 -1.5001 -0.2089 -0.4361
  121MOL   H23846078   4.889   5.593   3.410  0.5646  1.5635 -1.0392
  121MOL   H23946079   4.590   5.580   3.380  0.6118  4.6816  1.0722
  121MOL   H24046080   4.489   5.394   3.514 -1.1492 -1.1094 -0.8854
  121MOL   H24146081   4.539   5.346   3.356  1.1761  1.7999 -0.3931
  121MOL   H24246082   4.641   5.194   3.598 -1.6007  0.0296  0.6969
  121MOL   H24346083   4.492   5.152   3.502  1.2111 -2.3015  0.8867
  121MOL   H24446084   4.766   5.169   3.382  0.2080 -0.2725 -0.2901
  121MOL   H24546085   4.624   5.082   3.323  1.2297  0.8610 -0.8862
  121MOL   H24646086   4.622   4.940   3.507  1.2080 -0.6495  1.9236
  121MOL   H24746087   4.771   5.012   3.566  1.5176  0.9686 -1.0271
  121MOL   H24846088   4.787   4.936   3.412 -0.8810  0.7238 -0.9806
  121MOL   C24946089   4.676   5.637   3.562 -0.1451  0.3243 -0.2149
  121MOL   C25046090   4.605   5.780   3.554 -0.3037 -0.2205 -0.1657
  121MOL   O25146091   4.460   5.757   3.542  0.2657  0.7273 -0.4222
  121MOL   C25246092   4.401   5.774   3.669  0.5087 -0.5221 -0.5038
  121MOL   C25346093   4.247   5.741   3.671  0.1538  0.0567  0.4859
  121MOL   C25446094   4.177   5.752   3.811  0.0755  0.0186  0.2476
  121MOL   C25546095   4.024   5.734   3.797  0.7836  0.2978  0.0214
  121MOL   H25646096   4.777   5.652   3.601  0.1977  0.1450 -1.0056
  121MOL   H25746097   4.612   5.582   3.630  0.4357 -0.1837 -0.0791
  121MOL   H25846098   4.615   5.832   3.650 -0.3076  1.2415 -0.9476
  121MOL   H25946099   4.417   5.878   3.698 -0.2899 -0.5942  0.2148
  121MOL   H26046100   4.444   5.704   3.741 -0.5310  0.2338  0.8829
  121MOL   H26146101   4.195   5.804   3.599  3.0340  2.5881  0.5218
  121MOL   H26246102   4.246   5.641   3.630  1.5816  0.4541 -0.5590
  121MOL   H26346103   4.215   5.678   3.881  1.2975  1.4269  1.1211
  121MOL   H26446104   4.202   5.847   3.858  0.9898  0.9496 -2.0434
  121MOL   H26546105   3.978   5.824   3.757  0.3850 -1.0978 -2.7703
  121MOL   H26646106   3.980   5.713   3.895 -0.2628  1.5100 -0.1871
  121MOL   H26746107   4.001   5.658   3.723 -1.6780  1.4390 -0.4136
  121MOL   C26846108   4.643   5.872   3.438 -0.3631 -0.2092  0.7619
  121MOL   C26946109   4.594   6.020   3.446 -0.0194  0.1177 -0.5141
  121MOL   O27046110   4.673   6.103   3.361  0.1608 -0.3622  0.3905
  121MOL   C27146111   4.801   6.149   3.400  0.0405  0.7452 -0.5568
  121MOL   C27246112   4.874   6.180   3.266 -0.3557 -0.5518  0.0236
  121MOL   C27346113   5.020   6.214   3.277  0.7676  0.2634 -0.5096
  121MOL   C27446114   5.121   6.094   3.278 -0.3866  0.1006 -0.4762
  121MOL   H27546115   4.750   5.883   3.453 -0.1533 -1.7371  0.4368
  121MOL   H27646116   4.619   5.839   3.337  2.9677  0.5449 -0.3372
  121MOL   H27746117   4.621   6.044   3.549 -0.0683 -0.1968 -0.4261
  121MOL   H27846118   4.782   6.234   3.466 -1.8069 -1.2243  1.4949
  121MOL   H27946119   4.850   6.079   3.467  0.3430  0.7720 -0.7522
  121MOL   H28046120   4.866   6.102   3.190 -0.8878  0.0772 -0.5852
  121MOL   H28146121   4.809   6.259   3.227  0.2571 -0.1450 -0.1778
  121MOL   H28246122   5.047   6.274   3.364  1.9597 -0.4443 -0.3765
  121MOL   H28346123   5.059   6.271   3.193  2.1060 -0.2327 -0.2500
  121MOL   H28446124   5.222   6.129   3.298  0.2624 -1.4183 -1.0588
  121MOL   H28546125   5.114   6.027   3.193 -0.7839  0.2220 -0.5418
  121MOL   H28646126   5.087   6.039   3.366  1.3098  0.7395  0.5852
  121MOL   C28746127   4.446   6.043   3.431  0.4015 -0.8216  0.3363
  121MOL   C28846128   4.410   6.195   3.416 -0.0469 -0.0245  0.5260
  121MOL   O28946129   4.280   6.213   3.464 -0.0138  0.2001 -0.2839
  121MOL   C29046130   4.270   6.243   3.603  0.1108 -0.6407 -0.1104
  121MOL   C29146131   4.124   6.247   3.653 -0.3686 -0.7547  0.0397
  121MOL   C29246132   4.051   6.118   3.623 -0.2752  0.1029 -0.9233
  121MOL   C29346133   3.920   6.106   3.702  0.2720 -0.6474 -0.6253
  121MOL   H29446134   4.393   6.000   3.516 -1.2016  1.3252  0.4845
  121MOL   H29546135   4.413   5.984   3.346  2.4049 -2.3969  0.6214
  121MOL   H29646136   4.480   6.264   3.463 -1.8717  0.6865  2.2986
  121MOL   H29746137   4.333   6.173   3.659 -1.1698 -0.5358  1.5186
  121MOL   H29846138   4.316   6.339   3.629 -1.3110 -0.1528  0.6874
  121MOL   H29946139   4.086   6.330   3.594 -1.0190 -1.9479 -1.2288
  121MOL   H30046140   4.119   6.265   3.760  1.7782 -1.7879  0.3593
  121MOL   H30146141   4.106   6.024   3.629 -0.7839 -0.1164  0.3648
  121MOL   H30246142   4.023   6.115   3.518 -0.7109  1.0236 -0.8376
  121MOL   H30346143   3.846   6.181   3.674  1.5735  0.7901 -0.2734
  121MOL   H30446144   3.876   6.008   3.683 -0.1250 -0.3530 -1.2344
  121MOL   H30546145   3.943   6.119   3.808  1.5868  2.4961 -1.2578
  121MOL   C30646146   4.409   6.233   3.269 -0.4555 -0.2200 -0.1720
  121MOL   C30746147   4.351   6.378   3.235  0.4117  0.9491 -0.9345
  121MOL   O30846148   4.319   6.384   3.098  0.3574 -0.4752 -0.3140
  121MOL   C30946149   4.189   6.329   3.066  0.2691 -0.0856  0.1491
  121MOL   C31046150   4.097   6.446   3.033  0.4698 -0.7392 -0.9131
  121MOL   C31146151   3.997   6.409   2.927  0.3675 -0.0151  0.4535
  121MOL   C31246152   3.912   6.527   2.891  0.6416  0.0423 -0.1195
  121MOL   H31346153   4.505   6.232   3.218  0.2093 -1.3760  1.0702
  121MOL   H31446154   4.334   6.165   3.228 -1.0437  0.0495  0.4463
  121MOL   H31546155   4.261   6.406   3.288 -0.0163 -0.0281 -1.1281
  121MOL   H31646156   4.151   6.269   3.149  0.9559  0.6899  1.0520
  121MOL   H31746157   4.194   6.259   2.984 -1.4729  0.9937 -0.9209
  121MOL   H31846158   4.158   6.535   3.014 -1.4379  0.7984  0.0249
  121MOL   H31946159   4.035   6.476   3.117  1.0803 -1.9105 -0.0296
  121MOL   H32046160   4.048   6.367   2.841  0.7919 -0.3580  0.8677
  121MOL   H32146161   3.926   6.340   2.974  0.3554  0.4065  1.0533
  121MOL   H32246162   3.979   6.597   2.839  2.9246 -1.2128  1.0683
  121MOL   H32346163   3.860   6.568   2.978 -1.2539 -0.3127 -1.0669
  121MOL   H32446164   3.832   6.504   2.821 -0.0798 -1.3371  1.1341
  121MOL   C32546165   4.450   6.493   3.251  0.8289 -0.5864  0.1808
  121MOL   C32646166   4.395   6.636   3.284  0.3728  0.1820  0.2188
  121MOL   O32746167   4.379   6.634   3.429  0.5196 -0.1999  0.1288
  121MOL   C32846168   4.253   6.691   3.471  0.1154 -0.3643  0.0113
  121MOL   C32946169   4.257   6.749   3.610  0.9207 -0.3403  0.0052
  121MOL   C33046170   4.133   6.834   3.638 -0.1028 -0.3889  0.5022
  121MOL   C33146171   4.108   6.869   3.788 -0.2322 -0.1636  0.0609
  121MOL   H33246172   4.499   6.501   3.155  0.7347 -1.1670  0.0835
  121MOL   H33346173   4.534   6.464   3.315  0.2426  0.3028  1.3812
  121MOL   H33446174   4.300   6.643   3.232  0.5507 -2.2891 -0.5386
  121MOL   H33546175   4.173   6.617   3.476 -2.0101  1.8658 -0.2432
  121MOL   H33646176   4.223   6.765   3.397 -0.0952 -0.5094 -0.0484
  121MOL   H33746177   4.260   6.670   3.685 -0.8611  0.1797  0.6521
  121MOL   H33846178   4.340   6.818   3.628  1.2196 -0.2399 -1.7230
  121MOL   H33946179   4.048   6.781   3.594 -0.2762  0.1868  0.1292
  121MOL   H34046180   4.137   6.927   3.581 -2.1405 -0.6862 -0.1496
  121MOL   H34146181   4.065   6.782   3.837 -1.2212  0.6162  0.6073
  121MOL   H34246182   4.031   6.946   3.795 -1.0530 -0.9311 -0.4837
  121MOL   H34346183   4.201   6.897   3.836  1.1511 -3.0163 -0.8285
  121MOL   C34446184   4.500   6.748   3.253  0.1216 -0.3058 -0.0673
  121MOL   C34546185   4.443   6.896   3.237  0.1097 -0.1464 -0.3234
  121MOL   O34646186   4.360   6.894   3.114  0.0828 -0.0846 -0.0724
  121MOL   C34746187   4.433   6.884   2.988  0.1570  0.1384 -0.0869
  121MOL   C34846188   4.348   6.907   2.865  0.0039  0.3731  0.7826
  121MOL   C34946189   4.217   6.828   2.851 -0.5244 -0.2809 -0.6640
  121MOL   C35046190   4.122   6.901   2.757  0.4132 -0.3668 -0.3605
  121MOL   H35146191   4.571   6.754   3.336 -0.8443  2.9586  0.5977
  121MOL   H35246192   4.552   6.723   3.161 -1.0590 -1.8809 -0.3360
  121MOL   H35346193   4.368   6.912   3.314  0.2217  3.0813 -0.8441
  121MOL   H35446194   4.473   6.786   2.962 -0.3804  0.0809 -0.7318
  121MOL   H35546195   4.518   6.952   2.985 -1.6202  2.5938  2.4934
  121MOL   H35646196   4.412   6.890   2.778 -2.7385  0.3001 -1.2784
  121MOL   H35746197   4.325   7.014   2.870 -1.2991  0.1772 -0.4592
  121MOL   H35846198   4.237   6.732   2.802 -1.8206  1.1854 -4.2530
  121MOL   H35946199   4.173   6.805   2.948  0.5921 -1.6053 -0.4543
  121MOL   H36046200   4.083   6.985   2.813  0.9074  0.1127 -0.7282
  121MOL   H36146201   4.041   6.833   2.729 -1.0028  1.5886 -1.1035
  121MOL   H36246202   4.163   6.944   2.665  2.1549 -1.9218 -0.3480
  121MOL   C36346203   4.556   6.999   3.243  0.8503 -0.6123 -0.4345
  121MOL   C36446204   4.499   7.138   3.215  0.3611  0.3936 -0.1415
  121MOL   O36546205   4.616   7.229   3.232  0.2452 -0.2054 -0.1544
  121MOL   C36646206   4.610   7.357   3.185 -0.0819  0.4842 -0.0965
  121MOL   C36746207   4.499   7.446   3.247 -0.0122 -0.1381  0.1145
  121MOL   C36846208   4.477   7.579   3.165  0.1822  0.2850  0.3203
  121MOL   C36946209   4.373   7.667   3.229 -0.4674 -0.4113 -0.1263
  121MOL   H37046210   4.635   6.988   3.169  1.5062 -0.6536  0.2626
  121MOL   H37146211   4.600   6.984   3.342 -0.8714 -2.7272  0.0578
  121MOL   H37246212   4.419   7.161   3.285  0.1582  1.2505 -0.6532
  121MOL   H37346213   4.611   7.353   3.076 -0.5845  1.7614 -0.1623
  121MOL   H37446214   4.708   7.391   3.216  0.7372  0.2003 -2.3078
  121MOL   H37546215   4.524   7.466   3.351  0.8831 -2.6377  0.4039
  121MOL   H37646216   4.401   7.398   3.251  0.1640 -0.5233 -0.1676
  121MOL   H37746217   4.443   7.546   3.067  0.3031  0.4096  0.2371
  121MOL   H37846218   4.569   7.636   3.161  0.7193 -0.4796  1.4996
  121MOL   H37946219   4.274   7.621   3.230 -1.6361  2.0252  1.1637
  121MOL   H38046220   4.414   7.676   3.329  0.6600 -3.4005 -0.2838
  121MOL   H38146221   4.372   7.766   3.183  0.8380  0.1124  0.9668
  121MOL   H38246222   4.458   7.141   3.114  1.6553  0.9295 -0.6642
  122MOL     C146223   6.162   0.058   6.102  0.2882 -0.5021 -0.1832
  122MOL     C246224   6.239   7.763   6.005 -0.6847  0.6864  0.6377
  122MOL     O346225   6.162   7.666   5.940  1.0504  0.1633 -0.2104
  122MOL     C446226   6.129   7.552   6.013 -0.2283  0.0133  0.0341
  122MOL     C546227   6.025   7.473   5.934  0.2451  0.6188  1.4059
  122MOL     C646228   6.077   7.425   5.794 -0.0674 -0.3473  0.5139
  122MOL     C746229   6.129   7.282   5.799 -1.1346  0.3210 -0.1868
  122MOL     H846230   6.078   0.104   6.049  0.0067  1.2680  1.7501
  122MOL     H946231   6.117   0.003   6.184  2.2086  0.9689  1.8973
  122MOL    H1046232   6.306   7.698   6.060 -0.0363  0.0941 -0.8074
  122MOL    H1146233   6.219   7.494   6.028  0.2399  0.5712 -0.5998
  122MOL    H1246234   6.079   7.584   6.105  0.3052 -0.8430  0.6202
  122MOL    H1346235   5.939   7.537   5.912 -0.5520 -0.9421 -0.1271
  122MOL    H1446236   5.968   7.401   5.993 -1.6577 -0.2763 -1.4588
  122MOL    H1546237   6.150   7.496   5.755  0.1023 -0.5810  0.4111
  122MOL    H1646238   6.000   7.415   5.717  1.7201 -1.6182 -1.1425
  122MOL    H1746239   6.057   7.220   5.852 -1.5558 -0.8460 -2.0784
  122MOL    H1846240   6.228   7.277   5.845 -0.6922  2.6499 -0.8394
  122MOL    H1946241   6.146   7.244   5.699  0.7954  1.6067 -0.3704
  122MOL    H2046242   6.238   0.124   6.144  1.2839 -0.9273 -1.2764
  122MOL    C2146243   6.336   0.034   5.906 -0.1431 -0.9794 -0.9212
  122MOL    C2246244   6.415   7.749   5.803 -0.1969  0.2184  0.1386
  122MOL    O2346245   6.495   0.031   5.721  0.1694 -0.5551  0.2374
  122MOL    C2446246   6.431   0.105   5.623  0.1742 -0.4002 -0.5212
  122MOL    C2546247   6.543   0.168   5.543  0.2185 -0.4611 -0.6700
  122MOL    C2646248   6.623   0.077   5.453  0.0764 -0.5321  0.3345
  122MOL    C2746249   6.738   0.150   5.383 -0.1020 -0.2306  0.5976
  122MOL    H2846250   6.417   0.078   5.964 -2.2003  1.7455 -0.0012
  122MOL    H2946251   6.281   0.107   5.847 -0.1454  1.3071  1.8130
  122MOL    H3046252   6.334   7.698   5.750  2.0421 -2.7880 -0.4855
  122MOL    H3146253   6.378   0.185   5.675  0.5305 -0.5756  0.1165
  122MOL    H3246254   6.363   0.049   5.559  1.0344  0.2536 -2.0480
  122MOL    H3346255   6.486   0.240   5.484  1.9831  1.2801 -0.2889
  122MOL    H3446256   6.608   0.244   5.588  0.6026 -0.6716 -0.8707
  122MOL    H3546257   6.649   7.787   5.506  1.3537  0.0510  0.7342
  122MOL    H3646258   6.556   0.035   5.378  0.2831 -0.2193 -0.0300
  122MOL    H3746259   6.785   0.079   5.315 -0.2887  0.8968 -0.7275
  122MOL    H3846260   6.694   0.222   5.314 -0.6840  0.1331  1.3377
  122MOL    H3946261   6.797   0.201   5.459  0.1354  0.6332 -0.1589
  122MOL    C4046262   6.504   7.635   5.871 -0.5624 -0.4358 -1.0125
  122MOL    C4146263   6.583   7.552   5.767  0.0886 -0.0589  0.2629
  122MOL    O4246264   6.488   7.484   5.684 -0.3975  0.7429 -0.2523
  122MOL    C4346265   6.498   7.519   5.547  0.0047  0.1755  0.7596
  122MOL    C4446266   6.424   7.407   5.472  0.5112  0.3617 -0.1305
  122MOL    C4546267   6.452   7.262   5.517 -0.6588  0.4315  0.2854
  122MOL    C4646268   6.379   7.151   5.425  0.0585 -0.9593 -0.3431
  122MOL    H4746269   6.443   7.572   5.934 -0.9746 -0.6873 -1.6551
  122MOL    H4846270   6.572   7.677   5.944 -1.7669 -2.0443  1.0808
  122MOL    H4946271   6.645   7.619   5.707 -0.6207  1.3486  1.0795
  122MOL    H5046272   6.594   7.534   5.498 -0.8955 -0.2580 -1.1768
  122MOL    H5146273   6.442   7.608   5.520 -1.0244 -0.3300  1.1822
  122MOL    H5246274   6.454   7.419   5.368 -0.9767 -1.7109 -0.8287
  122MOL    H5346275   6.317   7.419   5.488  0.1072 -0.9584 -1.6908
  122MOL    H5446276   6.434   7.237   5.621 -0.4486  1.3799  0.5557
  122MOL    H5546277   6.558   7.253   5.493 -0.6003  0.8951  0.3759
  122MOL    H5646278   6.273   7.173   5.421  0.5230  1.4411 -0.1329
  122MOL    H5746279   6.420   7.138   5.324  0.9401 -1.0543  0.0194
  122MOL    H5846280   6.405   7.057   5.474  2.3096  0.1817  0.7081
  122MOL    C5946281   6.676   7.458   5.844 -0.9966  0.4348 -0.6471
  122MOL    C6046282   6.770   7.371   5.752 -0.6956 -0.1947  0.2424
  122MOL    O6146283   6.857   7.459   5.677 -0.6918  0.0969  0.4380
  122MOL    C6246284   6.892   7.413   5.552 -0.2329  0.2659 -0.2327
  122MOL    C6346285   6.991   7.510   5.486  0.0371 -0.0897 -0.4408
  122MOL    C6446286   6.945   7.653   5.503  0.1267  0.1003  0.4142
  122MOL    C6546287   7.025   7.758   5.427 -0.0989  0.7891  0.1601
  122MOL    H6646288   6.740   7.509   5.917  0.4329  1.4481 -2.5450
  122MOL    H6746289   6.627   7.391   5.914  1.0313  0.9497  1.3416
  122MOL    H6846290   6.709   7.313   5.684 -1.4512  0.8086  0.0566
  122MOL    H6946291   6.809   7.408   5.480  0.6247 -0.1874 -1.2051
  122MOL    H7046292   6.931   7.313   5.568  0.0955  0.4593  0.1796
  122MOL    H7146293   7.090   7.484   5.522  0.3330  0.6181 -0.7416
  122MOL    H7246294   6.999   7.482   5.381 -0.0299  0.3619 -0.5670
  122MOL    H7346295   6.841   7.663   5.474  0.5490 -0.3057 -1.2692
  122MOL    H7446296   6.941   7.681   5.608 -1.4014  2.7786 -0.3269
  122MOL    H7546297   7.132   7.762   5.444  0.1050 -0.9287 -0.6239
  122MOL    H7646298   7.025   7.740   5.319  1.5146 -1.6649  0.5252
  122MOL    H7746299   6.981   0.052   5.453 -2.5327 -0.1469 -0.3113
  122MOL    C7846300   6.861   7.276   5.833  0.1501 -0.5279  0.1846
  122MOL    C7946301   6.817   7.124   5.816 -0.4328 -0.1221  0.2387
  122MOL    O8046302   6.691   7.099   5.875  0.2941  0.3145 -0.2638
  122MOL    C8146303   6.610   6.993   5.826  0.0479 -0.1104  0.2710
  122MOL    C8246304   6.498   6.972   5.939 -0.5287 -0.5384 -0.2671
  122MOL    C8346305   6.390   6.870   5.901  0.4431 -0.2704 -0.1311
  122MOL    C8446306   6.280   6.841   5.999  0.3192 -0.1492 -0.4045
  122MOL    H8546307   6.863   7.311   5.936  1.7423 -1.2323  0.4045
  122MOL    H8646308   6.960   7.264   5.790 -0.2334  0.8466 -1.1028
  122MOL    H8746309   6.805   7.108   5.709 -0.5158 -1.7971  0.4848
  122MOL    H8846310   6.656   6.895   5.811 -1.5775 -0.7136 -0.9356
  122MOL    H8946311   6.561   7.016   5.732 -1.6531 -0.3608  1.0821
  122MOL    H9046312   6.543   6.952   6.036  0.0048  1.7794 -0.0015
  122MOL    H9146313   6.445   7.066   5.957 -0.3623 -0.9178  2.3779
  122MOL    H9246314   6.445   6.777   5.882 -1.2185 -1.0377 -1.3779
  122MOL    H9346315   6.352   6.894   5.802  0.6710 -2.0117 -0.6678
  122MOL    H9446316   6.200   6.786   5.951  0.9769 -0.6663 -0.9180
  122MOL    H9546317   6.322   6.784   6.082 -2.5083 -0.8027  0.6218
  122MOL    H9646318   6.233   6.933   6.033  0.9676  0.8526 -2.1767
  122MOL    C9746319   6.926   7.024   5.870  0.4887  0.3429 -0.1729
  122MOL    C9846320   6.980   7.051   6.016 -0.0617  0.1613  0.2481
  122MOL    O9946321   7.045   7.183   6.015  0.3985 -0.3065  0.7273
  122MOL   C10046322   7.183   7.186   6.023 -0.3041  0.5631 -0.4933
  122MOL   C10146323   7.244   7.289   5.934  0.4650  0.1832  0.8597
  122MOL   C10246324   7.198   7.424   5.956 -0.3906  0.2143  0.4973
  122MOL   C10346325   7.287   7.536   5.888  0.4010  0.2453 -0.9718
  122MOL   H10446326   7.000   7.035   5.791  0.2524  1.3712 -0.2588
  122MOL   H10546327   6.887   6.923   5.865 -1.3837  1.1074 -2.3221
  122MOL   H10646328   7.051   6.969   6.028  0.1018  0.5296  1.9640
  122MOL   H10746329   7.217   7.089   5.988  0.5011  0.8877 -0.6074
  122MOL   H10846330   7.224   7.191   6.124  0.8059  1.3486 -0.9742
  122MOL   H10946331   7.246   7.263   5.828  1.3597 -1.3645  1.2344
  122MOL   H11046332   7.351   7.281   5.956  0.6956  1.2378  0.1980
  122MOL   H11146333   7.187   7.460   6.059  2.3600 -1.4756  1.4337
  122MOL   H11246334   7.096   7.427   5.917 -0.3483 -1.6965  0.2033
  122MOL   H11346335   7.392   7.516   5.908  0.2200  0.6539  0.4409
  122MOL   H11446336   7.292   7.529   5.779  1.6810  0.6718 -0.9473
  122MOL   H11546337   7.262   7.638   5.919 -4.2341 -0.2748 -2.6095
  122MOL   C11646338   6.884   7.062   6.131  0.0229 -0.1577  0.3203
  122MOL   C11746339   6.941   7.072   6.275 -0.4343  0.1807  0.3989
  122MOL   O11846340   6.828   7.051   6.359  0.1984  0.1315 -0.0977
  122MOL   C11946341   6.775   7.165   6.431  0.2043  0.2665 -0.2306
  122MOL   C12046342   6.636   7.121   6.480  0.4041 -0.6261 -0.1305
  122MOL   C12146343   6.634   7.004   6.575  0.4211  0.6139  0.8559
  122MOL   C12246344   6.721   7.022   6.702  0.5238  0.0901  0.7559
  122MOL   H12346345   6.803   7.134   6.119 -0.4304 -0.8477 -0.9862
  122MOL   H12446346   6.835   6.964   6.135 -0.0831 -0.2579 -2.4172
  122MOL   H12546347   6.988   7.170   6.280 -0.3096  0.1037  0.7588
  122MOL   H12646348   6.750   7.251   6.369  1.4936  1.6395  1.0908
  122MOL   H12746349   6.829   7.204   6.518  0.4030  0.0036 -0.2347
  122MOL   H12846350   6.565   7.105   6.399 -1.3561  2.0472  0.8230
  122MOL   H12946351   6.598   7.208   6.533 -0.4438 -1.0311 -0.0606
  122MOL   H13046352   6.529   6.989   6.599  0.2595  1.8928  0.9607
  122MOL   H13146353   6.667   6.915   6.522 -0.7559  0.9466 -0.4593
  122MOL   H13246354   6.706   6.929   6.758  0.5643 -0.3935 -0.0285
  122MOL   H13346355   6.688   7.103   6.766 -0.8166  0.3527 -0.2517
  122MOL   H13446356   6.828   7.022   6.684  0.0889 -2.0638 -2.1865
  122MOL   C13546357   7.046   6.959   6.305 -0.4494 -0.5872 -0.3365
  122MOL   C13646358   7.108   6.967   6.447  0.8791  0.4120  0.0390
  122MOL   O13746359   7.176   6.837   6.467 -0.1612 -0.7544 -0.0416
  122MOL   C13846360   7.089   6.734   6.511  0.3723 -0.6558 -0.1936
  122MOL   C13946361   7.160   6.597   6.504  0.2715  0.2602 -0.0040
  122MOL   C14046362   7.213   6.552   6.371 -0.1626  0.7522 -0.6439
  122MOL   C14146363   7.253   6.400   6.369 -0.0582  0.0470 -0.1867
  122MOL   H14246364   7.125   6.957   6.230 -2.0994 -2.3410 -2.0996
  122MOL   H14346365   6.995   6.865   6.284 -2.9857  0.7666 -0.3869
  122MOL   H14446366   7.032   6.977   6.525  1.4557  0.3659  0.6151
  122MOL   H14546367   7.001   6.730   6.446 -1.2939 -2.7987  2.0992
  122MOL   H14646368   7.065   6.756   6.614  0.8846  0.7591 -0.3608
  122MOL   H14746369   7.080   6.525   6.520  0.2587  0.1276 -0.6249
  122MOL   H14846370   7.235   6.573   6.578  1.6316  2.6451 -0.5623
  122MOL   H14946371   7.134   6.554   6.295 -0.9658 -2.5335  0.0227
  122MOL   H15046372   7.297   6.617   6.345 -0.3883  1.7047  0.9227
  122MOL   H15146373   7.346   6.380   6.424 -0.6520  1.4225  1.3970
  122MOL   H15246374   7.186   6.325   6.409  0.2934  0.4015  1.1202
  122MOL   H15346375   7.282   6.375   6.267 -0.5103  1.6096 -0.7209
  122MOL   C15446376   7.212   7.079   6.460 -0.8380 -0.1566 -0.5247
  122MOL   C15546377   7.273   7.102   6.598  0.7803  0.0065  0.0073
  122MOL   O15646378   7.183   7.172   6.677 -0.1528  0.0985 -0.1279
  122MOL   C15746379   7.169   7.113   6.809  0.3845  0.0548  0.2670
  122MOL   C15846380   7.056   7.180   6.894 -0.5537 -0.3068 -0.0750
  122MOL   C15946381   7.062   7.331   6.907 -0.1141 -0.6873  0.1595
  122MOL   C16046382   7.177   7.377   6.990 -0.0071  0.2199  0.7281
  122MOL   H16146383   7.174   7.179   6.435  1.8443  1.0986  0.2038
  122MOL   H16246384   7.291   7.055   6.388 -1.3852 -1.6898 -0.6205
  122MOL   H16346385   7.289   7.000   6.631 -1.2714  0.4007  2.2989
  122MOL   H16446386   7.157   7.005   6.805 -0.3142  0.1709 -0.7913
  122MOL   H16546387   7.261   7.142   6.861 -0.0483 -0.1730  1.1627
  122MOL   H16646388   7.073   7.144   6.995  1.5802  0.4107 -0.1684
  122MOL   H16746389   6.961   7.134   6.865 -0.4506 -0.9376  0.5864
  122MOL   H16846390   7.065   7.365   6.804 -0.6118 -0.2642  0.2838
  122MOL   H16946391   6.970   7.358   6.959 -1.6056 -2.5537 -1.4539
  122MOL   H17046392   7.271   7.332   6.957 -0.6605  1.1660 -2.6001
  122MOL   H17146393   7.202   7.483   6.985 -0.0399  0.1282 -2.1428
  122MOL   H17246394   7.168   7.356   7.097 -0.1588 -0.0042  0.6729
  122MOL   C17346395   7.412   7.164   6.609 -0.6347 -0.7029 -0.2353
  122MOL   C17446396   7.538   7.066   6.612 -0.4642  0.3200  0.0163
  122MOL   O17546397   7.664   7.133   6.597  0.0746 -0.8648 -0.0065
  122MOL   C17646398   7.707   7.172   6.467  0.3440  0.2471  0.3142
  122MOL   C17746399   0.052   7.220   6.472 -0.2123  0.3215 -0.6991
  122MOL   C17846400   0.146   7.115   6.524 -0.5120 -0.1955 -0.3686
  122MOL   C17946401   0.292   7.169   6.540 -0.3209  0.0426  0.1620
  122MOL   H18046402   7.418   7.230   6.695  0.9613 -1.9018  0.6141
  122MOL   H18146403   7.429   7.221   6.517  0.1486 -0.0474  0.3144
  122MOL   H18246404   7.532   6.990   6.533 -2.4689 -0.9355  1.3395
  122MOL   H18346405   7.646   7.252   6.425  0.1682 -0.2963 -0.4932
  122MOL   H18446406   7.706   7.086   6.400 -0.0573  2.0525 -2.0763
  122MOL   H18546407   0.052   7.307   6.537  1.0474  1.2881 -1.9725
  122MOL   H18646408   0.087   7.260   6.377  1.3644  1.2860  0.2567
  122MOL   H18746409   0.114   7.090   6.625  0.7389  2.0666  0.6218
  122MOL   H18846410   0.144   7.024   6.464  0.1320 -0.2128 -0.3663
  122MOL   H18946411   0.347   7.104   6.609 -1.0949 -2.0919 -1.1762
  122MOL   H19046412   0.344   7.160   6.444 -1.0982 -1.6548 -0.1100
  122MOL   H19146413   0.299   7.266   6.589 -1.8499  1.0506 -1.5682
  122MOL   C19246414   7.540   6.993   6.754 -0.9721  0.4989 -0.0290
  122MOL   C19346415   7.672   6.909   6.763  0.1174 -0.0753  0.3830
  122MOL   O19446416   7.674   6.851   6.896  0.3738  0.7240 -0.1912
  122MOL   C19546417   7.723   6.937   6.999  0.6162  0.0944 -0.3294
  122MOL   C19646418   7.701   6.864   7.137  0.0524 -0.1422  0.0646
  122MOL   C19746419   7.764   6.726   7.160  0.2473  0.6991  0.3027
  122MOL   C19846420   7.716   6.657   7.292 -0.6371 -0.2094 -0.1016
  122MOL   H19946421   7.458   6.925   6.775 -1.0457  0.3203 -0.8946
  122MOL   H20046422   7.545   7.068   6.834  2.1435  0.6094 -0.2965
  122MOL   H20146423   7.764   6.968   6.765 -0.8171  1.5528 -2.1497
  122MOL   H20246424   7.671   7.033   7.004  0.5687  0.1322 -1.4012
  122MOL   H20346425   0.030   6.947   6.998  0.5647  0.7213  0.3655
  122MOL   H20446426   7.747   6.931   7.210  1.1949 -1.3931  0.5021
  122MOL   H20546427   7.594   6.857   7.159  0.2388 -0.3458  0.9479
  122MOL   H20646428   0.071   6.733   7.159  0.4825 -2.2400 -0.9714
  122MOL   H20746429   7.746   6.670   7.068  0.7900 -0.3794  0.8444
  122MOL   H20846430   7.761   6.558   7.290  0.0310  0.0928 -0.0162
  122MOL   H20946431   7.764   6.708   7.375 -0.7451  1.5564 -1.0935
  122MOL   H21046432   7.607   6.658   7.302 -0.6642  1.2737 -0.4181
  122MOL   C21146433   7.681   6.805   6.659  0.1575 -0.3576  0.9304
  122MOL   C21246434   0.005   6.702   6.663  0.4989 -0.1571  0.2419
  122MOL   O21346435   7.785   6.606   6.558 -0.0409 -0.0912 -0.2625
  122MOL   C21446436   7.681   6.510   6.588 -0.9648 -0.0942  0.5975
  122MOL   C21546437   7.667   6.387   6.499 -0.4755 -0.3225  0.2130
  122MOL   C21646438   7.799   6.308   6.505  0.4175 -0.2175 -0.0548
  122MOL   C21746439   7.796   6.175   6.422 -0.3222  0.0196 -0.1787
  122MOL   H21846440   7.695   6.861   6.567 -0.5430 -1.5397  0.0913
  122MOL   H21946441   7.584   6.755   6.660 -0.1372  0.2369  2.2993
  122MOL   H22046442   0.000   6.652   6.760 -3.1190  0.1509  0.2977
  122MOL   H22146443   7.699   6.476   6.690 -0.2843  0.4144  0.6538
  122MOL   H22246444   7.581   6.554   6.589 -0.2881  1.5586  4.5457
  122MOL   H22346445   7.577   6.327   6.513 -0.0094 -1.5373 -1.7464
  122MOL   H22446446   7.647   6.420   6.397 -0.5110  0.0267  0.3301
  122MOL   H22546447   0.014   6.280   6.609  0.3354 -2.1553 -0.5542
  122MOL   H22646448   0.081   6.371   6.475 -0.6850  0.7133 -1.2454
  122MOL   H22746449   0.087   6.117   6.428  0.8954  1.7225 -1.8485
  122MOL   H22846450   7.779   6.199   6.318 -1.3178 -1.3550 -0.3499
  122MOL   H22946451   7.721   6.102   6.454  1.1549 -0.5486  2.1871
  122MOL   C23046452   0.149   6.766   6.650  0.9301 -0.0003  0.0648
  122MOL   C23146453   0.261   6.659   6.659 -0.5211  0.3083  0.4649
  122MOL   O23246454   0.382   6.721   6.631 -0.1076  0.0400  0.1801
  122MOL   C23346455   0.419   6.733   6.495  0.0015  0.3472 -0.0035
  122MOL   C23446456   0.522   6.841   6.486  0.2733  0.6754  0.9463
  122MOL   C23546457   0.542   6.890   6.337 -0.1092 -0.4499  0.3284
  122MOL   C23646458   0.650   6.995   6.318  0.7280 -0.4400 -0.1450
  122MOL   H23746459   0.155   6.840   6.730  0.0275  1.5250 -1.2409
  122MOL   H23846460   0.158   6.816   6.553 -2.6916 -1.0393 -0.9004
  122MOL   H23946461   0.240   6.584   6.582  2.2037 -1.5342  1.4626
  122MOL   H24046462   0.466   6.642   6.459  2.9864  1.2025  1.6052
  122MOL   H24146463   0.338   6.770   6.431 -0.6947 -1.3192 -0.1036
  122MOL   H24246464   0.498   6.922   6.555 -1.8541 -2.3500  3.9268
  122MOL   H24346465   0.617   6.800   6.520  0.7133  1.2984  0.4924
  122MOL   H24446466   0.445   6.931   6.308  0.2705  1.1956  1.3003
  122MOL   H24546467   0.557   6.804   6.273 -1.0444  0.6297 -1.3635
  122MOL   H24646468   0.750   6.965   6.350  1.3694  1.9393  0.1474
  122MOL   H24746469   0.629   7.088   6.370 -0.4645 -0.3483 -0.7814
  122MOL   H24846470   0.654   7.038   6.218  0.0072 -0.6211 -0.2572
  122MOL   C24946471   0.281   6.597   6.800 -0.3417 -0.2726  0.1137
  122MOL   C25046472   0.395   6.492   6.808 -0.2078  0.5138  0.0707
  122MOL   O25146473   0.342   6.364   6.765 -0.1260  0.1970 -0.2635
  122MOL   C25246474   0.386   6.317   6.642  0.2826  0.2907 -0.3945
  122MOL   C25346475   0.341   6.174   6.637  0.3194 -0.7104 -0.4429
  122MOL   C25446476   0.374   6.106   6.504  0.0984 -0.2905  0.8025
  122MOL   C25546477   0.320   5.962   6.503  1.2320  0.0466 -0.0033
  122MOL   H25646478   0.189   6.546   6.829 -1.0105 -0.9918 -3.0717
  122MOL   H25746479   0.303   6.679   6.869  1.3113 -0.8550  0.3044
  122MOL   H25846480   0.473   6.528   6.741  0.2048 -2.8375 -1.3963
  122MOL   H25946481   0.495   6.305   6.643  0.1248 -1.3401 -0.7092
  122MOL   H26046482   0.358   6.371   6.552 -0.5023  0.8231  0.1712
  122MOL   H26146483   0.392   6.128   6.721  1.8645 -1.1099 -1.5795
  122MOL   H26246484   0.234   6.165   6.653  0.6249 -0.2948  1.9929
  122MOL   H26346485   0.331   6.146   6.412  0.6893 -2.4204 -0.4283
  122MOL   H26446486   0.483   6.115   6.500 -0.1023  3.5783  1.9079
  122MOL   H26546487   0.359   5.901   6.584  1.1783  0.7137  0.5267
  122MOL   H26646488   0.344   5.917   6.407 -2.3459 -0.8120 -0.5792
  122MOL   H26746489   0.212   5.962   6.522  1.6652  2.5080  2.8657
  122MOL   C26846490   0.445   6.463   6.943 -0.2625  0.0275 -0.5893
  122MOL   C26946491   0.549   6.347   6.957  0.0409  0.2826 -0.1454
  122MOL   O27046492   0.686   6.384   6.942  0.1636 -0.5529 -0.3033
  122MOL   C27146493   0.734   6.415   6.810  0.5902  0.2419  0.3786
  122MOL   C27246494   0.888   6.403   6.805 -0.0703  0.2401  0.1613
  122MOL   C27346495   0.965   6.497   6.903 -0.2253  0.0198  0.2897
  122MOL   C27446496   1.101   6.438   6.947 -0.3044  0.3209  0.0553
  122MOL   H27546497   0.497   6.548   6.987 -0.4699 -0.1288 -0.0284
  122MOL   H27646498   0.364   6.440   7.013 -0.4571  0.3949 -0.6931
  122MOL   H27746499   0.528   6.253   6.906 -0.9461 -0.9294  2.3886
  122MOL   H27846500   0.688   6.347   6.739  2.7489 -0.4938 -0.3649
  122MOL   H27946501   0.711   6.517   6.778  0.0553  0.1141  0.3605
  122MOL   H28046502   0.903   6.298   6.828 -0.9854 -0.0120 -0.3645
  122MOL   H28146503   0.929   6.432   6.709 -0.2782  1.0745  0.3168
  122MOL   H28246504   0.908   6.509   6.996  0.0640 -1.0405  0.6133
  122MOL   H28346505   0.992   6.589   6.852 -0.9798 -0.5733 -1.2018
  122MOL   H28446506   1.162   6.417   6.859 -0.4675  0.4176 -0.0801
  122MOL   H28546507   1.087   6.343   6.999  0.4737 -0.3163 -0.8780
  122MOL   H28646508   1.158   6.496   7.020  1.4362 -0.8086 -0.3706
  122MOL   C28746509   0.540   6.288   7.101 -0.1742  0.1693  0.4507
  122MOL   C28846510   0.423   6.201   7.132  0.8843  0.0693 -0.1153
  122MOL   O28946511   0.303   6.274   7.146 -0.0334 -0.1855 -0.2308
  122MOL   C29046512   0.189   6.217   7.085  0.1293 -0.1504 -0.2374
  122MOL   C29146513   0.066   6.302   7.124  0.1126 -0.6778 -0.1996
  122MOL   C29246514   7.727   6.260   7.089  0.1213 -0.3465 -0.6817
  122MOL   C29346515   7.687   6.300   6.948 -0.0802  0.7705 -0.5520
  122MOL   H29446516   0.536   6.375   7.165  1.9149 -0.1417  1.0465
  122MOL   H29546517   0.635   6.236   7.114  0.2458  0.8725  0.2286
  122MOL   H29646518   0.402   6.130   7.052  0.3208 -2.1623  1.9311
  122MOL   H29746519   0.199   6.227   6.977 -3.7509  1.7794 -0.5244
  122MOL   H29846520   0.167   6.111   7.097 -0.0303 -0.1918 -0.8982
  122MOL   H29946521   0.088   6.406   7.104 -1.7222 -0.4987 -1.4482
  122MOL   H30046522   0.069   6.309   7.233 -1.6277  2.8887 -0.3339
  122MOL   H30146523   7.652   6.301   7.157 -0.0029  0.2416 -1.1655
  122MOL   H30246524   7.704   6.154   7.105  1.1287 -0.5955 -0.8596
  122MOL   H30346525   7.669   6.407   6.946 -1.8007  0.4782 -2.3019
  122MOL   H30446526   7.769   6.274   6.881  2.9732  1.6746  2.6611
  122MOL   H30546527   7.591   6.262   6.915  0.6568  1.1054 -3.1416
  122MOL   C30646528   0.452   6.134   7.276  0.0656  0.0833  0.0078
  122MOL   C30746529   0.340   6.043   7.327  0.2852 -0.2787 -0.6524
  122MOL   O30846530   0.378   5.997   7.459  0.7500 -0.0912 -0.1880
  122MOL   C30946531   0.363   6.091   7.565 -0.2041 -0.7514  0.2571
  122MOL   C31046532   0.425   6.031   7.696  0.3852  0.1965  0.0023
  122MOL   C31146533   0.407   6.122   0.017 -0.3512 -0.6104  0.0061
  122MOL   C31246534   0.488   6.073   0.141 -0.5101 -0.3570  0.7433
  122MOL   H31346535   0.545   6.076   7.270  0.8467  1.0844  2.0270
  122MOL   H31446536   0.467   6.219   7.343  0.3212  1.2638 -1.5297
  122MOL   H31546537   0.238   6.080   7.336  1.2563  1.8946  2.0617
  122MOL   H31646538   0.256   6.108   7.580  0.1015  2.2911 -0.7359
  122MOL   H31746539   0.415   6.185   7.547 -0.6188 -0.7682 -1.0805
  122MOL   H31846540   0.532   6.024   7.673  0.3871 -1.0412  0.3953
  122MOL   H31946541   0.388   5.929   7.706  2.8273 -0.7707 -0.4917
  122MOL   H32046542   0.446   6.218   7.786 -0.7958 -0.2040  0.6513
  122MOL   H32146543   0.309   6.151   0.056  0.6694  1.4983  1.1091
  122MOL   H32246544   0.505   6.157   0.209 -4.1893  0.5421  0.6624
  122MOL   H32346545   0.586   6.039   0.107 -0.9720  0.6517 -1.7072
  122MOL   H32446546   0.434   5.993   0.190 -0.4469 -1.1202 -0.4236
  122MOL   C32546547   0.329   5.930   7.232  0.0558 -0.5020 -0.1882
  122MOL   C32646548   0.216   5.826   7.258 -0.2692 -0.3547 -0.5174
  122MOL   O32746549   0.097   5.901   7.281  0.3956  0.4492 -0.1249
  122MOL   C32846550   7.790   5.831   7.330 -0.3440  0.0649 -0.0282
  122MOL   C32946551   7.672   5.932   7.364 -0.7733  0.5985 -0.0318
  122MOL   C33046552   7.699   6.028   7.483 -0.4419  0.1546  0.7883
  122MOL   C33146553   7.587   6.113   7.538 -0.0271  0.1962 -0.2032
  122MOL   H33246554   0.421   5.874   7.218  0.9749  1.0251 -0.2817
  122MOL   H33346555   0.298   5.969   7.135  1.5190  2.2166  0.3865
  122MOL   H33446556   0.237   5.767   7.348 -3.8622  0.7563  1.1257
  122MOL   H33546557   0.013   5.779   7.422  0.9753  0.5478 -0.0889
  122MOL   H33646558   7.760   5.763   7.250  1.1138  0.8108 -1.2434
  122MOL   H33746559   7.649   5.995   7.278 -0.7289  1.6650  0.7217
  122MOL   H33846560   7.584   5.870   7.380  1.9699 -3.2929  0.8097
  122MOL   H33946561   7.780   6.080   7.431 -1.0001 -0.8236 -1.1396
  122MOL   H34046562   7.737   5.981   7.573  0.3455  0.3797  0.5791
  122MOL   H34146563   7.637   6.198   7.584 -0.0165  1.0371 -1.7237
  122MOL   H34246564   7.523   6.055   7.604 -2.1067  0.4840 -1.9044
  122MOL   H34346565   7.521   6.155   7.462 -1.1999  0.2134  0.8233
  122MOL   C34446566   0.208   5.722   7.143  0.4512 -0.2932 -0.8794
  122MOL   C34546567   0.327   5.626   7.111 -0.0956  0.0825  0.2558
  122MOL   O34646568   0.286   5.510   7.040 -0.3144 -0.1258  0.2544
  122MOL   C34746569   0.223   5.540   6.913 -0.3843  0.8757 -0.5795
  122MOL   C34846570   0.169   5.413   6.850  0.2669  0.6969  0.5342
  122MOL   C34946571   0.060   5.347   6.931  0.2765  0.5121 -1.0217
  122MOL   C35046572   7.800   5.223   6.858  0.1232  0.1000  0.3977
  122MOL   H35146573   0.138   5.653   7.189  0.3714 -0.5374 -1.3641
  122MOL   H35246574   0.160   5.762   7.053  1.5435  0.9727 -0.9170
  122MOL   H35346575   0.391   5.677   7.039 -2.4544  0.2140 -1.8410
  122MOL   H35446576   0.289   5.599   6.850  0.9838 -0.3938 -0.3520
  122MOL   H35546577   0.128   5.592   6.927 -1.8372 -0.8680 -3.4304
  122MOL   H35646578   0.250   5.350   6.816  0.2146  0.9631 -0.0830
  122MOL   H35746579   0.128   5.440   6.753 -0.2174 -0.8375  0.3031
  122MOL   H35846580   0.108   5.310   7.022  0.8566 -3.7727 -2.9081
  122MOL   H35946581   7.786   5.419   6.959  0.4502  0.0001  0.8525
  122MOL   H36046582   0.070   5.141   6.854 -2.7677 -2.5245  0.9364
  122MOL   H36146583   7.762   5.231   6.756  0.8058  1.4750  0.2352
  122MOL   H36246584   7.713   5.193   6.916  0.1269  1.9580  1.3918
  122MOL   C36346585   0.408   5.569   7.229 -0.5182  0.4105  0.1023
  122MOL   C36446586   0.335   5.461   7.305 -0.5339  1.1209 -0.2854
  122MOL   O36546587   0.391   5.437   7.430 -0.1530 -0.5904 -0.8728
  122MOL   C36646588   0.348   5.530   7.534 -0.0842  0.0834 -0.1396
  122MOL   C36746589   0.423   5.498   7.660  0.3050  0.2987 -0.1926
  122MOL   C36846590   0.431   5.600   7.772  0.4857 -0.2743 -0.4991
  122MOL   C36946591   0.290   5.655   0.014  0.0685 -0.1265  0.1331
  122MOL   H37046592   0.438   5.654   7.290 -0.3703  2.0887 -2.2486
  122MOL   H37146593   0.499   5.522   7.192 -1.1672 -1.4669  0.8417
  122MOL   H37246594   0.338   5.368   7.248  2.0437  0.3716  1.0107
  122MOL   H37346595   0.242   5.525   7.556 -0.2934  0.6327 -1.0183
  122MOL   H37446596   0.375   5.633   7.511  1.4707 -0.0898  0.8428
  122MOL   H37546597   0.526   5.474   7.632  0.2595 -1.6066  1.1251
  122MOL   H37646598   0.395   5.404   7.707 -0.1226  1.6811  2.4435
  122MOL   H37746599   0.491   5.685   7.742 -2.0568  1.6479 -0.2855
  122MOL   H37846600   0.469   5.544   0.056  0.4861 -1.1409 -1.0612
  122MOL   H37946601   0.231   5.672   7.726  1.2528  1.8085 -0.3048
  122MOL   H38046602   0.234   5.586   0.077  0.0492 -0.5452 -0.3441
  122MOL   H38146603   0.284   5.747   0.072  0.9727  0.7637 -1.1589
  122MOL   H38246604   0.231   5.487   7.323 -0.7238  0.5944 -0.6214
  123MOL     C146605   4.742   3.421   4.450  0.8851 -0.4649 -0.5327
  123MOL     C246606   4.780   3.376   4.589  0.9638 -0.1543  0.3410
  123MOL     O346607   4.662   3.368   4.661 -0.2282  0.3412  0.1399
  123MOL     C446608   4.660   3.451   4.771 -0.5594  0.3753 -0.1239
  123MOL     C546609   4.530   3.427   4.856  0.3481 -0.6187 -0.1783
  123MOL     C646610   4.511   3.546   4.948  0.0458  0.3162 -0.1384
  123MOL     C746611   4.373   3.540   5.025 -0.6699  0.5750 -0.1832
  123MOL     H846612   4.832   3.444   4.393  0.0413  2.1945 -0.8642
  123MOL     H946613   4.691   3.346   4.389  2.0666 -0.2429 -1.8329
  123MOL    H1046614   4.847   3.450   4.631 -0.4262 -0.5227  3.3622
  123MOL    H1146615   4.746   3.427   4.833  0.7622  0.3808 -1.9210
  123MOL    H1246616   4.678   3.557   4.754  2.6114 -0.4098 -2.1579
  123MOL    H1346617   4.525   3.328   4.901 -2.6256 -0.4982 -0.1405
  123MOL    H1446618   4.444   3.422   4.789  0.6863 -0.1722 -0.6480
  123MOL    H1546619   4.516   3.638   4.890  2.0312  0.0379 -0.4426
  123MOL    H1646620   4.599   3.553   5.012 -0.8349 -2.0947  1.3889
  123MOL    H1746621   4.291   3.520   4.956 -1.1397 -0.2714  0.6150
  123MOL    H1846622   4.362   3.632   5.082  0.2312  0.1294  0.7166
  123MOL    H1946623   4.376   3.455   5.092  1.1113 -0.7541 -1.8908
  123MOL    H2046624   4.677   3.508   4.453  1.9117  0.2664  0.7994
  123MOL    C2146625   4.844   3.234   4.593 -0.0149 -0.0514 -0.1449
  123MOL    C2246626   4.885   3.181   4.737 -0.2954  0.2450  0.5550
  123MOL    O2346627   4.915   3.041   4.741 -0.5880  0.6365 -0.4778
  123MOL    C2446628   4.812   2.942   4.721 -0.6303 -0.1738 -0.5644
  123MOL    C2546629   4.882   2.810   4.703  0.1380  0.4141  0.0069
  123MOL    C2646630   4.794   2.700   4.650  0.5607 -0.7413  0.1090
  123MOL    C2746631   4.862   2.565   4.671  0.1864  0.7877  0.9036
  123MOL    H2846632   4.933   3.235   4.531 -0.0077 -0.9453 -0.1597
  123MOL    H2946633   4.775   3.162   4.548  0.3258 -0.6841  0.3263
  123MOL    H3046634   4.794   3.205   4.793 -1.3158 -0.3403 -0.8303
  123MOL    H3146635   4.774   2.960   4.621  0.2538 -2.0635 -1.2576
  123MOL    H3246636   4.738   2.947   4.801 -0.4695 -0.5672 -0.3925
  123MOL    H3346637   4.961   2.838   4.633 -0.7205 -1.3296 -1.6816
  123MOL    H3446638   4.925   2.773   4.796  1.9611  1.7306 -0.2706
  123MOL    H3546639   4.698   2.709   4.700 -0.1353  0.8412 -1.4403
  123MOL    H3646640   4.769   2.722   4.546 -1.4729  0.9216  0.9359
  123MOL    H3746641   4.961   2.561   4.627  0.4663  0.5339  1.5585
  123MOL    H3846642   4.885   2.536   4.773  0.2924  0.7310  0.8637
  123MOL    H3946643   4.804   2.486   4.622  1.9591 -0.8580  1.4144
  123MOL    C4046644   4.997   3.257   4.800 -0.0648  0.1311  0.1399
  123MOL    C4146645   5.035   3.215   4.943 -1.1937 -0.2309  0.0395
  123MOL    O4246646   4.934   3.261   5.031 -0.3511  0.0843 -0.0521
  123MOL    C4346647   4.836   3.161   5.062 -0.1806  0.1095  0.0694
  123MOL    C4446648   4.720   3.222   5.138 -0.2279 -0.5669 -0.5106
  123MOL    C4546649   4.608   3.116   5.161  0.5294 -1.0721 -0.1655
  123MOL    C4646650   4.496   3.167   5.255  0.0805  0.5966 -0.2274
  123MOL    H4746651   4.960   3.358   4.818  1.5076  0.5097  1.3730
  123MOL    H4846652   5.085   3.264   4.737 -1.6005  0.4593 -2.0185
  123MOL    H4946653   5.043   3.107   4.952 -1.0864 -0.3269 -1.1443
  123MOL    H5046654   4.890   3.095   5.130  1.9998  2.2187  0.4426
  123MOL    H5146655   4.814   3.086   4.986 -0.4419 -0.9230  1.1548
  123MOL    H5246656   4.683   3.312   5.090 -3.5237 -0.2827  2.4118
  123MOL    H5346657   4.751   3.250   5.239  0.6448 -0.1079 -0.8977
  123MOL    H5446658   4.655   3.027   5.204  2.5561 -0.8634 -1.8312
  123MOL    H5546659   4.552   3.087   5.071 -0.8733 -0.8414  0.6258
  123MOL    H5646660   4.545   3.197   5.347 -0.9448  1.4778  0.0375
  123MOL    H5746661   4.437   3.249   5.213 -1.4613  0.4137  1.4974
  123MOL    H5846662   4.432   3.085   5.288  3.5080 -0.7347  3.5348
  123MOL    C5946663   5.167   3.283   4.990  0.0965 -0.1037  0.6249
  123MOL    C6046664   5.194   3.247   5.136 -0.5353 -0.0049 -0.3237
  123MOL    O6146665   5.284   3.136   5.135 -0.2787 -0.3704  0.0961
  123MOL    C6246666   5.222   3.001   5.133 -0.1469 -0.4907  0.6016
  123MOL    C6346667   5.338   2.910   5.167  0.6576  0.9043  0.2021
  123MOL    C6446668   5.470   2.928   5.107  0.7635  0.8415  0.1557
  123MOL    C6546669   5.568   2.812   5.127 -0.6358 -0.2437 -0.3503
  123MOL    H6646670   5.245   3.246   4.924 -2.0674 -0.4651 -1.7797
  123MOL    H6746671   5.148   3.390   4.977 -0.3252 -0.3097 -0.4835
  123MOL    H6846672   5.108   3.224   5.198  0.6054  0.7138  1.5953
  123MOL    H6946673   5.186   2.973   5.034  2.9290  0.8217 -0.9602
  123MOL    H7046674   5.140   2.998   5.204 -1.3851  0.3336 -0.7748
  123MOL    H7146675   5.345   2.915   5.275  0.3940  0.0537  0.2666
  123MOL    H7246676   5.308   2.805   5.159  4.7579 -0.3340  0.0937
  123MOL    H7346677   5.461   2.953   5.002 -1.8280  0.3693  0.2351
  123MOL    H7446678   5.517   3.013   5.155  2.6977  0.7019 -1.4314
  123MOL    H7546679   5.668   2.825   5.085 -1.0333  0.3023 -1.1404
  123MOL    H7646680   5.594   2.811   5.233  0.8397  1.9359 -0.6707
  123MOL    H7746681   5.530   2.714   5.098  0.7202 -0.9222  0.1238
  123MOL    C7846682   5.252   3.367   5.206 -0.5739  0.0316  0.2259
  123MOL    C7946683   5.154   3.481   5.243  0.4683  0.2504  0.0306
  123MOL    O8046684   5.238   3.578   5.290 -0.0842 -0.3894 -0.0314
  123MOL    C8146685   5.226   3.702   5.214  0.1186  0.1147 -0.0592
  123MOL    C8246686   5.325   3.808   5.265  0.4156 -0.3686 -0.2247
  123MOL    C8346687   5.305   3.941   5.195  0.3698  0.0980 -0.0645
  123MOL    C8446688   5.430   4.031   5.231 -0.6262 -0.3300  0.1065
  123MOL    H8546689   5.342   3.404   5.156 -0.5590 -2.1398 -1.4073
  123MOL    H8646690   5.307   3.338   5.296  2.0980  2.7179 -0.4340
  123MOL    H8746691   5.108   3.512   5.149  1.6338 -0.1481 -0.6791
  123MOL    H8846692   5.120   3.726   5.223  0.2549  0.6998 -0.0264
  123MOL    H8946693   5.233   3.699   5.105 -0.8888 -1.4257 -0.0910
  123MOL    H9046694   5.316   3.828   5.371  1.7958 -0.1706 -0.1343
  123MOL    H9146695   5.425   3.765   5.259  0.6484  0.1820 -0.4448
  123MOL    H9246696   5.211   3.990   5.218 -0.3518 -1.2975 -0.0098
  123MOL    H9346697   5.306   3.930   5.087  0.6892  1.7053 -0.2474
  123MOL    H9446698   5.432   4.040   5.340 -0.9163  1.9229 -0.0408
  123MOL    H9546699   5.520   3.981   5.196 -1.6656  1.2811 -5.3022
  123MOL    H9646700   5.418   4.133   5.194  1.3939 -1.3692 -3.6369
  123MOL    C9746701   5.034   3.446   5.340  0.1418  0.2776 -0.2508
  123MOL    C9846702   4.967   3.565   5.415  0.6024 -0.2130  0.2333
  123MOL    O9946703   4.848   3.510   5.464  0.3077  0.3628 -0.3776
  123MOL   C10046704   4.731   3.554   5.402 -0.2546  0.3249  0.5953
  123MOL   C10146705   4.609   3.503   5.480  0.6301 -0.1376 -0.0042
  123MOL   C10246706   4.495   3.599   5.471 -0.0875  0.3492  0.5265
  123MOL   C10346707   4.375   3.553   5.557 -0.1143 -0.5827  0.3249
  123MOL   H10446708   5.074   3.381   5.418 -2.9145  0.1291  1.2464
  123MOL   H10546709   4.956   3.390   5.289  0.7425 -0.1637 -0.6973
  123MOL   H10646710   4.950   3.645   5.343 -1.5515 -1.5532 -0.8106
  123MOL   H10746711   4.726   3.533   5.296 -1.8912  0.9575  0.5463
  123MOL   H10846712   4.729   3.663   5.408 -2.4482  0.4439 -1.6573
  123MOL   H10946713   4.653   3.488   5.579  0.5672  2.6311  0.4713
  123MOL   H11046714   4.588   3.402   5.444 -1.6484  0.1516  0.4585
  123MOL   H11146715   4.472   3.614   5.366  1.2801  0.3769  0.2216
  123MOL   H11246716   4.530   3.700   5.494  0.9466  0.4039 -1.2206
  123MOL   H11346717   4.326   3.456   5.548 -0.0599 -0.4455 -1.6851
  123MOL   H11446718   4.396   3.554   5.664 -1.5386  1.9056  0.6038
  123MOL   H11546719   4.289   3.619   5.550  0.2079 -0.0881  1.0154
  123MOL   C11646720   5.051   3.617   5.536 -0.5771  0.0327  0.0565
  123MOL   C11746721   5.009   3.750   5.598  0.1971 -0.6341 -0.1002
  123MOL   O11846722   5.095   3.782   5.712 -0.0797 -0.9414 -0.2170
  123MOL   C11946723   5.064   3.718   5.832  0.3887  0.7995 -0.1090
  123MOL   C12046724   5.142   3.784   5.947  0.2618 -0.1558 -0.1984
  123MOL   C12146725   5.089   3.920   5.993 -0.2512 -0.7674 -0.6813
  123MOL   C12246726   5.180   3.986   6.102  0.3713  0.8577 -0.1876
  123MOL   H12346727   5.044   3.541   5.614  1.7029 -2.1820 -1.7961
  123MOL   H12446728   5.158   3.619   5.514 -0.4711 -1.2791  0.4209
  123MOL   H12546729   4.905   3.736   5.629  0.3431 -0.5434  0.4338
  123MOL   H12646730   5.082   3.610   5.824 -2.2262  0.2389  1.0280
  123MOL   H12746731   4.957   3.719   5.852  0.1462 -0.2080 -1.2504
  123MOL   H12846732   5.241   3.817   5.914  1.2653 -0.9599  1.9026
  123MOL   H12946733   5.152   3.708   6.025  1.4189  1.5743  1.3894
  123MOL   H13046734   5.085   3.980   5.903  0.1420 -0.4593 -0.4904
  123MOL   H13146735   4.984   3.913   6.024 -0.0955 -0.8822 -0.1718
  123MOL   H13246736   5.284   3.999   6.069  1.1420  1.6309  2.4544
  123MOL   H13346737   5.184   3.929   6.194 -1.7418  0.3982 -0.3570
  123MOL   H13446738   5.144   4.087   6.120  2.3666  1.7881 -1.1204
  123MOL   C13546739   5.028   3.876   5.503  0.2235  0.1819 -0.2803
  123MOL   C13646740   4.946   3.994   5.551  0.2396  0.2680 -0.5853
  123MOL   O13746741   5.005   4.112   5.491  0.2397  0.3660  0.2504
  123MOL   C13846742   5.029   4.226   5.573 -0.1504  0.8981 -0.7240
  123MOL   C13946743   5.114   4.326   5.500 -0.7228  0.7843 -0.2292
  123MOL   C14046744   5.250   4.268   5.435 -0.2105  0.4700 -0.0401
  123MOL   C14146745   5.336   4.370   5.356 -0.0428  0.2052  0.2981
  123MOL   H14246746   5.000   3.854   5.400 -1.1308 -2.3735  0.5680
  123MOL   H14346747   5.135   3.892   5.499 -0.2221  3.3642 -0.2856
  123MOL   H14446748   4.974   3.990   5.657 -2.4580 -0.8700  0.1221
  123MOL   H14546749   5.095   4.196   5.654 -1.3469 -0.6221 -0.2843
  123MOL   H14646750   4.938   4.270   5.615  0.2491  1.4054 -0.3876
  123MOL   H14746751   5.145   4.402   5.572 -0.6936  0.6561 -0.1074
  123MOL   H14846752   5.055   4.385   5.430  1.0637  4.0580  0.8770
  123MOL   H14946753   5.304   4.230   5.522 -1.7629  2.4322  1.8237
  123MOL   H15046754   5.234   4.184   5.367  1.4841  0.4821 -0.4799
  123MOL   H15146755   5.286   4.381   5.259 -0.1001 -0.1686  0.2852
  123MOL   H15246756   5.367   4.462   5.406 -0.2082  0.1916  0.4260
  123MOL   H15346757   5.428   4.318   5.332 -0.6941 -0.9658  0.3143
  123MOL   C15446758   4.798   3.981   5.523 -0.6677 -0.3283  0.2277
  123MOL   C15546759   4.704   4.029   5.640 -0.3552 -0.3129  0.3308
  123MOL   O15646760   4.661   3.921   5.724 -0.5716 -0.1682 -0.0739
  123MOL   C15746761   4.735   3.903   5.841  0.0441 -0.9188 -0.6875
  123MOL   C15846762   4.681   3.774   5.911  0.1234  0.3745 -0.1692
  123MOL   C15946763   4.644   3.667   5.811 -0.5367 -0.3060  1.0178
  123MOL   C16046764   4.615   3.525   5.861 -0.3162  0.5391 -0.9307
  123MOL   H16146765   4.770   3.875   5.516 -0.5764 -0.3136 -0.3676
  123MOL   H16246766   4.782   4.018   5.422 -0.2982  0.8282  0.5891
  123MOL   H16346767   4.762   4.105   5.693  0.2202 -0.0241 -0.6946
  123MOL   H16446768   4.842   3.887   5.828  0.1717 -0.2133 -0.5614
  123MOL   H16546769   4.715   3.985   5.910  0.6062 -0.3538 -1.1779
  123MOL   H16646770   4.588   3.800   5.960  0.2489  1.7654 -0.6421
  123MOL   H16746771   4.763   3.733   5.970 -0.0045  1.6372  0.8901
  123MOL   H16846772   4.559   3.693   5.747 -0.1949 -0.5251  0.4693
  123MOL   H16946773   4.721   3.647   5.736 -0.4347 -0.1241  1.0761
  123MOL   H17046774   4.573   3.459   5.785  1.4344  0.5092 -1.8803
  123MOL   H17146775   4.710   3.486   5.897  0.5328  1.5126 -2.0985
  123MOL   H17246776   4.548   3.524   5.948  0.6515  0.9968 -0.1694
  123MOL   C17346777   4.580   4.103   5.590 -0.4137  0.0829 -0.0576
  123MOL   C17446778   4.601   4.231   5.508  0.1584 -0.5464 -0.0320
  123MOL   O17546779   4.666   4.210   5.386 -0.1713  0.0011 -0.1211
  123MOL   C17646780   4.763   4.300   5.336 -0.7268 -0.0366  0.3759
  123MOL   C17746781   4.843   4.222   5.234  0.2198  0.5418 -0.5178
  123MOL   C17846782   4.952   4.300   5.151  0.2104  0.1083 -0.5355
  123MOL   C17946783   4.985   4.212   5.029  0.0443  0.1062 -0.1746
  123MOL   H18046784   4.521   4.127   5.679  1.1877  0.2011  0.9967
  123MOL   H18146785   4.523   4.039   5.523 -1.2914  0.0235  0.7325
  123MOL   H18246786   4.650   4.312   5.562 -0.5112 -1.8902  2.6295
  123MOL   H18346787   4.828   4.330   5.418 -0.7442  0.9326  0.0482
  123MOL   H18446788   4.714   4.388   5.293 -1.9132 -0.8456  0.0503
  123MOL   H18546789   4.778   4.174   5.161  2.1194 -2.2741 -0.4195
  123MOL   H18646790   4.897   4.140   5.279 -2.2220 -0.0132  1.5259
  123MOL   H18746791   4.933   4.406   5.132  2.1626  0.7540  0.9766
  123MOL   H18846792   5.045   4.307   5.208  0.3257  0.7024 -0.7905
  123MOL   H18946793   4.901   4.160   4.982 -0.9075  1.7798 -0.3739
  123MOL   H19046794   5.025   4.279   4.952  0.7402 -0.1022  0.0031
  123MOL   H19146795   5.053   4.135   5.064  0.1731  0.1048 -0.4246
  123MOL   C19246796   4.467   4.305   5.460  0.0236 -0.5725  0.3164
  123MOL   C19346797   4.393   4.387   5.567 -0.2544  0.7596  0.3685
  123MOL   O19446798   4.347   4.517   5.526  0.7867  0.1397 -0.2197
  123MOL   C19546799   4.444   4.610   5.504 -0.2710  0.5916 -0.1330
  123MOL   C19646800   4.398   4.729   5.424 -0.3213  0.3685 -0.3879
  123MOL   C19746801   4.290   4.815   5.483 -0.8110 -0.2705 -0.0454
  123MOL   C19846802   4.288   4.961   5.428 -0.7938 -0.4451  0.4169
  123MOL   H19946803   4.408   4.224   5.417 -1.1269  1.0319 -1.1990
  123MOL   H20046804   4.477   4.370   5.373  0.8798  2.3153  2.4979
  123MOL   H20146805   4.464   4.409   5.647 -0.7193  0.0605  0.9760
  123MOL   H20246806   4.530   4.567   5.452 -1.3592 -1.3307 -0.3841
  123MOL   H20346807   4.483   4.641   5.601  2.7415 -2.4064 -0.2992
  123MOL   H20446808   4.493   4.781   5.410  1.7932 -3.4248 -0.5266
  123MOL   H20546809   4.354   4.702   5.328 -3.8445  1.5315  0.8168
  123MOL   H20646810   4.309   4.816   5.591 -1.3630 -3.0190  0.1057
  123MOL   H20746811   4.194   4.766   5.464  0.0481 -2.1655  0.3487
  123MOL   H20846812   4.216   5.027   5.476  0.1549 -0.0103  1.2789
  123MOL   H20946813   4.383   5.014   5.432 -0.4971 -0.9145 -0.4342
  123MOL   H21046814   4.267   4.971   5.322 -2.0240  0.9796  0.7849
  123MOL   C21146815   4.274   4.302   5.627  0.3543 -0.4417 -0.2802
  123MOL   C21246816   4.215   4.355   5.759  0.5835  0.1153  0.8783
  123MOL   O21346817   4.098   4.286   5.806 -0.2182 -0.4818  0.3530
  123MOL   C21446818   4.001   4.233   5.717  0.4293 -0.2689 -0.1669
  123MOL   C21546819   3.896   4.178   5.811 -0.1405  0.4949  0.0414
  123MOL   C21646820   3.791   4.268   5.885 -0.3489 -0.4710  0.4784
  123MOL   C21746821   3.692   4.184   5.963  0.0839  0.3265  0.0988
  123MOL   H21846822   4.306   4.199   5.643  0.3443 -0.7192 -1.9733
  123MOL   H21946823   4.193   4.288   5.556 -0.5561  1.1234  0.4373
  123MOL   H22046824   4.185   4.457   5.739 -1.7937 -1.1280 -2.3621
  123MOL   H22146825   3.962   4.310   5.651  1.6246 -0.6419 -1.3296
  123MOL   H22246826   4.043   4.156   5.652 -0.3905  0.9695 -2.2011
  123MOL   H22346827   3.848   4.109   5.742 -1.5155  1.6846 -0.2245
  123MOL   H22446828   3.952   4.112   5.876 -0.6637 -1.1222 -1.1314
  123MOL   H22546829   3.746   4.326   5.804  2.6169 -0.6542 -1.3557
  123MOL   H22646830   3.834   4.340   5.954  0.2690  0.6492 -1.0410
  123MOL   H22746831   3.618   4.245   6.016  0.1469  0.2438  0.2819
  123MOL   H22846832   3.739   4.122   6.039 -1.6807  0.4122  1.2956
  123MOL   H22946833   3.633   4.114   5.904 -0.5967 -2.0907  3.5083
  123MOL   C23046834   4.319   4.346   5.880  0.5541 -0.2009 -0.2833
  123MOL   C23146835   4.282   4.410   6.014 -0.3917 -0.7320 -0.1123
  123MOL   O23246836   4.262   4.555   6.013 -0.2631  0.0459  0.4504
  123MOL   C23346837   4.352   4.638   5.950  0.4535  0.1174 -1.0769
  123MOL   C23446838   4.333   4.784   6.008 -0.2284 -0.5080 -0.0390
  123MOL   C23546839   4.381   4.899   5.919  0.1623 -0.7245  0.1803
  123MOL   C23646840   4.383   5.031   5.991 -0.0930 -0.6075  0.3544
  123MOL   H23746841   4.412   4.396   5.853  0.1775  0.6499 -0.0152
  123MOL   H23846842   4.355   4.243   5.885 -0.1761 -0.4574 -0.2860
  123MOL   H23946843   4.377   4.399   6.066  0.6082 -1.2139 -1.9955
  123MOL   H24046844   4.455   4.604   5.955  0.6358  0.8836  0.8644
  123MOL   H24146845   4.315   4.645   5.847 -0.1319  0.2275 -0.8636
  123MOL   H24246846   4.231   4.807   6.041  0.3821 -0.1805  1.6304
  123MOL   H24346847   4.379   4.785   6.106 -0.2305 -2.5593 -0.0061
  123MOL   H24446848   4.326   4.909   5.825  0.9891  1.4198 -0.1135
  123MOL   H24546849   4.487   4.886   5.897  0.9085  3.0858  1.1427
  123MOL   H24646850   4.405   5.107   5.916  2.2454 -0.5625  1.0398
  123MOL   H24746851   4.454   5.047   6.072 -1.1994 -0.0125  1.2246
  123MOL   H24846852   4.279   5.035   6.025 -0.9673 -1.1609 -2.1253
  123MOL   C24946853   4.179   4.338   6.097 -0.0451 -1.1272 -0.0461
  123MOL   C25046854   4.195   4.187   6.115  0.4489 -0.0908 -0.4435
  123MOL   O25146855   4.116   4.145   6.229  0.4079 -0.3744  0.5810
  123MOL   C25246856   3.982   4.123   6.208  0.3744  0.7667 -0.1557
  123MOL   C25346857   3.903   4.148   6.338  0.2329  0.0858  0.1217
  123MOL   C25446858   3.910   4.299   6.369  0.1341  0.2170  0.2907
  123MOL   C25546859   3.815   4.340   6.473  0.3702 -0.2210  0.2335
  123MOL   H25646860   4.077   4.358   6.064 -0.4256  1.4750  2.4836
  123MOL   H25746861   4.174   4.386   6.194  0.5779  1.7322 -1.3784
  123MOL   H25846862   4.154   4.129   6.032 -2.3012  0.5954  0.3661
  123MOL   H25946863   3.955   4.022   6.178  0.5112  1.2148 -1.8204
  123MOL   H26046864   3.937   4.193   6.138 -2.4949 -2.3047 -1.5223
  123MOL   H26146865   3.799   4.122   6.320  0.7060 -0.9643 -1.2183
  123MOL   H26246866   3.945   4.100   6.427  0.2030 -0.5104 -0.1791
  123MOL   H26346867   4.011   4.335   6.388 -0.2689 -0.4179  4.0061
  123MOL   H26446868   3.897   4.348   6.272  1.4559 -1.4711 -0.7799
  123MOL   H26546869   3.843   4.292   6.567 -1.0913  0.7629  1.1937
  123MOL   H26646870   3.713   4.312   6.448  0.9358 -3.1920  1.0377
  123MOL   H26746871   3.815   4.447   6.492 -1.4489 -0.2470  0.4608
  123MOL   C26846872   4.340   4.153   6.143 -0.1948 -0.0140  0.0340
  123MOL   C26946873   4.358   4.003   6.152  0.7119  0.6741  0.6338
  123MOL   O27046874   4.351   3.952   6.019  0.4048 -0.5957 -0.0746
  123MOL   C27146875   4.285   3.836   6.007  0.1923  0.3335  0.4920
  123MOL   C27246876   4.272   3.798   5.860  0.1759 -0.1215 -0.0208
  123MOL   C27346877   4.194   3.904   5.776 -0.1730  0.2534  0.5555
  123MOL   C27446878   4.207   3.877   5.632  0.0887 -0.0916 -0.2019
  123MOL   H27546879   4.412   4.189   6.070 -1.3734  3.9442  0.6729
  123MOL   H27646880   4.351   4.205   6.238 -0.6571 -2.2135  1.3185
  123MOL   H27746881   4.280   3.965   6.218 -1.0901  1.0984 -1.1704
  123MOL   H27846882   4.329   3.756   6.066  0.0980 -1.6973 -2.0845
  123MOL   H27946883   4.183   3.851   6.044 -0.1802 -0.4992 -0.2026
  123MOL   H28046884   4.368   3.773   5.815  0.7938  2.6790 -0.3527
  123MOL   H28146885   4.211   3.708   5.859 -0.7943  0.5285  0.3136
  123MOL   H28246886   4.245   4.000   5.780 -0.0748  0.1710  1.5782
  123MOL   H28346887   4.093   3.932   5.809 -0.7080 -0.2212 -0.6704
  123MOL   H28446888   4.311   3.851   5.611  0.0866  1.1732 -1.8443
  123MOL   H28546889   4.168   3.957   5.569  0.4908 -0.4663 -0.9373
  123MOL   H28646890   4.148   3.791   5.598 -3.0971  1.9972 -0.1376
  123MOL   C28746891   4.484   3.955   6.197  0.0371  1.0972 -0.3182
  123MOL   C28846892   4.499   3.935   6.349 -0.1319 -0.0641  0.0415
  123MOL   O28946893   4.462   4.056   6.412 -0.3842 -0.1136 -0.0304
  123MOL   C29046894   4.347   4.046   6.491  0.3503 -0.2234 -0.1347
  123MOL   C29146895   4.318   4.187   6.550  0.0774 -0.3114  0.1513
  123MOL   C29246896   4.399   4.208   6.681  0.1455 -0.5336  0.7202
  123MOL   C29346897   4.387   4.349   6.729  0.2636  0.0926  0.0923
  123MOL   H29446898   4.564   4.023   6.167  1.8342  0.0114  1.8710
  123MOL   H29546899   4.522   3.865   6.149 -0.5282  0.2373  0.8408
  123MOL   H29646900   4.434   3.855   6.384 -0.7880  0.3283 -0.2577
  123MOL   H29746901   4.263   4.036   6.421 -1.2372 -1.0814  1.8400
  123MOL   H29846902   4.344   3.968   6.567 -2.8150  0.0006  0.0278
  123MOL   H29946903   4.214   4.190   6.580  0.3512 -3.3983  1.6497
  123MOL   H30046904   4.332   4.269   6.481 -0.2259 -0.5482 -0.1909
  123MOL   H30146905   4.505   4.194   6.662 -0.4042 -1.2075 -2.0045
  123MOL   H30246906   4.361   4.142   6.759 -0.5385 -0.1979  0.6820
  123MOL   H30346907   4.283   4.376   6.746 -0.1932 -0.3317 -1.8658
  123MOL   H30446908   4.434   4.362   6.826  1.0045 -0.2115 -0.2234
  123MOL   H30546909   4.438   4.413   6.657 -0.3458 -0.5327 -0.9153
  123MOL   C30646910   4.634   3.888   6.402 -0.4649 -0.3923 -0.1365
  123MOL   C30746911   4.680   3.742   6.364 -0.0624  0.6344 -0.4769
  123MOL   O30846912   4.594   3.639   6.424 -0.0621  0.0942 -0.3655
  123MOL   C30946913   4.498   3.586   6.332 -0.4310 -0.1841 -0.1764
  123MOL   C31046914   4.408   3.490   6.409 -0.2922  0.2723 -0.9265
  123MOL   C31146915   4.321   3.570   6.503 -0.4123 -0.3901  0.3336
  123MOL   C31246916   4.222   3.492   6.590 -0.0080 -0.1566  0.4815
  123MOL   H31346917   4.714   3.958   6.375  0.8805 -1.4550  1.0239
  123MOL   H31446918   4.629   3.896   6.510  2.1015  1.4516 -0.1094
  123MOL   H31546919   4.676   3.741   6.255  1.7222  3.2164 -0.5942
  123MOL   H31646920   4.547   3.528   6.254 -1.2406  1.3881 -1.8974
  123MOL   H31746921   4.436   3.655   6.275  0.4665  0.2150 -0.6723
  123MOL   H31846922   4.463   3.419   6.471  0.4587  0.2831 -1.5670
  123MOL   H31946923   4.330   3.438   6.354 -0.2518  1.4909 -2.1648
  123MOL   H32046924   4.378   3.636   6.569  0.1196 -0.5905  0.0771
  123MOL   H32146925   4.274   3.653   6.449  2.5744  0.0771 -1.6511
  123MOL   H32246926   4.185   3.398   6.548 -0.8917  0.1212  0.6317
  123MOL   H32346927   4.136   3.558   6.602  2.7549  3.4671  1.1340
  123MOL   H32446928   4.261   3.468   6.689  3.6870  1.5548 -0.5019
  123MOL   C32546929   4.832   3.702   6.392 -0.2896 -0.2333  0.3917
  123MOL   C32646930   4.867   3.563   6.341  0.4257 -0.3791 -0.2422
  123MOL   O32746931   4.882   3.573   6.201 -0.4689  0.8524 -0.0954
  123MOL   C32846932   4.888   3.438   6.141  0.0891  0.3109 -0.2117
  123MOL   C32946933   5.009   3.437   6.036 -0.0380 -0.1534 -0.0650
  123MOL   C33046934   5.054   3.305   5.977 -1.1452 -0.0547 -0.2634
  123MOL   C33146935   5.130   3.208   6.074  0.3967 -0.0788  0.3657
  123MOL   H33246936   4.860   3.719   6.496 -0.3020 -0.1635  0.3839
  123MOL   H33346937   4.892   3.772   6.335 -0.8636 -1.8046 -2.1966
  123MOL   H33446938   4.778   3.500   6.348 -0.8138  1.3923  0.3704
  123MOL   H33546939   4.793   3.434   6.088 -0.1689  4.1952 -0.2050
  123MOL   H33646940   4.895   3.355   6.210 -1.4011  0.4500  0.1204
  123MOL   H33746941   4.981   3.493   5.946  1.8541 -1.0267 -1.2385
  123MOL   H33846942   5.100   3.488   6.066 -0.9991 -0.0880  2.8668
  123MOL   H33946943   5.104   3.326   5.882 -0.1018  1.5508  0.6331
  123MOL   H34046944   4.981   3.239   5.931 -2.2383 -0.2086  1.6403
  123MOL   H34146945   5.077   3.183   6.166  2.5462 -0.5603  1.5217
  123MOL   H34246946   5.228   3.252   6.095 -0.4400  0.4083  3.4585
  123MOL   H34346947   5.142   3.110   6.028 -3.1022 -0.3564 -0.0170
  123MOL   C34446948   4.987   3.489   6.417  0.0504  0.1107 -0.7844
  123MOL   C34546949   4.934   3.354   6.472 -0.3087 -0.1592  0.1262
  123MOL   O34646950   4.898   3.369   6.607  0.2359 -0.4381  0.1365
  123MOL   C34746951   4.760   3.392   6.627  0.6412  0.1421 -0.9478
  123MOL   C34846952   4.746   3.412   6.777  0.2899  0.4377 -0.2994
  123MOL   C34946953   4.602   3.394   6.825 -0.6495 -0.3750  0.1076
  123MOL   C35046954   4.580   3.438   6.967  0.2174  0.1711 -1.2045
  123MOL   H35146955   5.069   3.477   6.347 -0.4700 -1.6792 -1.1157
  123MOL   H35246956   5.032   3.542   6.501 -2.7569 -1.4036  1.8001
  123MOL   H35346957   4.850   3.319   6.412 -0.0450  0.0963 -0.4019
  123MOL   H35446958   4.692   3.314   6.593  0.4371 -0.6349  1.1746
  123MOL   H35546959   4.725   3.487   6.587  3.6197  1.1613 -1.3137
  123MOL   H35646960   4.784   3.512   6.792  1.5501  0.1473 -1.4695
  123MOL   H35746961   4.810   3.342   6.831 -0.9510 -0.4713  0.0211
  123MOL   H35846962   4.536   3.440   6.751 -3.7440 -0.5600  2.6521
  123MOL   H35946963   4.581   3.288   6.814  1.1690 -0.6527 -0.7685
  123MOL   H36046964   4.600   3.543   6.988 -0.4082 -0.3246  2.0246
  123MOL   H36146965   4.654   3.391   7.031 -1.4179 -0.6769  0.0961
  123MOL   H36246966   4.483   3.423   7.014  1.8678 -0.0904  2.2274
  123MOL   C36346967   5.047   3.251   6.473 -0.0312  0.3988  0.9982
  123MOL   C36446968   4.983   3.106   6.485  0.4868  0.7068 -0.0685
  123MOL   O36546969   5.068   3.007   6.434  0.1962  0.5594  0.6370
  123MOL   C36646970   5.184   2.975   6.514 -0.1410 -0.2236 -0.0771
  123MOL   C36746971   5.284   2.900   6.421 -0.7392  0.1573  0.2223
  123MOL   C36846972   5.401   2.849   6.495 -0.1756  0.3329  0.9317
  123MOL   C36946973   5.476   2.735   6.411  0.4371  0.0126  0.0483
  123MOL   H37046974   5.120   3.268   6.552  0.2564  2.0881  0.3912
  123MOL   H37146975   5.112   3.256   6.386  1.0661  3.8735  1.9383
  123MOL   H37246976   4.895   3.110   6.421  0.1533  1.4271  0.4205
  123MOL   H37346977   5.158   2.932   6.611  0.2399 -0.2136  0.0294
  123MOL   H37446978   5.236   3.069   6.531 -0.6958  0.2701 -1.0709
  123MOL   H37546979   5.317   2.972   6.346  0.0002  0.4457  0.8171
  123MOL   H37646980   5.238   2.806   6.389  0.6852 -0.7427  0.7753
  123MOL   H37746981   5.386   2.817   6.598 -2.1888 -0.1596  0.4991
  123MOL   H37846982   5.477   2.924   6.515 -1.4052  1.7663  0.2800
  123MOL   H37946983   5.584   2.736   6.423  0.5633 -2.2019 -0.6093
  123MOL   H38046984   5.436   2.637   6.435  1.5417 -0.5305 -0.2696
  123MOL   H38146985   5.455   2.750   6.305  2.3986  2.6663 -0.0110
  123MOL   H38246986   4.953   3.065   6.581 -1.0616 -1.8409 -1.5909
  124MOL     C146987   6.115   0.389   2.588  0.1981 -0.0874 -0.2307
  124MOL     C246988   6.019   0.270   2.589 -0.4112 -0.3793  0.1153
  124MOL     O346989   5.885   0.319   2.560 -0.0351  0.2944 -0.2033
  124MOL     C446990   5.833   0.406   2.656  0.5159 -0.0709 -0.0102
  124MOL     C546991   5.707   0.464   2.599  0.0394 -0.9867  0.0891
  124MOL     C646992   5.595   0.365   2.587  0.3697 -0.2095 -0.1948
  124MOL     C746993   5.469   0.414   2.519  0.7321  0.2835 -0.4086
  124MOL     H846994   6.107   0.437   2.685  1.4616  0.3337 -0.3182
  124MOL     H946995   6.222   0.364   2.586  0.2717 -0.6010  4.6230
  124MOL    H1046996   6.031   0.229   2.690 -2.4346 -1.8607 -0.2206
  124MOL    H1146997   5.810   0.354   2.749  2.1218  0.6768  0.8235
  124MOL    H1246998   5.903   0.488   2.673  0.9358 -0.0853 -1.5574
  124MOL    H1346999   5.726   0.517   2.506 -0.8912  0.1534  0.5362
  124MOL    H1447000   5.693   0.544   2.672 -0.7136 -0.7975 -0.2559
  124MOL    H1547001   5.580   0.318   2.685  0.6800  0.6513  0.2734
  124MOL    H1647002   5.641   0.294   2.518 -0.9682  0.7711 -2.1335
  124MOL    H1747003   5.491   0.471   2.429 -2.8626  0.6670 -1.1199
  124MOL    H1847004   5.413   0.490   2.574  0.2062 -1.3952  1.4469
  124MOL    H1947005   5.399   0.336   2.488  1.2357  0.1636 -1.2459
  124MOL    H2047006   6.099   0.454   2.501  1.8410 -2.2360 -2.2097
  124MOL    C2147007   6.054   0.159   2.487 -0.3328 -0.1578 -0.0348
  124MOL    C2247008   5.960   0.032   2.487  0.4171  0.3838 -0.1266
  124MOL    O2347009   6.004   7.741   2.387 -0.0039 -0.4653  0.3270
  124MOL    C2447010   5.918   7.716   2.275 -0.3846  0.2232 -0.5411
  124MOL    C2547011   5.992   7.626   2.160 -0.1501 -0.3700  0.1125
  124MOL    C2647012   6.005   7.480   2.201  0.5890  0.8511  0.0092
  124MOL    C2747013   6.033   7.390   2.081 -0.6204  0.3265 -0.0035
  124MOL    H2847014   6.152   0.120   2.516 -0.1875  0.8124  0.8050
  124MOL    H2947015   6.066   0.196   2.385 -0.5169  0.1218  0.0451
  124MOL    H3047016   5.859   0.067   2.470  0.1810  0.4328  1.2708
  124MOL    H3147017   5.885   0.005   2.224 -3.2256  0.5204  1.7228
  124MOL    H3247018   5.823   7.672   2.303  0.2250  0.6840  2.4173
  124MOL    H3347019   5.938   7.626   2.065  0.9322 -1.1157 -0.5002
  124MOL    H3447020   6.089   7.665   2.130 -1.5388  1.2735 -2.4612
  124MOL    H3547021   6.083   7.459   2.274  0.3305  0.6575  0.2305
  124MOL    H3647022   5.916   7.456   2.259  0.2830  0.3178 -0.6795
  124MOL    H3747023   6.064   7.288   2.103 -2.5944  0.1139  1.9336
  124MOL    H3847024   5.944   7.380   2.018 -0.2527 -1.1924 -0.3125
  124MOL    H3947025   6.107   7.432   2.013 -1.0072 -0.3340 -0.8497
  124MOL    C4047026   5.970   7.758   2.616  0.1527  0.8405  0.6364
  124MOL    C4147027   5.860   7.665   2.639  0.4755  0.0022  0.0730
  124MOL    O4247028   5.744   7.741   2.654 -0.0477  0.2913 -0.4153
  124MOL    C4347029   5.620   7.676   2.640 -0.5824 -0.4808 -0.2904
  124MOL    C4447030   5.584   7.637   2.494  0.0626  0.7484 -0.1347
  124MOL    C4547031   5.560   7.756   2.398  0.2582  0.7259  0.0683
  124MOL    C4647032   5.494   7.701   2.270  0.9287  0.7642  0.0782
  124MOL    H4747033   5.969   0.030   2.697 -0.2422  1.0755  0.4208
  124MOL    H4847034   6.066   7.709   2.631 -0.5238 -0.2784  1.3291
  124MOL    H4947035   5.852   7.601   2.551 -0.5102  0.8764 -0.4730
  124MOL    H5047036   5.541   7.743   2.674  0.1242 -0.0059  0.4343
  124MOL    H5147037   5.614   7.595   2.713  3.6503 -0.2409  0.4176
  124MOL    H5247038   5.488   7.586   2.503  1.3586 -2.2147 -2.2690
  124MOL    H5347039   5.660   7.569   2.455  0.3069  2.0392 -1.9947
  124MOL    H5447040   5.656   7.799   2.369  1.0548  0.2442  1.8707
  124MOL    H5547041   5.507   0.036   2.448 -1.1266 -0.4097  0.4698
  124MOL    H5647042   5.389   7.676   2.284  0.8513 -0.6970 -2.7478
  124MOL    H5747043   5.485   7.783   2.199 -2.5436 -0.7998 -1.3787
  124MOL    H5847044   5.539   7.611   2.226  2.5004 -0.5266  4.0813
  124MOL    C5947045   5.881   7.584   2.772  0.6204 -0.6555 -0.2275
  124MOL    C6047046   5.956   7.451   2.750  0.1630 -0.0323  0.4735
  124MOL    O6147047   5.862   7.356   2.689 -0.0252 -0.4798 -0.3725
  124MOL    C6247048   5.792   7.281   2.788 -0.6348  0.4993 -0.2902
  124MOL    C6347049   5.674   7.201   2.733 -0.1298 -0.6331  0.3813
  124MOL    C6447050   5.597   7.272   2.613 -0.2434 -0.2057  1.0260
  124MOL    C6547051   5.451   7.228   2.605  0.2927  0.2054 -0.4954
  124MOL    H6647052   5.941   7.651   2.833  2.3770 -0.4135 -2.1680
  124MOL    H6747053   5.786   7.567   2.823  1.3655 -0.7750  1.1404
  124MOL    H6847054   5.994   7.413   2.844  0.5902  1.3446  0.8763
  124MOL    H6947055   5.760   7.334   2.878 -4.1072  0.0957 -1.2060
  124MOL    H7047056   5.862   7.216   2.840 -1.0050  0.2413 -0.1198
  124MOL    H7147057   5.702   7.100   2.702 -1.9683 -0.8836 -0.5923
  124MOL    H7247058   5.604   7.185   2.815 -0.8627  0.9797  0.0969
  124MOL    H7347059   5.598   7.378   2.639  1.0191  0.0365 -0.0255
  124MOL    H7447060   5.651   7.264   2.519  2.5673 -1.0474  2.6780
  124MOL    H7547061   5.390   7.247   2.693  1.1350 -1.7208  0.5302
  124MOL    H7647062   5.402   7.288   2.528 -0.2433  1.3761  0.7222
  124MOL    H7747063   5.439   7.123   2.580  1.2097 -0.5550  2.1243
  124MOL    C7847064   6.079   7.462   2.661 -0.1489  0.3018 -0.0370
  124MOL    C7947065   6.172   7.332   2.664 -0.0222 -0.1251 -0.5101
  124MOL    O8047066   6.304   7.343   2.606 -0.0531  0.0273  0.0276
  124MOL    C8147067   6.403   7.384   2.695 -0.7977 -0.5101  0.1395
  124MOL    C8247068   6.535   7.401   2.617  0.4656  0.5360  0.2629
  124MOL    C8347069   6.598   7.265   2.595 -0.0913  0.2837  0.4612
  124MOL    C8447070   6.546   7.163   2.499 -1.1881  0.0358  1.0429
  124MOL    H8547071   6.142   7.535   2.712 -1.3405  1.2596  0.0702
  124MOL    H8647072   6.054   7.499   2.561 -0.8739 -2.2989 -0.8441
  124MOL    H8747073   6.173   7.284   2.762 -0.2621  0.7248 -0.0859
  124MOL    H8847074   6.413   7.314   2.778  0.2456  1.2094  1.4959
  124MOL    H8947075   6.377   7.480   2.739 -1.5398  0.4297 -2.2798
  124MOL    H9047076   6.516   7.444   2.519  0.4940 -1.0815 -0.4733
  124MOL    H9147077   6.614   7.465   2.655  0.9623 -0.0613  0.2431
  124MOL    H9247078   6.604   7.221   2.695 -0.9800 -0.7116  0.0901
  124MOL    H9347079   6.695   7.300   2.561 -1.1426  2.2749 -0.6194
  124MOL    H9447080   6.620   7.092   2.461 -0.5039  1.3652 -0.1413
  124MOL    H9547081   6.463   7.098   2.528 -0.0002 -2.5077 -1.0662
  124MOL    H9647082   6.518   7.222   2.412 -3.7191 -0.7401  1.2725
  124MOL    C9747083   6.112   7.222   2.574 -0.5401 -1.1555  0.2976
  124MOL    C9847084   6.153   7.080   2.613 -0.1793  0.1955 -0.5633
  124MOL    O9947085   6.112   7.054   2.751  0.1635  0.3391  0.3537
  124MOL   C10047086   6.227   7.008   2.825  0.3026 -0.3161  0.2826
  124MOL   C10147087   6.201   6.946   2.963 -0.7637  0.0410  0.1100
  124MOL   C10247088   6.102   6.831   2.950  0.6374 -0.1990  0.0123
  124MOL   C10347089   6.106   6.738   3.076  0.4536 -0.4104  1.1613
  124MOL   H10447090   6.152   7.244   2.475 -1.8826  1.0734  0.2183
  124MOL   H10547091   6.004   7.227   2.560 -0.5977  0.5664  1.1736
  124MOL   H10647092   6.261   7.073   2.599  0.2554  0.6320  2.3862
  124MOL   H10747093   6.289   7.097   2.835  1.2156 -1.0084  0.9009
  124MOL   H10847094   6.287   6.945   2.759  1.3426  2.7353 -1.7842
  124MOL   H10947095   6.147   7.024   3.018 -3.0025 -0.9315 -0.6515
  124MOL   H11047096   6.297   6.906   2.995  0.4413  2.2385 -0.5833
  124MOL   H11147097   6.110   6.769   2.861 -0.4359  1.9521 -1.6300
  124MOL   H11247098   6.000   6.866   2.941 -0.1922 -1.9299  2.2134
  124MOL   H11347099   6.095   6.783   3.174 -3.3376  1.7714 -0.1651
  124MOL   H11447100   6.035   6.656   3.066 -0.5708  0.6588 -0.6466
  124MOL   H11547101   6.204   6.691   3.076  0.2619 -0.9026 -1.3075
  124MOL   C11647102   6.095   6.962   2.532  0.0968  0.1955  0.4394
  124MOL   C11747103   6.172   6.931   2.406  0.0221  0.2910 -0.0683
  124MOL   O11847104   6.144   6.798   2.363  0.2077 -0.1206  0.2954
  124MOL   C11947105   6.197   6.694   2.440 -0.4043  0.2348  0.1791
  124MOL   C12047106   6.172   6.560   2.368 -0.2399  0.2371 -0.0940
  124MOL   C12147107   6.217   6.554   2.223 -0.3649 -0.3711 -0.3455
  124MOL   C12247108   6.193   6.423   2.153  0.4976 -0.5289 -0.2382
  124MOL   H12347109   6.089   6.883   2.606 -1.6940  0.3823  0.5199
  124MOL   H12447110   5.991   6.975   2.500  0.1261  1.0340  0.6694
  124MOL   H12547111   6.281   6.936   2.401  0.1491 -1.4168  0.7047
  124MOL   H12647112   6.132   6.684   2.527  0.4317 -0.4647  0.7291
  124MOL   H12747113   6.299   6.711   2.474  0.2892 -3.7509  0.3154
  124MOL   H12847114   6.065   6.553   2.351 -0.4430  0.5808  0.9816
  124MOL   H12947115   6.215   6.477   2.425 -0.8885  0.1145  0.2204
  124MOL   H13047116   6.206   6.642   2.159  0.6579 -0.6941 -0.9824
  124MOL   H13147117   6.324   6.564   2.245 -0.7764 -1.4085  2.3966
  124MOL   H13247118   6.234   6.346   2.218  2.9931  0.4058 -0.6739
  124MOL   H13347119   6.252   6.428   2.062 -1.3471  3.4100 -1.2904
  124MOL   H13447120   6.089   6.415   2.121  0.6525  0.2381 -0.9409
  124MOL   C13547121   6.127   7.007   2.282 -0.5031  0.0745  0.4715
  124MOL   C13647122   6.211   6.980   2.154  0.3374 -0.4668 -0.3962
  124MOL   O13747123   6.132   7.006   2.043 -0.3151  0.2706  0.0329
  124MOL   C13847124   6.046   6.902   1.994 -0.4483  0.2104 -0.0845
  124MOL   C13947125   5.961   6.945   1.877  0.2498 -0.6511 -0.6688
  124MOL   C14047126   5.892   7.077   1.885 -0.4812 -0.4735  0.1911
  124MOL   C14147127   5.808   7.111   1.760  0.1592  0.0141 -0.4822
  124MOL   H14247128   6.113   7.114   2.294  0.7774  0.3276 -0.2633
  124MOL   H14347129   6.027   6.968   2.261  0.6136 -2.5382 -0.1561
  124MOL   H14447130   6.240   6.876   2.140 -1.1450 -1.0433  0.7042
  124MOL   H14547131   5.982   6.878   2.079 -0.6725  1.8054  0.2251
  124MOL   H14647132   6.110   6.826   1.950  0.7250 -0.3922  2.6041
  124MOL   H14747133   5.872   6.884   1.859  0.1709 -0.2342 -1.7123
  124MOL   H14847134   6.022   6.938   1.787  1.5194 -0.1849  0.1529
  124MOL   H14947135   5.817   7.074   1.963 -2.2431  1.2824 -1.3927
  124MOL   H15047136   5.972   7.149   1.901 -1.9214  1.4370 -0.9676
  124MOL   H15147137   5.861   7.130   1.667 -1.6905  0.2785 -1.5230
  124MOL   H15247138   5.723   7.043   1.750 -0.4984  0.9460 -1.3362
  124MOL   H15347139   5.751   7.200   1.788  2.4412  1.5252 -0.5799
  124MOL   C15447140   6.343   7.058   2.160 -0.1042 -0.1470  0.5285
  124MOL   C15547141   6.434   7.033   2.043  0.0178  0.1008  0.3275
  124MOL   O15647142   6.564   7.080   2.087 -0.0323 -0.0342 -0.4154
  124MOL   C15747143   6.654   6.982   2.118 -0.2302  0.5950 -0.0868
  124MOL   C15847144   6.780   7.052   2.161 -0.0423 -0.3274  0.2030
  124MOL   C15947145   6.884   6.961   2.225 -0.3078  0.1114 -0.4500
  124MOL   C16047146   7.016   7.026   2.253 -0.5231 -0.2084  0.2711
  124MOL   H16147147   6.383   7.022   2.254 -0.0839  1.4853  1.1550
  124MOL   H16247148   6.304   7.158   2.174 -2.7858 -1.5131  3.4792
  124MOL   H16347149   6.440   6.926   2.025  0.9088 -0.3080  2.7939
  124MOL   H16447150   6.623   6.903   2.188  0.0376  0.7770  0.2387
  124MOL   H16547151   6.678   6.922   2.031 -1.0376 -1.2408  0.9179
  124MOL   H16647152   6.754   7.131   2.232  0.2776 -0.4177  0.4206
  124MOL   H16747153   6.826   7.106   2.079  0.8400  0.0964  0.9712
  124MOL   H16847154   6.848   6.927   2.322 -3.8336 -0.8332 -1.9960
  124MOL   H16947155   6.900   6.865   2.175 -2.0464 -0.9060  0.8933
  124MOL   H17047156   6.993   7.118   2.307 -2.2100 -0.3697 -0.1407
  124MOL   H17147157   7.089   6.964   2.306  0.8185  0.4134 -0.8181
  124MOL   H17247158   7.066   7.056   2.161  0.0646  0.1351  0.6981
  124MOL   C17347159   6.393   7.110   1.926  0.5302 -0.1911  0.6015
  124MOL   C17447160   6.499   7.105   1.809 -0.4127  0.0378  0.0322
  124MOL   O17547161   6.518   6.967   1.760 -0.1656  0.4313 -0.4422
  124MOL   C17647162   6.654   6.945   1.722  0.6136 -0.1478 -0.2046
  124MOL   C17747163   6.653   6.807   1.653 -0.9935  0.1157 -0.0564
  124MOL   C17847164   6.653   6.813   1.501 -0.6718 -0.1601  0.1274
  124MOL   C17947165   6.663   6.675   1.430  0.2576 -0.3585  0.2885
  124MOL   H18047166   6.377   7.213   1.959  0.2396  0.0810 -0.3900
  124MOL   H18147167   6.298   7.080   1.882 -0.2895  2.5858  0.4248
  124MOL   H18247168   6.595   7.145   1.841 -0.8353  0.8640  0.2840
  124MOL   H18347169   6.722   6.950   1.807 -0.2335 -2.2021  0.6218
  124MOL   H18447170   6.696   7.020   1.655  1.7112  0.2985  0.9630
  124MOL   H18547171   6.581   6.735   1.690 -1.6631  0.6322 -0.3432
  124MOL   H18647172   6.746   6.761   1.687 -1.6634 -1.0195  0.2675
  124MOL   H18747173   6.567   6.869   1.467  0.8219  1.3999 -1.1651
  124MOL   H18847174   6.741   6.871   1.472 -2.0874  1.4498 -0.9751
  124MOL   H18947175   6.752   6.619   1.457  0.2800  0.4579  1.9607
  124MOL   H19047176   6.577   6.611   1.453 -0.7059  1.0278  0.6061
  124MOL   H19147177   6.655   6.679   1.321  0.6415 -0.3107  0.2620
  124MOL   C19247178   6.456   7.204   1.695  0.7419  0.5165  0.6845
  124MOL   C19347179   6.521   7.342   1.682  0.5182  0.2925  0.3974
  124MOL   O19447180   6.489   7.433   1.784  0.7660  0.2802 -0.4947
  124MOL   C19547181   6.358   7.473   1.790 -0.0966  0.2053  0.4242
  124MOL   C19647182   6.344   7.628   1.809  0.4330  0.3509  0.0605
  124MOL   C19747183   6.196   7.673   1.839  0.6166 -0.6402  0.1240
  124MOL   C19847184   6.115   7.641   1.717 -0.0732 -0.1052 -0.0911
  124MOL   H19947185   6.347   7.204   1.690  0.8438 -0.0394 -2.3836
  124MOL   H20047186   6.476   7.157   1.599  4.5197 -0.0452  1.6638
  124MOL   H20147187   6.478   7.387   1.592  0.7786 -0.8565 -0.3230
  124MOL   H20247188   6.298   7.423   1.865  2.1296  0.2326  2.2731
  124MOL   H20347189   6.310   7.455   1.694  2.8820 -1.2736 -0.8627
  124MOL   H20447190   6.404   7.643   1.898 -0.3746 -0.4570  0.7523
  124MOL   H20547191   6.398   7.689   1.736  2.0689  0.9757  1.7656
  124MOL   H20647192   6.183   7.781   1.845  1.1226 -0.6036  0.6029
  124MOL   H20747193   6.160   7.633   1.935 -0.7229  0.2298 -0.0001
  124MOL   H20847194   6.018   7.691   1.721  0.4189  0.8756 -0.0383
  124MOL   H20947195   6.161   7.669   1.622  0.9375  1.0964  0.7424
  124MOL   H21047196   6.092   7.535   1.711 -1.5448  0.2143 -0.3428
  124MOL   C21147197   6.672   7.346   1.687 -0.0363 -0.2698 -0.3816
  124MOL   C21247198   6.739   7.476   1.635  0.3050 -0.3985  0.3788
  124MOL   O21347199   6.879   7.494   1.662 -0.1876  0.0422  0.0851
  124MOL   C21447200   6.913   7.556   1.789 -1.1677  0.6327 -0.2592
  124MOL   C21547201   7.061   7.536   1.834 -0.2437 -0.2283 -0.2311
  124MOL   C21647202   7.084   7.395   1.892 -0.2553  0.3201 -0.4840
  124MOL   C21747203   7.022   7.385   2.033  0.5037  0.2290  0.6060
  124MOL   H21847204   6.704   7.262   1.626  0.6775 -1.5391  1.6751
  124MOL   H21947205   6.700   7.328   1.791 -2.1699  0.8929  0.4052
  124MOL   H22047206   6.686   7.556   1.688  0.8838  0.8102 -0.8358
  124MOL   H22147207   6.899   7.663   1.778  0.1253  0.9756  1.2762
  124MOL   H22247208   6.842   7.533   1.869  1.3098  2.0874  2.4582
  124MOL   H22347209   7.127   7.557   1.750  1.5179  0.8820  1.3857
  124MOL   H22447210   7.082   7.609   1.913  0.5794 -2.8092  2.0219
  124MOL   H22547211   7.191   7.377   1.904 -0.3354  0.5518  0.6927
  124MOL   H22647212   7.040   7.320   1.828 -2.0224  1.0568 -0.1654
  124MOL   H22747213   7.057   7.464   2.100 -1.7581  0.5188  1.4758
  124MOL   H22847214   7.051   7.285   2.064 -0.2600 -0.4953 -0.9597
  124MOL   H22947215   6.915   7.401   2.027  0.3339 -1.2893 -0.8125
  124MOL   C23047216   6.711   7.498   1.485  0.3405 -0.0900  0.1988
  124MOL   C23147217   6.770   7.622   1.417  0.2354 -0.7590  0.8435
  124MOL   O23247218   6.725   7.630   1.283  0.2419  0.0762 -0.6361
  124MOL   C23347219   6.804   7.551   1.201  0.0871 -0.0497  0.0368
  124MOL   C23447220   6.790   7.609   1.055 -0.1790  1.0266  0.0506
  124MOL   C23547221   6.869   7.740   1.045  0.0007 -0.0639  0.5049
  124MOL   C23647222   6.871   0.011   0.908  0.2111 -0.3396  0.9139
  124MOL   H23747223   6.603   7.505   1.467  0.3055 -0.6677  0.1781
  124MOL   H23847224   6.746   7.408   1.434  1.8722  2.1784 -2.9021
  124MOL   H23947225   6.877   7.608   1.428  0.3679  0.4194  1.1679
  124MOL   H24047226   6.908   7.534   1.226 -0.2542 -3.1237 -0.3534
  124MOL   H24147227   6.752   7.456   1.187  1.8022 -0.5633 -3.1653
  124MOL   H24247228   6.818   7.536   0.979 -0.2495 -1.4498  2.3219
  124MOL   H24347229   6.685   7.630   1.036 -0.3858  0.4392  0.5156
  124MOL   H24447230   6.968   7.713   1.082  0.8415  0.5146 -1.2696
  124MOL   H24547231   6.834   0.012   1.117  1.8204  0.8366  0.5031
  124MOL   H24647232   6.956   7.770   0.854 -1.5082 -1.5263 -0.9441
  124MOL   H24747233   6.877   0.120   0.904 -0.2030 -0.3338  0.4557
  124MOL   H24847234   6.778   7.798   0.854  0.8060 -1.7070  0.2284
  124MOL   C24947235   6.740   7.756   1.484 -0.2971 -0.4633 -0.1685
  124MOL   C25047236   6.822   0.076   1.436  0.5108  0.3380  0.4302
  124MOL   O25147237   6.937   0.110   1.512  0.1541 -0.1550 -0.1353
  124MOL   C25247238   7.047   0.014   1.491  0.5665  0.0018 -0.6268
  124MOL   C25347239   7.164   0.100   1.428 -0.0126  0.6637  0.4318
  124MOL   C25447240   7.270   0.005   1.362  0.0987 -0.4103  0.1806
  124MOL   C25547241   7.376   0.075   1.270 -0.0088  0.0724 -0.2528
  124MOL   H25647242   6.740   7.752   1.593 -0.9426  1.3776 -0.0868
  124MOL   H25747243   6.635   7.767   1.460 -0.5298 -1.6494  0.2652
  124MOL   H25847244   6.850   0.063   1.331 -0.5169 -0.5605  0.2644
  124MOL   H25947245   7.023   7.735   1.422  0.3167  0.0037 -0.5423
  124MOL   H26047246   7.070   7.764   1.585  1.1322 -0.0390 -0.7824
  124MOL   H26147247   7.134   0.172   1.352 -0.0136  0.7288  0.4927
  124MOL   H26247248   7.223   0.162   1.496  2.3637  1.0285 -1.9060
  124MOL   H26347249   7.326   7.764   1.446  1.3919  1.6613  0.4162
  124MOL   H26447250   7.228   7.725   1.304  0.8338  0.5697 -1.7736
  124MOL   H26547251   7.424   0.001   1.206  0.7872  0.1589  0.2445
  124MOL   H26647252   7.454   0.123   1.328 -1.5613  1.6766  0.5730
  124MOL   H26747253   7.329   0.156   1.214 -1.6185  0.5816  1.7522
  124MOL   C26847254   6.732   0.202   1.432 -0.6808 -0.5680  0.0644
  124MOL   C26947255   6.795   0.314   1.347  0.8526 -0.3412  0.3081
  124MOL   O27047256   6.682   0.362   1.271 -0.2927  0.3523  0.0686
  124MOL   C27147257   6.667   0.308   1.148  0.0897  0.0163  0.0012
  124MOL   C27247258   6.547   0.385   1.089  0.2024  0.8594 -0.0153
  124MOL   C27347259   6.579   0.523   1.033  0.3359 -0.3499  0.6173
  124MOL   C27447260   6.449   0.597   1.008  0.4362  0.2402  0.4541
  124MOL   H27547261   6.641   0.161   1.386 -2.2947  1.2871  1.4957
  124MOL   H27647262   6.698   0.242   1.528 -0.5928  1.7433 -0.8284
  124MOL   H27747263   6.873   0.267   1.288  0.9695 -0.6943  0.7433
  124MOL   H27847264   6.757   0.328   1.088  0.2683 -3.3873 -0.9782
  124MOL   H27947265   6.638   0.204   1.158  1.0837 -0.2406  0.2368
  124MOL   H28047266   6.500   0.319   1.016  0.3438  0.0496  0.6217
  124MOL   H28147267   6.474   0.395   1.169  0.3348  1.3727  0.0431
  124MOL   H28247268   6.652   0.504   0.955  0.7141  0.0935  0.8536
  124MOL   H28347269   6.631   0.589   1.103  0.2766 -0.6361  0.9325
  124MOL   H28447270   6.468   0.705   1.008  1.1749  0.1300  2.7120
  124MOL   H28547271   6.365   0.569   1.071 -0.7569 -0.1725 -1.2866
  124MOL   H28647272   6.418   0.586   0.904 -0.0896  0.5534  0.5718
  124MOL   C28747273   6.850   0.431   1.427 -0.5214 -0.5991  0.2220
  124MOL   C28847274   6.980   0.490   1.370  0.5074 -0.3877 -0.0337
  124MOL   O28947275   7.070   0.536   1.480 -0.1277 -0.4020 -0.3445
  124MOL   C29047276   7.150   0.434   1.537  0.5427  0.2643 -0.4020
  124MOL   C29147277   7.241   0.493   1.647  0.0323 -0.0465  0.3301
  124MOL   C29247278   7.362   0.409   1.686  0.1600  0.2585  0.5121
  124MOL   C29347279   7.321   0.287   1.771  0.5001 -0.0547  0.2011
  124MOL   H29447280   6.861   0.396   1.530 -0.6349 -2.0965 -0.2610
  124MOL   H29547281   6.779   0.513   1.438  0.9394  0.8800 -1.2710
  124MOL   H29647282   7.033   0.412   1.317  1.3872  0.1418  0.0666
  124MOL   H29747283   7.088   0.352   1.573  1.3019  0.2077  0.8146
  124MOL   H29847284   7.207   0.392   1.454 -0.0327  0.6582 -0.9929
  124MOL   H29947285   7.178   0.528   1.728 -1.2728 -2.7515  0.5446
  124MOL   H30047286   7.266   0.591   1.607  0.9799 -1.0284 -1.5408
  124MOL   H30147287   7.423   0.472   1.751  0.7442  0.0235  0.2049
  124MOL   H30247288   7.417   0.376   1.597 -1.7757  0.4350 -0.7797
  124MOL   H30347289   7.265   0.218   1.709  0.5385 -1.1608  1.3656
  124MOL   H30447290   7.398   0.231   1.824  1.0479 -0.1089 -0.6395
  124MOL   H30547291   7.249   0.320   1.847 -0.0093  0.5024 -0.5210
  124MOL   C30647292   6.946   0.602   1.267  0.0341 -0.0254  0.2151
  124MOL   C30747293   7.046   0.607   1.141  0.2520 -0.2396  0.1865
  124MOL   O30847294   7.011   0.497   1.061 -0.2082 -0.0570  0.0057
  124MOL   C30947295   6.952   0.542   0.935 -0.3415 -0.1218 -0.2322
  124MOL   C31047296   6.941   0.416   0.844  0.7796 -0.4052  0.5620
  124MOL   C31147297   6.925   0.450   0.698  0.0105  0.5550  0.5087
  124MOL   C31247298   6.920   0.319   0.618 -0.4328 -0.1598 -1.0244
  124MOL   H31347299   6.845   0.601   1.226 -0.0746  0.0930  0.4799
  124MOL   H31447300   6.964   0.703   1.305  3.1307 -1.1020  1.8022
  124MOL   H31547301   7.032   0.699   1.085  1.4171  0.0553  0.3677
  124MOL   H31647302   7.005   0.627   0.893 -2.7073  0.6451 -1.6986
  124MOL   H31747303   6.850   0.573   0.957  0.2796 -0.1865  3.0646
  124MOL   H31847304   6.858   0.356   0.881  0.3904 -0.2889 -0.1232
  124MOL   H31947305   7.034   0.359   0.848  1.5363  0.6504 -1.3409
  124MOL   H32047306   6.838   0.515   0.699  0.8690  1.7462 -0.0181
  124MOL   H32147307   7.020   0.499   0.676  0.1332 -0.1272 -0.5481
  124MOL   H32247308   6.928   0.313   0.509  1.6795 -1.3408 -0.8385
  124MOL   H32347309   6.822   0.288   0.653 -0.7120  1.0632 -0.7062
  124MOL   H32447310   6.983   0.242   0.662 -1.3386 -0.1794  0.2690
  124MOL   C32547311   7.193   0.601   1.183 -0.1430  0.0917 -0.1612
  124MOL   C32647312   7.291   0.624   1.070 -0.1248  0.3577  0.4048
  124MOL   O32747313   7.283   0.747   0.998 -0.2503  0.3186  0.5033
  124MOL   C32847314   7.297   0.743   0.855 -0.5102  0.2308 -0.2956
  124MOL   C32947315   7.278   0.881   0.789  0.5064 -0.9024 -0.3593
  124MOL   C33047316   7.400   0.967   0.797  0.3862 -0.4325 -0.3328
  124MOL   C33147317   7.362   1.120   0.765  0.1728 -0.1614  0.7562
  124MOL   H33247318   7.220   0.501   1.219 -3.0215 -0.8093 -0.4115
  124MOL   H33347319   7.222   0.666   1.265  1.4731  0.7792 -1.2391
  124MOL   H33447320   7.281   0.536   1.006 -1.1733  1.8488 -1.5470
  124MOL   H33547321   7.219   0.677   0.818 -1.0574  1.5294 -1.5320
  124MOL   H33647322   7.396   0.708   0.827 -0.6389 -0.6232  0.2943
  124MOL   H33747323   7.253   0.871   0.684  0.4663 -0.3514 -0.4039
  124MOL   H33847324   7.185   0.926   0.824 -0.7535 -1.3814 -2.9823
  124MOL   H33947325   7.469   0.929   0.721  2.5795 -1.8884  2.2978
  124MOL   H34047326   7.448   0.957   0.894 -3.5315 -0.6098  1.7053
  124MOL   H34147327   7.287   1.145   0.839  2.0666 -0.7568  2.9159
  124MOL   H34247328   7.313   1.140   0.669 -2.2245 -1.4802  1.6820
  124MOL   H34347329   7.440   1.195   0.782 -0.7514  1.0235 -0.1556
  124MOL   C34447330   7.439   0.631   1.120  0.1643 -0.3324  0.3478
  124MOL   C34547331   7.505   0.500   1.179  0.0232  0.0507  0.2940
  124MOL   O34647332   7.444   0.384   1.120  0.6169 -0.2111 -0.2148
  124MOL   C34747333   7.489   0.356   0.987 -0.4197  0.1419 -0.1522
  124MOL   C34847334   7.428   0.223   0.951  0.0158 -0.2972  0.0770
  124MOL   C34947335   7.275   0.232   0.930 -0.5244 -0.0469  0.5843
  124MOL   C35047336   7.214   0.102   0.901  0.2499  0.1545 -0.3854
  124MOL   H35147337   7.494   0.653   1.028  1.9708 -3.1014  0.6999
  124MOL   H35247338   7.449   0.721   1.181  0.2407 -0.8692  1.1336
  124MOL   H35347339   7.613   0.500   1.166 -0.2833 -2.3026 -2.8678
  124MOL   H35447340   7.597   0.349   0.997 -0.3033  1.1753 -0.6162
  124MOL   H35547341   7.453   0.437   0.923 -0.3114  2.8348  3.0564
  124MOL   H35647342   7.460   0.154   1.029  1.1226 -0.5515 -0.5820
  124MOL   H35747343   7.477   0.198   0.856 -0.7634  1.6992 -0.8810
  124MOL   H35847344   7.232   0.281   1.017 -0.4820 -0.7260  0.9995
  124MOL   H35947345   7.256   0.308   0.854 -1.7153  0.1261  1.0339
  124MOL   H36047346   7.267   0.040   0.829  0.5680 -1.5634  1.2808
  124MOL   H36147347   7.114   0.106   0.858 -0.1935 -2.4217  0.3344
  124MOL   H36247348   7.212   0.046   0.995 -1.3184  0.6522 -0.1062
  124MOL   C36347349   7.487   0.490   1.332  0.6825  0.1680 -0.4152
  124MOL   C36447350   7.564   0.591   1.417 -0.5236 -0.5743  0.2538
  124MOL   O36547351   7.612   0.533   1.534  0.0852  0.4309  0.5528
  124MOL   C36647352   7.723   0.595   1.585  0.1048 -0.5277  0.5256
  124MOL   C36747353   7.757   0.539   1.717  0.8759 -0.3109 -0.1514
  124MOL   C36847354   0.074   0.598   1.782 -0.0631 -0.2455 -0.2068
  124MOL   C36947355   0.118   0.508   1.896  1.1721 -0.1634  0.2858
  124MOL   H37047356   7.506   0.389   1.367  3.5229  0.8791  0.2046
  124MOL   H37147357   7.388   0.507   1.375  1.0116 -0.6608  0.6833
  124MOL   H37247358   7.497   0.672   1.446 -0.2025  0.6618 -2.2945
  124MOL   H37347359   7.699   0.701   1.587  1.0814 -0.3153  1.4367
  124MOL   H37447360   0.001   0.583   1.512 -0.5521  1.4334 -0.5639
  124MOL   H37547361   7.779   0.432   1.710  0.3164 -0.4929  0.7197
  124MOL   H37647362   7.670   0.544   1.783  0.4857  0.7725 -0.7374
  124MOL   H37747363   0.062   0.698   1.822 -1.5326  0.0871 -1.4799
  124MOL   H37847364   0.156   0.600   1.710 -1.3703  0.8497 -1.6762
  124MOL   H37947365   0.162   0.413   1.865  2.4011  1.0810 -1.9390
  124MOL   H38047366   0.204   0.555   1.944  0.6617  2.0696 -0.9146
  124MOL   H38147367   0.034   0.497   1.965  0.3104  0.6248 -0.6132
  124MOL   H38247368   7.642   0.625   1.348 -1.5188  1.2726  0.0076
  125MOL     C147369   5.102   3.978   7.689  0.6847  0.5261  0.3800
  125MOL     C247370   5.201   3.938   0.004  0.1024 -0.2977  0.2615
  125MOL     O347371   5.269   4.039   0.071  0.9067 -0.1140  0.2341
  125MOL     C447372   5.360   4.117   7.797  0.6063 -0.9072  0.7142
  125MOL     C547373   5.413   4.221   0.091 -0.1217 -0.2145 -0.2537
  125MOL     C647374   5.490   4.175   0.210 -0.5471 -0.5218 -0.4656
  125MOL     C747375   5.590   4.062   0.189 -0.3846 -0.2307 -0.1407
  125MOL     H847376   5.057   3.895   7.634 -2.1649  1.5378  1.0634
  125MOL     H947377   5.010   4.026   7.724  1.4446  1.8966  0.5129
  125MOL    H1047378   5.274   3.869   7.764 -0.0439 -0.6631  0.6044
  125MOL    H1147379   5.423   4.045   7.744 -2.3601 -0.7523 -3.2734
  125MOL    H1247380   5.289   4.159   7.725  1.6174  1.3055  0.9556
  125MOL    H1347381   5.325   4.275   0.127 -0.5500 -0.6629 -0.6104
  125MOL    H1447382   5.469   4.299   0.040 -2.1061  0.3285 -1.7001
  125MOL    H1547383   5.420   4.136   0.284 -1.8929  1.7857 -0.4879
  125MOL    H1647384   5.528   4.261   0.265 -1.2930 -0.4129 -0.1169
  125MOL    H1747385   5.672   4.085   0.121  0.2204  1.4161  1.1331
  125MOL    H1847386   5.530   3.981   0.147  0.5966 -2.0266  1.8364
  125MOL    H1947387   5.630   4.023   0.282 -0.5264  0.0313  0.0294
  125MOL    H2047388   5.149   4.045   7.617  0.7641 -0.3742 -0.4284
  125MOL    C2147389   5.136   3.872   0.119  0.7909  0.5112  0.5234
  125MOL    C2247390   5.059   3.744   0.084  1.2332 -0.2949  0.6727
  125MOL    O2347391   5.140   3.634   0.033  0.2301  0.9514 -0.2713
  125MOL    C2447392   5.113   3.578   7.704 -0.9700 -1.2560 -0.3358
  125MOL    C2547393   5.252   3.551   7.641 -0.5809  0.0610  0.0850
  125MOL    C2647394   5.248   3.460   7.512  0.3398  0.3587 -0.6683
  125MOL    C2747395   5.219   3.310   7.537  0.1676  0.9190 -0.7036
  125MOL    H2847396   5.072   3.947   0.165  1.9121  2.2367 -0.6680
  125MOL    H2947397   5.212   3.835   0.188  2.5171  0.5110 -1.3446
  125MOL    H3047398   4.985   3.788   0.017 -0.1786 -1.8068  1.2063
  125MOL    H3147399   5.051   3.641   7.641  2.8894  3.0363 -0.0851
  125MOL    H3247400   5.073   3.479   7.727 -0.0725 -1.6112 -0.2621
  125MOL    H3347401   5.300   3.645   7.614  2.5079 -1.7424 -0.8801
  125MOL    H3447402   5.322   3.509   7.713 -0.3316  0.9106  0.3485
  125MOL    H3547403   5.174   3.500   7.442  0.1941 -0.0474 -0.7437
  125MOL    H3647404   5.340   3.454   7.454  0.5195 -1.1657 -0.2496
  125MOL    H3747405   5.134   3.285   7.601  0.4118  0.6632 -0.4767
  125MOL    H3847406   5.201   3.258   7.443 -0.9290 -0.7116  0.3813
  125MOL    H3947407   5.306   3.264   7.584 -0.0277  1.1767 -0.0866
  125MOL    C4047408   4.995   3.703   0.219  0.3491 -0.5042  0.3274
  125MOL    C4147409   4.896   3.593   0.213 -0.8361  1.2136 -0.5935
  125MOL    O4247410   4.776   3.629   0.152  0.3081 -1.0036 -0.1762
  125MOL    C4347411   4.752   3.586   0.019 -0.3264 -0.8397  0.2716
  125MOL    C4447412   4.627   3.643   7.763  0.1163  0.3206  0.5236
  125MOL    C4547413   4.499   3.607   0.032  0.4305  0.1989  0.2078
  125MOL    C4647414   4.361   3.640   7.777  0.5757 -0.1829  0.1535
  125MOL    H4747415   4.943   3.785   0.268  1.2615 -0.0094  0.4843
  125MOL    H4847416   5.077   3.669   0.282  1.2336 -2.4030 -1.7829
  125MOL    H4947417   4.941   3.508   0.161 -2.3816 -0.8429  1.3707
  125MOL    H5047418   4.753   3.477   0.020  2.2655 -0.8937 -1.4302
  125MOL    H5147419   4.840   3.616   7.763  0.9053 -0.3528  2.3441
  125MOL    H5247420   4.623   3.605   7.661  0.6930 -1.8436  1.2955
  125MOL    H5347421   4.637   3.750   7.744  0.4151  0.2735  0.4148
  125MOL    H5447422   4.499   3.644   0.135 -0.1415  2.3234 -0.5236
  125MOL    H5547423   4.498   3.501   0.054  0.2719  0.1974  0.1955
  125MOL    H5647424   4.347   3.614   7.672  0.1242 -0.2458  0.2291
  125MOL    H5747425   4.281   3.597   0.035  0.4335  1.3975  1.1029
  125MOL    H5847426   4.333   3.745   7.781 -0.4657 -0.4949  1.1862
  125MOL    C5947427   4.848   3.541   0.351 -0.0075  0.1362 -0.4944
  125MOL    C6047428   4.814   3.393   0.344  0.5692  0.1045  0.2625
  125MOL    O6147429   4.940   3.323   0.360  0.0984  0.0564  0.6403
  125MOL    C6247430   4.963   3.241   0.248 -0.7224 -0.1944  0.2532
  125MOL    C6347431   5.096   3.169   0.251  0.7415  0.1205 -0.4963
  125MOL    C6447432   5.197   3.238   0.163 -0.3626  0.2356 -0.4781
  125MOL    C6547433   5.326   3.162   0.169 -0.7226  0.2343 -0.0465
  125MOL    H6647434   4.925   3.555   0.428 -0.7297  0.4829  0.1687
  125MOL    H6747435   4.760   3.600   0.379  0.7023  1.9040 -1.8664
  125MOL    H6847436   4.766   3.370   0.249  0.1524  3.8246 -0.4850
  125MOL    H6947437   4.973   3.295   0.153  1.3306  0.6704  0.9396
  125MOL    H7047438   4.884   3.167   0.231 -1.0634 -0.0958  1.3698
  125MOL    H7147439   5.138   3.146   0.349  0.4927  1.0813 -0.1575
  125MOL    H7247440   5.081   3.067   0.214  0.5175  0.0991 -0.3519
  125MOL    H7347441   5.165   3.235   0.059  1.6349  0.9131 -1.1446
  125MOL    H7447442   5.216   3.338   0.204  1.7492 -1.1125  2.0024
  125MOL    H7547443   5.310   3.067   0.117  1.6728 -0.2643  0.0768
  125MOL    H7647444   5.407   3.214   0.119  0.0035 -1.7448 -0.9931
  125MOL    H7747445   5.364   3.148   0.270 -2.6762 -0.1411  0.6566
  125MOL    C7847446   4.730   3.342   0.465 -0.2735  0.2467  0.0455
  125MOL    C7947447   4.576   3.351   0.461 -0.2043  0.2761  0.5258
  125MOL    O8047448   4.523   3.320   0.584  0.2218 -0.7570 -0.1192
  125MOL    C8147449   4.508   3.431   0.665 -0.2592  0.2094 -0.2722
  125MOL    C8247450   4.419   3.392   0.778 -0.3553 -0.4091 -0.5855
  125MOL    C8347451   4.364   3.522   0.851 -0.3103  0.7388  0.5819
  125MOL    C8447452   4.277   3.620   0.772 -0.6082  0.9093  0.0777
  125MOL    H8547453   4.758   3.410   0.545  2.1926 -1.2355  0.5161
  125MOL    H8647454   4.764   3.244   0.500  1.5126  1.3323  1.4353
  125MOL    H8747455   4.544   3.451   0.432  2.5839  0.8446 -0.7030
  125MOL    H8847456   4.456   3.507   0.607  1.1052  1.0179 -0.4657
  125MOL    H8947457   4.606   3.472   0.691 -0.3569 -0.7599  1.7118
  125MOL    H9047458   4.342   3.328   0.736 -0.8645 -0.7676  0.8533
  125MOL    H9147459   4.465   3.336   0.860  0.8638  0.8566 -0.3923
  125MOL    H9247460   4.452   3.575   0.888  0.2622  1.2894 -1.4591
  125MOL    H9347461   4.302   3.489   0.934  2.4505 -1.0841  2.0220
  125MOL    H9447462   4.312   3.666   0.680 -0.5119 -0.5741 -0.6540
  125MOL    H9547463   4.179   3.577   0.748 -0.2185 -0.4720  0.8960
  125MOL    H9647464   4.255   3.698   0.845  2.8369  2.3650 -0.3559
  125MOL    C9747465   4.518   3.242   0.364 -1.0984 -0.6009 -0.3279
  125MOL    C9847466   4.369   3.233   0.351 -0.1333 -0.4576 -1.1259
  125MOL    O9947467   4.341   3.361   0.298  0.3651  0.4935 -0.3499
  125MOL   C10047468   4.238   3.428   0.373 -0.2187  1.1091 -0.5544
  125MOL   C10147469   4.241   3.571   0.340  0.0450 -0.1887 -0.1426
  125MOL   C10247470   4.115   3.651   0.347  0.0870  0.4604 -0.7832
  125MOL   C10347471   4.129   3.799   0.327 -0.0226 -0.4116  0.3934
  125MOL   H10447472   4.559   3.146   0.397  0.2653 -0.0250 -0.3071
  125MOL   H10547473   4.559   3.258   0.264  0.1038 -0.4602  0.1820
  125MOL   H10647474   4.325   3.200   0.445  1.6883 -1.5155 -0.6280
  125MOL   H10747475   4.258   3.409   0.478 -0.4445  2.9531 -0.1728
  125MOL   H10847476   4.141   3.383   0.349  1.5956 -4.0487  1.1857
  125MOL   H10947477   4.293   3.586   0.245 -1.0946 -0.1393 -0.7633
  125MOL   H11047478   4.325   3.611   0.396  1.5870  1.0495 -3.2012
  125MOL   H11147479   4.044   3.635   0.428 -0.9071 -0.1767 -1.7645
  125MOL   H11247480   4.053   3.621   0.262  0.5228 -0.6324 -0.7220
  125MOL   H11347481   4.189   3.846   0.405 -0.8674  1.1035  0.1492
  125MOL   H11447482   4.170   3.819   0.228  1.4712 -1.3143  0.8049
  125MOL   H11547483   4.028   3.837   0.331  0.1432  0.1511 -0.7411
  125MOL   C11647484   4.330   3.122   0.244 -0.0033 -0.0578 -0.1479
  125MOL   C11747485   4.186   3.121   0.196 -0.5707 -0.0159  0.0629
  125MOL   O11847486   4.185   3.030   0.086  0.2718 -0.2486 -0.2847
  125MOL   C11947487   4.117   3.075   7.769 -1.0776 -0.7224 -0.7827
  125MOL   C12047488   4.088   2.955   7.681 -0.1540  0.6069 -0.6311
  125MOL   C12147489   4.219   2.889   7.646  0.5641  0.3156 -0.6619
  125MOL   C12247490   4.212   2.759   7.572  0.0139 -0.2172 -0.2140
  125MOL   H12347491   4.397   3.136   0.158 -1.4245  0.2344 -1.2233
  125MOL   H12447492   4.354   3.019   0.271  0.4672  0.4227  1.2943
  125MOL   H12547493   4.157   3.223   0.171 -0.0988 -0.0291 -0.5451
  125MOL   H12647494   4.195   3.129   7.714 -1.5384  0.5989 -0.1426
  125MOL   H12747495   4.028   3.134   7.789 -0.6607  0.4090 -2.1365
  125MOL   H12847496   4.046   3.000   7.591 -2.2767 -1.6938 -0.8487
  125MOL   H12947497   4.017   2.883   7.722  2.6069 -2.7446 -1.4582
  125MOL   H13047498   4.284   2.954   7.587  0.9479  1.4618  0.9721
  125MOL   H13147499   4.277   2.868   7.737  0.8192 -2.7283 -1.4711
  125MOL   H13247500   4.174   2.776   7.471 -0.2185  1.4124  0.1363
  125MOL   H13347501   4.150   2.684   7.622 -0.6522  0.5892  0.1726
  125MOL   H13447502   4.308   2.707   7.575  1.1555  1.7377 -1.8749
  125MOL   C13547503   4.090   3.067   0.305 -0.2022  0.6876 -1.1864
  125MOL   C13647504   3.940   3.095   0.301 -0.8357 -0.4187  0.5002
  125MOL   O13747505   3.894   3.044   0.429 -0.7590 -0.1198  0.3673
  125MOL   C13847506   3.871   2.900   0.434  0.3379 -0.1408 -0.2748
  125MOL   C13947507   3.866   2.856   0.585  0.3679  0.2297  0.0722
  125MOL   C14047508   3.814   2.713   0.605  0.2994  0.4816 -0.1910
  125MOL   C14147509   3.826   2.665   0.750 -0.1862 -0.0618  0.1379
  125MOL   H14247510   4.128   3.112   0.396  0.0216 -0.0506 -0.9074
  125MOL   H14347511   4.109   2.959   0.306 -1.5487  0.4238  1.5827
  125MOL   H14447512   3.891   3.046   0.217 -1.3680  2.5773 -1.0213
  125MOL   H14547513   3.944   2.842   0.378  2.3325  2.7568 -0.7614
  125MOL   H14647514   3.771   2.881   0.394  0.1402  1.2911 -0.4775
  125MOL   H14747515   3.808   2.933   0.634 -2.2983 -1.1831 -0.7870
  125MOL   H14847516   3.964   2.866   0.632  0.6238 -1.2063 -0.1396
  125MOL   H14947517   3.706   2.719   0.592 -0.0186  0.4533  2.1541
  125MOL   H15047518   3.848   2.638   0.534  1.6412  2.3887 -1.6302
  125MOL   H15147519   3.785   2.745   0.813  0.8371 -0.2500  1.0628
  125MOL   H15247520   3.770   2.572   0.757  2.6834 -2.0293 -1.8753
  125MOL   H15347521   3.930   2.651   0.779 -0.4014 -1.4890  0.2368
  125MOL   C15447522   3.916   3.242   0.301 -0.0787 -0.7532  1.3859
  125MOL   C15547523   3.764   3.285   0.293  0.6995  0.3912  0.0513
  125MOL   O15647524   3.714   3.262   0.165  0.3323 -0.2647  0.1554
  125MOL   C15747525   3.602   3.173   0.149  0.5485  0.0916  0.3711
  125MOL   C15847526   3.596   3.128   7.800  0.0379  0.2853 -0.0868
  125MOL   C15947527   3.708   3.029   7.750 -0.1107  0.2818 -0.6651
  125MOL   C16047528   3.699   2.889   0.007  0.3060 -0.0156  0.0426
  125MOL   H16147529   3.972   3.302   0.228 -1.8313 -0.6656  0.0841
  125MOL   H16247530   3.943   3.278   0.400  1.1850  0.5355  0.6089
  125MOL   H16347531   3.716   3.235   0.376 -1.4700  4.0839  1.1247
  125MOL   H16447532   3.612   3.082   0.207  1.1891 -0.9221 -1.3071
  125MOL   H16547533   3.516   3.230   0.183  1.5089  0.7542  1.7600
  125MOL   H16647534   3.591   3.219   7.740  1.6629 -0.1951 -0.9908
  125MOL   H16747535   3.505   3.069   7.788  2.1940 -2.6792 -2.5854
  125MOL   H16847536   3.687   3.013   7.645 -0.7091 -1.5744 -0.2875
  125MOL   H16947537   3.801   3.084   7.763  0.0020 -0.1062  0.2685
  125MOL   H17047538   3.714   2.884   0.115 -1.6288 -0.1187  0.3142
  125MOL   H17147539   3.614   2.840   7.763  1.0725  0.2256 -1.6862
  125MOL   H17247540   3.785   2.835   7.769 -0.2097  1.9155 -3.8990
  125MOL   C17347541   3.722   3.428   0.312  0.0996  1.1541  0.0063
  125MOL   C17447542   3.675   3.477   0.457 -0.7831  1.0384  0.1472
  125MOL   O17547543   3.794   3.470   0.534  0.4196 -0.3586  0.5661
  125MOL   C17647544   3.798   3.366   0.637  0.5223 -0.0546  0.1481
  125MOL   C17747545   3.933   3.355   0.712 -0.7306 -0.4525 -0.2030
  125MOL   C17847546   3.954   3.219   0.787  0.0949  0.1333 -0.0386
  125MOL   C17947547   4.092   3.197   0.846  0.2362 -0.3853 -0.3787
  125MOL   H18047548   3.643   3.460   0.244 -0.0462 -0.8865 -0.8230
  125MOL   H18147549   3.799   3.502   0.293  0.9529  0.9686  2.5328
  125MOL   H18247550   3.592   3.419   0.496  0.7105 -1.5194 -0.3356
  125MOL   H18347551   3.768   3.272   0.593  0.4335  0.5317 -1.0711
  125MOL   H18447552   3.713   3.377   0.703 -1.5219 -1.2441 -2.2077
  125MOL   H18547553   3.962   3.442   0.770 -2.6327  0.8892 -1.2270
  125MOL   H18647554   4.007   3.346   0.632  0.8486  0.1489  1.1590
  125MOL   H18747555   3.883   3.214   0.870  1.1989  0.1838  0.9183
  125MOL   H18847556   3.938   3.137   0.718  2.4400 -0.1991 -0.2378
  125MOL   H18947557   4.143   3.285   0.887  1.0539  0.0062 -2.1901
  125MOL   H19047558   4.087   3.122   0.925 -1.7021  0.9656  0.8095
  125MOL   H19147559   4.163   3.169   0.768  1.6192  1.1974  0.2669
  125MOL   C19247560   3.632   3.624   0.461 -0.3994  1.0270 -0.1669
  125MOL   C19347561   3.516   3.663   0.371  0.2333  0.4466  0.3626
  125MOL   O19447562   3.414   3.562   0.402 -0.0313  0.0653 -0.7019
  125MOL   C19547563   3.304   3.561   0.308 -0.1867  0.2467  0.1038
  125MOL   C19647564   3.216   3.438   0.324 -0.3908  0.2447  0.0292
  125MOL   C19747565   3.086   3.436   0.235 -0.0623  0.4982  0.0637
  125MOL   C19847566   2.999   3.559   0.272  0.1126 -0.8608 -0.4602
  125MOL   H19947567   3.719   3.682   0.429  0.2633  0.0607 -0.1354
  125MOL   H20047568   3.598   3.650   0.561  1.5235  0.2820  0.7063
  125MOL   H20147569   3.531   3.663   0.263  0.5556 -1.0957  0.3934
  125MOL   H20247570   3.337   3.564   0.204 -0.3164 -1.6721 -0.0139
  125MOL   H20347571   3.244   3.651   0.318  0.7041  0.6274  2.2157
  125MOL   H20447572   3.273   3.346   0.306 -1.9287 -0.2247 -2.7820
  125MOL   H20547573   3.179   3.427   0.426  1.0900 -2.0536  0.3599
  125MOL   H20647574   3.024   3.348   0.252  2.1880 -1.1222  0.0493
  125MOL   H20747575   3.109   3.446   0.129 -2.6595  2.3326 -0.3663
  125MOL   H20847576   2.898   3.552   0.232 -0.4819  0.5368  0.7499
  125MOL   H20947577   2.996   3.564   0.380 -1.0696 -2.7102 -0.3937
  125MOL   H21047578   3.043   3.652   0.235  1.9416 -1.3918  0.3253
  125MOL   C21147579   3.455   3.803   0.403 -0.2026  0.5047 -0.5436
  125MOL   C21247580   3.546   3.919   0.351 -1.0199  0.7871 -0.0765
  125MOL   O21347581   3.559   3.892   0.211  0.4464 -0.5077 -0.1566
  125MOL   C21447582   3.671   3.928   0.143  0.4217 -0.0981  1.0189
  125MOL   C21547583   3.677   3.857   0.016 -0.1387 -0.1410  0.4084
  125MOL   C21647584   3.804   3.896   7.733 -0.1398  0.5995  0.3357
  125MOL   C21747585   3.935   3.833   7.781  0.2550 -0.2641  0.4172
  125MOL   H21847586   3.439   3.806   0.510 -1.4159 -1.2361 -0.6658
  125MOL   H21947587   3.359   3.830   0.359  0.8533  1.2784 -2.4785
  125MOL   H22047588   3.649   3.904   0.385  0.1570 -0.3812 -3.9508
  125MOL   H22147589   3.668   4.037   0.138  4.1239  0.0132 -0.3623
  125MOL   H22247590   3.762   3.904   0.197 -0.1585  0.2462  2.1699
  125MOL   H22347591   3.676   3.750   0.033 -0.2659 -0.3601 -0.9318
  125MOL   H22447592   3.584   3.869   7.763 -2.1445 -2.6252  3.1547
  125MOL   H22547593   3.813   4.004   7.750  1.1139  0.6803 -0.8081
  125MOL   H22647594   3.781   3.875   7.629  0.8243 -1.9051  0.5855
  125MOL   H22747595   3.924   3.732   0.020  0.4694  0.5872  2.6667
  125MOL   H22847596   3.979   3.885   0.064  0.5848 -0.5515  0.4274
  125MOL   H22947597   4.016   3.827   7.709  1.3653  0.2816  1.5928
  125MOL   C23047598   3.488   4.058   0.387  0.5716 -0.0213 -0.4658
  125MOL   C23147599   3.495   4.092   0.536  0.2895 -0.2725  0.5223
  125MOL   O23247600   3.634   4.104   0.564  0.6472  1.3530  0.5351
  125MOL   C23347601   3.673   4.043   0.679 -0.1998  0.2476  0.4037
  125MOL   C23447602   3.830   4.048   0.675 -0.2449  0.1536  0.0433
  125MOL   C23547603   3.885   3.931   0.584  0.2092 -0.5282 -0.4978
  125MOL   C23647604   4.025   3.885   0.640  0.9541  0.9090  0.2659
  125MOL   H23747605   3.385   4.052   0.354  0.3484 -0.8228  0.3602
  125MOL   H23847606   3.533   4.140   0.330  0.3908  0.9460  0.7592
  125MOL   H23947607   3.451   4.003   0.582 -1.4199  1.1958  1.8091
  125MOL   H24047608   3.636   4.099   0.766  2.4938 -0.7291  2.2392
  125MOL   H24147609   3.628   3.944   0.687 -0.9748  0.5297 -0.3876
  125MOL   H24247610   3.870   4.146   0.647  0.5120  0.1936  1.2350
  125MOL   H24347611   3.860   4.031   0.778  1.0295  1.3783 -0.1034
  125MOL   H24447612   3.887   3.962   0.479  1.2223  1.6214  0.1204
  125MOL   H24547613   3.807   3.857   0.598  0.0715 -0.6198 -1.7166
  125MOL   H24647614   4.100   3.956   0.605  2.7152 -1.8321 -1.6550
  125MOL   H24747615   4.053   3.790   0.596  1.7814  0.6051  1.4181
  125MOL   H24847616   4.020   3.870   0.748  1.3636 -0.5872  0.0796
  125MOL   C24947617   3.423   4.222   0.569  0.0098  0.3797  0.2540
  125MOL   C25047618   3.345   4.238   0.704  0.1006  0.3427  0.0769
  125MOL   O25147619   3.207   4.206   0.673  0.2967  0.2494 -0.3505
  125MOL   C25247620   3.128   4.167   0.782 -0.0223 -0.4248 -0.2312
  125MOL   C25347621   2.980   4.169   0.759  0.3603 -0.0457 -0.4051
  125MOL   C25447622   2.940   4.312   0.737  0.4079 -0.1993  0.3407
  125MOL   C25547623   2.788   4.335   0.744  0.0618 -0.5890 -0.0013
  125MOL   H25647624   3.366   4.251   0.481  1.7989 -1.0451 -1.4188
  125MOL   H25747625   3.484   4.312   0.572  0.5912  0.1235 -2.6569
  125MOL   H25847626   3.387   4.179   0.785  2.5337  2.1694  0.2334
  125MOL   H25947627   3.141   4.233   0.868 -0.4202  0.0878 -0.5584
  125MOL   H26047628   3.164   4.066   0.801 -1.1229 -0.6373  0.8344
  125MOL   H26147629   2.944   4.099   0.683 -0.6259 -1.2664  1.1619
  125MOL   H26247630   2.928   4.129   0.846 -0.1009  0.9566 -0.2194
  125MOL   H26347631   2.984   4.381   0.809  1.3120 -0.5728  0.1464
  125MOL   H26447632   2.983   4.339   0.640 -0.0062  4.3821  1.3361
  125MOL   H26547633   2.761   4.433   0.706  1.7827  0.1036  0.5317
  125MOL   H26647634   2.751   4.325   0.846  1.5501  1.9253  0.8234
  125MOL   H26747635   2.734   4.256   0.691  0.7177 -0.7049 -0.4956
  125MOL   C26847636   3.344   4.392   0.748  0.0919  0.7394 -0.2123
  125MOL   C26947637   3.475   4.435   0.820  0.0097  0.6235 -0.5511
  125MOL   O27047638   3.489   4.577   0.798  0.4393  0.0216  0.0499
  125MOL   C27147639   3.599   4.619   0.715  0.3389 -0.4856 -0.2576
  125MOL   C27247640   3.586   4.763   0.681 -0.2783 -0.0948 -0.4087
  125MOL   C27347641   3.717   4.807   0.610  0.3475  0.0067 -0.0513
  125MOL   C27447642   3.702   4.950   0.562 -0.2952  0.6784  0.3715
  125MOL   H27547643   3.333   4.441   0.651 -2.6574 -0.0108 -0.3191
  125MOL   H27647644   3.256   4.416   0.806 -1.7232 -1.3314 -2.0109
  125MOL   H27747645   3.551   4.378   0.766  0.7836  0.9028  0.2187
  125MOL   H27847646   3.689   4.606   0.776  0.5300 -2.3443 -0.9026
  125MOL   H27947647   3.624   4.551   0.634 -0.2074 -0.7400 -0.2127
  125MOL   H28047648   3.502   4.776   0.613  0.5178  2.6376 -0.9573
  125MOL   H28147649   3.573   4.828   0.767  1.4854 -2.6913  1.9011
  125MOL   H28247650   3.732   4.746   0.520 -0.2605 -1.6821  0.9681
  125MOL   H28347651   3.805   4.779   0.668  0.5292 -0.2579 -0.4484
  125MOL   H28447652   3.782   4.989   0.499 -1.3026 -0.7558 -1.8645
  125MOL   H28547653   3.696   5.014   0.650  0.9154 -1.5705  2.1427
  125MOL   H28647654   3.608   4.962   0.507 -0.3843 -2.1608 -0.1748
  125MOL   C28747655   3.461   4.410   0.973  0.7165  1.1105  0.4504
  125MOL   C28847656   3.580   4.405   1.068 -0.2773  0.1476 -0.3287
  125MOL   O28947657   3.677   4.308   1.025 -0.0751  0.0839 -0.6771
  125MOL   C29047658   3.808   4.353   1.038 -0.2360  0.2946 -0.0461
  125MOL   C29147659   3.894   4.258   0.963  0.0812  0.6053 -0.1182
  125MOL   C29247660   4.042   4.295   0.962 -0.2305  0.0718  0.0469
  125MOL   C29347661   4.137   4.176   0.935  0.1918 -0.2635 -0.2203
  125MOL   H29447662   3.402   4.319   0.988 -0.2586  1.1493 -2.8055
  125MOL   H29547663   3.394   4.489   1.004 -1.2562 -1.1211  2.0934
  125MOL   H29647664   3.619   4.507   1.073 -0.6373  0.2757 -0.1108
  125MOL   H29747665   3.833   4.449   0.993  1.6833  0.8137  2.0271
  125MOL   H29847666   3.842   4.345   1.142 -2.1979  0.7003  0.6415
  125MOL   H29947667   3.865   4.253   0.858  1.9261 -1.8625 -0.5677
  125MOL   H30047668   3.885   4.157   1.003 -0.7371  0.6345 -0.2112
  125MOL   H30147669   4.052   4.327   1.066 -1.3656 -2.5902  1.0140
  125MOL   H30247670   4.069   4.379   0.898  1.1516 -0.0196  0.4821
  125MOL   H30347671   4.105   4.091   0.995 -0.0579  1.5559  2.3190
  125MOL   H30447672   4.130   4.147   0.831  0.3102  0.4101 -0.4182
  125MOL   H30547673   4.243   4.191   0.957  0.6560 -0.2380 -2.3954
  125MOL   C30647674   3.552   4.365   1.219 -0.6379  0.3768 -0.1565
  125MOL   C30747675   3.485   4.475   1.303  0.1946 -0.3761  0.3432
  125MOL   O30847676   3.569   4.575   1.367 -0.2171 -0.0590  0.0564
  125MOL   C30947677   3.590   4.691   1.297  0.1027  0.0520 -0.3527
  125MOL   C31047678   3.623   4.816   1.376 -0.1292 -0.3255  0.3850
  125MOL   C31147679   3.740   4.794   1.478 -0.0815  0.0089  0.0638
  125MOL   C31247680   3.770   4.923   1.559 -0.1700  0.1564  0.1116
  125MOL   H31347681   3.493   4.274   1.230 -0.6118  0.3666 -0.1054
  125MOL   H31447682   3.639   4.346   1.282  0.4523  1.0260 -1.4473
  125MOL   H31547683   3.413   4.521   1.235 -2.1613 -0.6942  2.5186
  125MOL   H31647684   3.511   4.721   1.229  0.2839  1.6168  0.1035
  125MOL   H31747685   3.672   4.665   1.230  0.9628 -0.5693  0.9169
  125MOL   H31847686   3.530   4.851   1.421 -0.4680  1.5145 -1.6699
  125MOL   H31947687   3.636   4.895   1.302  1.6417 -1.0138 -0.0759
  125MOL   H32047688   3.717   4.718   1.553  0.1809  1.2166  1.3991
  125MOL   H32147689   3.826   4.756   1.424 -1.3288  0.6500 -2.4450
  125MOL   H32247690   3.828   4.989   1.495  0.7146  0.1219  0.8672
  125MOL   H32347691   3.820   4.896   1.652 -1.9734 -0.8941  0.7843
  125MOL   H32447692   3.682   4.981   1.584 -0.8408 -0.3777 -0.9658
  125MOL   C32547693   3.395   4.415   1.412  0.1003  0.4115 -0.4611
  125MOL   C32647694   3.271   4.331   1.369 -0.4726  0.3931 -0.0223
  125MOL   O32747695   3.203   4.302   1.493  0.5756  0.2258  0.4563
  125MOL   C32847696   3.235   4.184   1.561 -0.3745 -0.1785  0.7594
  125MOL   C32947697   3.195   4.201   1.704  0.1937 -0.8612 -0.2914
  125MOL   C33047698   3.229   4.089   1.801  0.2748  0.7942 -0.0304
  125MOL   C33147699   3.149   4.108   1.936 -0.3660 -0.4408  0.9201
  125MOL   H33247700   3.352   4.490   1.477 -0.3003  1.5697 -2.0309
  125MOL   H33347701   3.459   4.362   1.483 -1.1596  0.4213  0.7137
  125MOL   H33447702   3.308   4.239   1.322 -0.0881  0.5644 -0.0619
  125MOL   H33547703   3.342   4.166   1.550 -0.7229 -0.9852 -1.5705
  125MOL   H33647704   3.195   4.101   1.503  1.0991 -0.3581 -0.0219
  125MOL   H33747705   3.234   4.301   1.725  1.0981 -0.3455 -4.1189
  125MOL   H33847706   3.086   4.201   1.702  0.1546 -2.0508  1.1308
  125MOL   H33947707   3.338   4.085   1.801  0.2391 -0.8901 -2.5941
  125MOL   H34047708   3.218   3.988   1.763  1.2504 -0.2946  2.4791
  125MOL   H34147709   3.155   4.211   1.971 -0.1690 -0.1882  0.1488
  125MOL   H34247710   3.202   4.043   2.007 -2.5719 -1.7122  1.4396
  125MOL   H34347711   3.049   4.069   1.917 -1.1498  2.2768 -0.8006
  125MOL   C34447712   3.168   4.416   1.290 -0.0080 -0.4958 -0.0499
  125MOL   C34547713   3.050   4.335   1.231  0.4100 -0.1151 -0.0822
  125MOL   O34647714   3.086   4.222   1.148  0.2638 -0.3769 -0.6564
  125MOL   C34747715   3.077   4.096   1.214 -0.5482 -0.3392  0.5444
  125MOL   C34847716   3.031   3.982   1.116 -0.1596  0.8528 -0.0516
  125MOL   C34947717   3.021   3.852   1.192 -0.3783  0.1164  0.5012
  125MOL   C35047718   3.035   3.726   1.100  0.0510  0.3427 -0.3841
  125MOL   H35147719   3.130   4.502   1.345  2.0081  0.0137  0.5592
  125MOL   H35247720   3.220   4.467   1.209 -1.3159  0.8146 -0.0908
  125MOL   H35347721   3.000   4.304   1.323  2.2151  0.3988  1.1146
  125MOL   H35447722   3.011   4.097   1.301 -1.8483 -3.0342 -0.3428
  125MOL   H35547723   3.180   4.078   1.243 -0.5209 -0.3034  0.4694
  125MOL   H35647724   3.107   3.979   1.038  0.7298  0.0425  0.8322
  125MOL   H35747725   2.931   4.005   1.080 -1.1334  1.4963  2.9037
  125MOL   H35847726   3.095   3.855   1.272 -1.5729  2.9349  1.5854
  125MOL   H35947727   2.924   3.836   1.240 -0.9780 -0.1599 -0.7826
  125MOL   H36047728   3.044   3.635   1.160 -0.8201  0.0501 -0.7022
  125MOL   H36147729   3.124   3.721   1.037 -0.6834 -0.8892 -1.3151
  125MOL   H36247730   2.953   3.714   1.030 -0.1113  0.0731 -0.1486
  125MOL   C36347731   2.948   4.436   1.154 -0.8057 -0.2201 -0.0340
  125MOL   C36447732   3.022   4.497   1.038 -0.6217  0.4939 -0.2550
  125MOL   O36547733   3.084   4.618   1.077 -0.1007 -0.0356  0.0579
  125MOL   C36647734   3.118   4.705   0.967  0.7274 -0.0247 -0.6719
  125MOL   C36747735   3.219   4.818   1.009  0.0642  0.3851 -0.6385
  125MOL   C36847736   3.269   4.889   0.885 -0.1295  0.0079  1.0795
  125MOL   C36947737   3.354   5.008   0.928 -0.1119  0.3480 -0.3861
  125MOL   H37047738   2.905   4.516   1.215  2.6732  0.2284  2.0249
  125MOL   H37147739   2.874   4.377   1.101 -0.2938 -0.0596 -0.9381
  125MOL   H37247740   2.949   4.515   0.959 -0.8973  0.4546 -0.0122
  125MOL   H37347741   3.023   4.748   0.936  0.9937  0.4850 -0.7972
  125MOL   H37447742   3.158   4.661   0.876 -2.2292 -1.0638 -1.5021
  125MOL   H37547743   3.296   4.777   1.073 -0.0914 -0.4845 -0.9917
  125MOL   H37647744   3.160   4.881   1.075 -0.1328 -1.1938  0.7300
  125MOL   H37747745   3.190   4.923   0.817  0.0549 -1.7681 -0.0246
  125MOL   H37847746   3.335   4.824   0.829 -0.7562  0.3392 -0.0686
  125MOL   H37947747   3.384   5.062   0.839 -2.6405 -1.7589 -2.6246
  125MOL   H38047748   3.293   5.080   0.983 -0.4746  1.1638 -1.8307
  125MOL   H38147749   3.446   4.979   0.979 -0.3104 -1.2790 -0.8975
  125MOL   H38247750   3.099   4.430   1.000  0.7184  2.1898 -0.5825
  126MOL     C147751   1.355   6.934   2.195  0.0415 -0.2054 -0.0430
  126MOL     C247752   1.488   6.917   2.109 -0.1150  0.3726 -0.1364
  126MOL     O347753   1.468   7.002   1.991 -0.2702 -0.0182  0.0640
  126MOL     C447754   1.424   6.940   1.867 -0.5010  0.2850 -0.3465
  126MOL     C547755   1.357   7.048   1.785  0.4504  0.0243 -0.0099
  126MOL     C647756   1.220   7.095   1.839  0.3751 -0.0302  0.4676
  126MOL     C747757   1.170   7.206   1.740 -0.3344 -0.4028 -0.0105
  126MOL     H847758   1.377   6.918   2.300 -1.8610  4.0846  1.0965
  126MOL     H947759   1.306   7.031   2.190 -2.3271 -1.3277  0.6358
  126MOL    H1047760   1.492   6.811   2.082 -0.2130  0.7711 -1.7231
  126MOL    H1147761   1.516   6.914   1.814 -2.0413  0.2146 -3.0769
  126MOL    H1247762   1.376   6.845   1.886  0.4057  0.2521  1.8926
  126MOL    H1347763   1.339   7.012   1.683 -0.4320 -1.4283  0.6399
  126MOL    H1447764   1.425   7.132   1.775  0.4811 -0.0218 -0.2023
  126MOL    H1547765   1.234   7.137   1.938 -1.9434 -0.0160  0.8251
  126MOL    H1647766   1.161   7.003   1.840 -0.1105  0.2755  0.1180
  126MOL    H1747767   1.133   7.161   1.648  0.0403  2.0649 -1.4290
  126MOL    H1847768   1.254   7.272   1.718  0.5869 -1.7441 -0.5063
  126MOL    H1947769   1.088   7.260   1.789 -0.8388 -2.7059  1.7897
  126MOL    H2047770   1.279   6.862   2.165 -0.0580  0.0317 -0.3655
  126MOL    C2147771   1.612   6.943   2.198 -0.1482  0.1967  0.9410
  126MOL    C2247772   1.744   6.954   2.121  0.2813 -0.4726 -0.3204
  126MOL    O2347773   1.834   7.026   2.213  0.3061  0.2772 -0.2362
  126MOL    C2447774   1.859   7.161   2.161 -0.0959 -0.1805  0.5393
  126MOL    C2547775   1.945   7.243   2.260  0.0098  0.7230 -0.4731
  126MOL    C2647776   1.885   7.281   2.402 -0.0671  0.2530 -0.3294
  126MOL    C2747777   1.987   7.353   2.489 -0.5137  0.1351  0.2584
  126MOL    H2847778   1.610   6.864   2.273 -2.3474 -0.0345  0.6649
  126MOL    H2947779   1.586   7.040   2.241 -2.1185  0.0264  0.2047
  126MOL    H3047780   1.725   7.009   2.029  1.7851  1.1431  0.3030
  126MOL    H3147781   1.769   7.220   2.146  0.2036 -0.3199 -1.9035
  126MOL    H3247782   1.913   7.143   2.068  0.8787 -0.4199  1.1366
  126MOL    H3347783   2.047   7.203   2.262  0.5636  2.1168 -0.0516
  126MOL    H3447784   1.969   7.339   2.215 -0.5624  1.4558  0.7844
  126MOL    H3547785   1.800   7.344   2.378  0.3078  0.4109 -1.2740
  126MOL    H3647786   1.850   7.192   2.455  1.7049  0.3227  1.0093
  126MOL    H3747787   2.081   7.299   2.501  0.4135  1.7712  0.4558
  126MOL    H3847788   2.011   7.454   2.454  1.6351 -1.3551 -2.7857
  126MOL    H3947789   1.952   7.359   2.592  0.5119  3.7275  0.4515
  126MOL    C4047790   1.815   6.823   2.079 -0.0878 -0.9047 -0.2593
  126MOL    C4147791   1.931   6.846   1.982 -0.4057  0.2083  0.2177
  126MOL    O4247792   1.860   6.852   1.853 -0.2917 -0.5826  0.2225
  126MOL    C4347793   1.925   6.911   1.741  0.0055 -0.8913 -0.4025
  126MOL    C4447794   1.828   6.956   1.632  0.3195 -0.0155 -0.2555
  126MOL    C4547795   1.751   7.081   1.673 -0.4816 -0.3865  0.7874
  126MOL    C4647796   1.662   7.138   1.565  0.5737  0.2127 -0.5753
  126MOL    H4747797   1.741   6.757   2.033 -0.5429 -2.1898  2.1960
  126MOL    H4847798   1.843   6.769   2.170 -0.2247 -0.1327  0.2489
  126MOL    H4947799   1.987   6.940   1.986 -0.4411  0.3816 -2.4250
  126MOL    H5047800   1.991   6.834   1.700  0.9889  0.0336 -0.5540
  126MOL    H5147801   1.993   6.994   1.757  0.5059 -1.3692 -0.0043
  126MOL    H5247802   1.760   6.872   1.614 -1.3818  1.1425  0.5869
  126MOL    H5347803   1.881   6.972   1.539 -0.1328 -0.3599 -0.5756
  126MOL    H5447804   1.817   7.164   1.698  0.6768 -1.0077 -0.1598
  126MOL    H5547805   1.694   7.058   1.763 -1.2647 -0.9340  0.1616
  126MOL    H5647806   1.565   7.088   1.571  0.2427  1.2224  3.3436
  126MOL    H5747807   1.644   7.243   1.584 -2.8467 -0.4438  0.1833
  126MOL    H5847808   1.707   7.116   1.467  1.8074  1.4924 -0.3063
  126MOL    C5947809   2.028   6.733   1.981 -0.7787  0.9965 -0.8193
  126MOL    C6047810   2.105   6.697   2.108 -0.2760  0.7203 -0.3605
  126MOL    O6147811   2.219   6.622   2.078 -0.8830 -0.0048  0.2485
  126MOL    C6247812   2.199   6.493   2.033  0.2147 -0.0203  0.0387
  126MOL    C6347813   2.329   6.410   2.029 -0.0292  0.2403  0.2518
  126MOL    C6447814   2.305   6.261   2.011  0.6616  0.0667 -0.5883
  126MOL    C6547815   2.432   6.174   2.012 -0.6262 -0.2380 -0.0846
  126MOL    H6647816   1.979   6.639   1.955  0.9279 -0.5759  1.4424
  126MOL    H6747817   2.102   6.733   1.902 -1.6246 -2.2323 -1.6723
  126MOL    H6847818   2.044   6.631   2.171 -0.6598 -0.8030 -2.2684
  126MOL    H6947819   2.165   6.510   1.931  3.3468 -0.4899 -1.1213
  126MOL    H7047820   2.122   6.440   2.090  0.0164  0.4254  0.1907
  126MOL    H7147821   2.401   6.456   1.960  0.4593  0.1906  0.7221
  126MOL    H7247822   2.364   6.422   2.131 -0.2600 -1.1631  0.5036
  126MOL    H7347823   2.233   6.225   2.085  0.5345  1.0891 -0.1971
  126MOL    H7447824   2.267   6.252   1.910 -1.7243 -0.8954  0.3417
  126MOL    H7547825   2.513   6.224   1.960  1.6958 -1.4927  2.2142
  126MOL    H7647826   2.468   6.166   2.115  1.1917  1.8338 -0.5206
  126MOL    H7747827   2.418   6.078   1.962 -1.0399 -0.1674 -0.1091
  126MOL    C7847828   2.130   6.815   2.206  0.0169  0.5051  0.4223
  126MOL    C7947829   2.160   6.759   2.349 -0.0406  0.1420 -0.4813
  126MOL    O8047830   2.167   6.867   2.436  0.1640  0.1101  0.0245
  126MOL    C8147831   2.053   6.891   2.509 -0.0339 -0.4299  0.3614
  126MOL    C8247832   2.095   7.008   2.594  0.0670  0.0171  0.1792
  126MOL    C8347833   2.148   6.959   2.732 -0.1932  0.2025 -0.4365
  126MOL    C8447834   2.186   7.071   2.828  0.6902  0.6983  0.4103
  126MOL    H8547835   2.039   6.873   2.223 -2.4492 -2.5048 -1.7975
  126MOL    H8647836   2.205   6.882   2.165  1.1963 -0.3902  1.0710
  126MOL    H8747837   2.081   6.687   2.366 -0.4920  0.8678  0.6078
  126MOL    H8847838   2.001   6.803   2.547 -2.2936 -0.0600 -1.7205
  126MOL    H8947839   1.985   6.944   2.442 -0.6357  0.3790  1.5842
  126MOL    H9047840   2.174   7.063   2.544  0.3475  0.9935  1.6806
  126MOL    H9147841   2.005   7.069   2.605 -0.4239 -0.7321  0.3487
  126MOL    H9247842   2.235   6.897   2.707 -0.1844 -0.4761  1.2189
  126MOL    H9347843   2.085   6.889   2.787  1.3602  0.4746  1.7634
  126MOL    H9447844   2.099   7.123   2.868 -0.2189 -0.7743  0.3871
  126MOL    H9547845   2.241   7.041   2.917  0.2959 -0.1085  0.3896
  126MOL    H9647846   2.255   7.144   2.787  1.4524 -1.3819 -2.1468
  126MOL    C9747847   2.296   6.685   2.368  0.3199  0.7568 -0.5921
  126MOL    C9847848   2.299   6.598   2.498  0.4991 -0.3554 -0.0649
  126MOL    O9947849   2.333   6.463   2.460 -0.2651 -0.4367 -0.0399
  126MOL   C10047850   2.238   6.371   2.423 -0.2430 -0.2230  0.1908
  126MOL   C10147851   2.318   6.241   2.401  0.0281 -0.1953  0.1718
  126MOL   C10247852   2.359   6.179   2.537 -0.0436 -0.0019 -0.4729
  126MOL   C10347853   2.455   6.062   2.520  0.6592 -0.2943  0.4277
  126MOL   H10447854   2.379   6.755   2.357  0.0971  1.6418  2.7014
  126MOL   H10547855   2.320   6.613   2.289 -0.7969  1.2073 -1.3490
  126MOL   H10647856   2.206   6.595   2.555  0.4307 -0.3708 -0.1758
  126MOL   H10747857   2.196   6.402   2.328  0.6058 -0.8247 -0.3935
  126MOL   H10847858   2.166   6.355   2.503  0.0798  0.0720  0.5414
  126MOL   H10947859   2.410   6.254   2.344  0.7959 -0.4444  1.3310
  126MOL   H11047860   2.267   6.168   2.338  0.2892 -0.1816 -0.0545
  126MOL   H11147861   2.272   6.152   2.596  1.4252  1.8823  2.7509
  126MOL   H11247862   2.416   6.243   2.605 -0.5594 -0.1322  0.0821
  126MOL   H11347863   2.465   6.015   2.618 -1.2108 -0.2786  0.6514
  126MOL   H11447864   2.409   5.983   2.461  0.3243 -0.9182  1.4925
  126MOL   H11547865   2.545   6.089   2.465 -0.9490 -0.7526 -2.5486
  126MOL   C11647866   2.415   6.633   2.598 -0.4654 -0.4259 -0.4984
  126MOL   C11747867   2.399   6.565   2.736  0.5706  0.0125  0.0906
  126MOL   O11847868   2.511   6.584   2.816  0.1390 -0.0358  0.7421
  126MOL   C11947869   2.595   6.465   2.812 -0.4459 -0.5940  0.1025
  126MOL   C12047870   2.720   6.513   2.883 -0.4275 -0.0990 -0.7180
  126MOL   C12147871   2.839   6.412   2.867  0.5605  0.2663  0.4712
  126MOL   C12247872   2.962   6.452   2.951  0.1315  0.2207  0.3148
  126MOL   H12347873   2.510   6.616   2.548  0.4109  1.7914  0.3892
  126MOL   H12447874   2.419   6.740   2.615  3.7775 -0.3265 -1.7030
  126MOL   H12547875   2.392   6.458   2.717  0.3602 -0.0105  0.2969
  126MOL   H12647876   2.624   6.442   2.709  1.9654 -0.6981  0.7588
  126MOL   H12747877   2.538   6.387   2.862 -1.0822  0.0140  0.3272
  126MOL   H12847878   2.700   6.522   2.990  2.2771 -0.2244 -0.1685
  126MOL   H12947879   2.749   6.612   2.848  1.4220  0.2747  1.6872
  126MOL   H13047880   2.804   6.312   2.893 -3.8322  1.8269  0.9678
  126MOL   H13147881   2.863   6.422   2.761 -2.2675 -0.0856 -0.2383
  126MOL   H13247882   3.045   6.402   2.902  0.0857 -1.2511  1.7053
  126MOL   H13347883   2.956   6.417   3.054  0.3307  1.7955  0.8782
  126MOL   H13447884   2.979   6.560   2.952 -2.5273  0.6777  0.3951
  126MOL   C13547885   2.283   6.604   2.832  0.5079  0.3598 -0.2017
  126MOL   C13647886   2.273   6.500   2.951  0.1657 -0.3813  0.6659
  126MOL   O13747887   2.200   6.541   3.066 -0.0262  0.1556 -0.0249
  126MOL   C13847888   2.273   6.627   3.148 -0.7957  0.3036 -0.2787
  126MOL   C13947889   2.189   6.655   3.271  0.3328 -0.7870  0.4362
  126MOL   C14047890   2.255   6.727   3.391 -0.9701 -0.0257  0.5070
  126MOL   C14147891   2.356   6.629   3.448  0.5339 -0.6508  0.0511
  126MOL   H14247892   2.187   6.601   2.780  0.7734  1.5530 -0.7955
  126MOL   H14347893   2.286   6.709   2.864 -1.5745 -0.2243  2.0302
  126MOL   H14447894   2.377   6.482   2.979  0.3821 -0.8215 -0.4045
  126MOL   H14547895   2.301   6.714   3.089 -2.9638  1.6622  0.6299
  126MOL   H14647896   2.373   6.593   3.175 -1.2444  1.2981  2.8260
  126MOL   H14747897   2.147   6.558   3.298 -0.2272 -0.4279  0.8710
  126MOL   H14847898   2.103   6.717   3.245  0.7997 -0.1337  0.4353
  126MOL   H14947899   2.303   6.821   3.363  0.5457 -1.5115 -2.1468
  126MOL   H15047900   2.177   6.745   3.465 -1.0956 -2.9923  1.1345
  126MOL   H15147901   2.316   6.531   3.474  1.5509 -1.2417 -0.6034
  126MOL   H15247902   2.437   6.617   3.377  1.0698 -1.4149  0.7817
  126MOL   H15347903   2.395   6.664   3.544  1.0907 -1.1697  0.0104
  126MOL   C15447904   2.209   6.366   2.901  0.0781  0.1656 -0.0203
  126MOL   C15547905   2.181   6.275   3.022  0.4050 -0.0355 -0.6713
  126MOL   O15647906   2.306   6.208   3.039  0.0842 -0.0629 -0.1758
  126MOL   C15747907   2.346   6.167   3.166  0.9368 -0.8687  0.6381
  126MOL   C15847908   2.474   6.085   3.159 -0.2328  0.0460 -0.8272
  126MOL   C15947909   2.588   6.149   3.075 -0.7041 -0.2063  0.4036
  126MOL   C16047910   2.701   6.050   3.040 -0.4681  0.4232  0.6773
  126MOL   H16147911   2.277   6.309   2.837 -0.0064  1.4570 -1.2739
  126MOL   H16247912   2.119   6.385   2.844  0.0230  0.1918  0.0754
  126MOL   H16347913   2.157   6.333   3.111 -0.2700 -0.2104 -0.7318
  126MOL   H16447914   2.365   6.261   3.219  1.9076  0.8479 -2.6014
  126MOL   H16547915   2.261   6.112   3.206  0.3801  0.4519  1.3127
  126MOL   H16647916   2.453   5.989   3.112  0.8170 -1.5827  1.9092
  126MOL   H16747917   2.508   6.063   3.260  0.0519  1.6239 -0.5725
  126MOL   H16847918   2.549   6.192   2.983 -3.1845  0.3237  1.6695
  126MOL   H16947919   2.628   6.237   3.124  0.1265  0.0046 -0.6372
  126MOL   H17047920   2.658   5.977   2.972  0.2763 -0.3430  1.0259
  126MOL   H17147921   2.783   6.085   2.978  1.0221 -2.0452  1.2219
  126MOL   H17247922   2.740   6.004   3.130 -1.6527  0.1026  1.0367
  126MOL   C17347923   2.068   6.176   2.983  0.3422  0.1506 -0.6350
  126MOL   C17447924   1.931   6.210   3.038  0.1861  0.1124 -0.8272
  126MOL   O17547925   1.884   6.329   2.969  0.5179 -0.1722 -0.0175
  126MOL   C17647926   1.836   6.425   3.063 -0.4623  0.3035 -0.0229
  126MOL   C17747927   1.774   6.542   2.989 -0.1412  0.6140 -0.0551
  126MOL   C17847928   1.643   6.508   2.920  0.2787 -0.2130  0.4475
  126MOL   C17947929   1.520   6.515   3.008  0.4773 -0.0844  0.0991
  126MOL   H18047930   2.099   6.080   3.025 -0.7566 -0.5964 -1.4793
  126MOL   H18147931   2.066   6.150   2.877 -1.3588  1.8962 -1.0576
  126MOL   H18247932   1.927   6.229   3.145 -1.4730 -0.5677 -0.7597
  126MOL   H18347933   1.929   6.454   3.110  0.3729  1.1737 -2.1535
  126MOL   H18447934   1.758   6.398   3.134  0.2529 -1.3198  0.1559
  126MOL   H18547935   1.843   6.589   2.919 -1.1695  0.6102 -1.0948
  126MOL   H18647936   1.748   6.627   3.052 -0.6975  0.6067 -0.2734
  126MOL   H18747937   1.627   6.566   2.829 -3.0484 -0.4593  0.8241
  126MOL   H18847938   1.656   6.413   2.868  0.9263  2.6027 -4.8988
  126MOL   H18947939   1.435   6.507   2.939  0.2384 -0.9774  0.4943
  126MOL   H19047940   1.512   6.430   3.075 -1.1836  0.9066  1.1917
  126MOL   H19147941   1.504   6.605   3.067  0.0441 -1.1327  1.6086
  126MOL   C19247942   1.831   6.098   2.999  0.7392  0.1222 -0.0985
  126MOL   C19347943   1.684   6.130   3.032 -0.2224 -0.4569  0.3195
  126MOL   O19447944   1.612   6.044   2.952 -0.3667 -0.5624  0.2943
  126MOL   C19547945   1.595   6.085   2.817  0.4351 -0.1937 -0.7043
  126MOL   C19647946   1.482   5.993   2.763 -0.0588  0.3185 -0.1057
  126MOL   C19747947   1.456   6.011   2.612  0.4633  0.3808  0.7855
  126MOL   C19847948   1.353   5.914   2.553 -0.7258  0.5771 -0.9238
  126MOL   H19947949   1.846   5.999   3.042 -0.3868 -1.2645 -2.7650
  126MOL   H20047950   1.841   6.070   2.894 -0.1850  1.5788 -0.5896
  126MOL   H20147951   1.655   6.233   3.012  0.1381 -0.4001  0.0936
  126MOL   H20247952   1.691   6.071   2.767  1.6367  0.8495  1.2372
  126MOL   H20347953   1.562   6.189   2.820  0.3213 -0.2759  1.4536
  126MOL   H20447954   1.526   5.895   2.781  1.8863  1.5222  2.1505
  126MOL   H20547955   1.400   5.999   2.835  0.7190  1.8963  0.6872
  126MOL   H20647956   1.546   5.987   2.554  0.6815 -0.9638  1.6471
  126MOL   H20747957   1.424   6.112   2.585  2.1863  1.4690  2.6377
  126MOL   H20847958   1.253   5.915   2.597 -0.1196 -0.9828  0.5508
  126MOL   H20947959   1.336   5.931   2.447 -1.8602 -1.1270 -1.0328
  126MOL   H21047960   1.382   5.809   2.558  0.6987  0.9507 -1.0830
  126MOL   C21147961   1.661   6.095   3.177  0.3551  0.6082  0.0561
  126MOL   C21247962   1.523   6.117   3.246  0.4333  0.2275  0.6020
  126MOL   O21347963   1.499   6.254   3.264  0.4624 -0.0082 -0.0708
  126MOL   C21447964   1.515   6.306   3.392 -0.5857 -0.0772  0.1508
  126MOL   C21547965   1.486   6.459   3.383 -0.4650  0.5090 -0.1966
  126MOL   C21647966   1.337   6.472   3.366 -0.7630 -0.2523  0.1941
  126MOL   C21747967   1.296   6.613   3.335 -0.5948  0.3425  0.5244
  126MOL   H21847968   1.738   6.140   3.239 -0.3625  1.7522  0.1343
  126MOL   H21947969   1.676   5.987   3.182 -0.0990  0.5034 -0.7357
  126MOL   H22047970   1.536   6.068   3.342 -1.8197 -1.4383  0.0872
  126MOL   H22147971   1.466   6.256   3.476 -0.6744 -0.3790 -0.0812
  126MOL   H22247972   1.622   6.286   3.401 -0.8562 -1.4535  0.3888
  126MOL   H22347973   1.517   6.511   3.474  1.0596 -1.3230  0.3389
  126MOL   H22447974   1.543   6.503   3.301 -1.5369 -0.0166 -1.2338
  126MOL   H22547975   1.295   6.445   3.464  0.9571  1.0436  1.3248
  126MOL   H22647976   1.295   6.408   3.289  0.6208 -0.5956 -0.2860
  126MOL   H22747977   1.335   6.686   3.406 -1.6285  1.4663 -0.0502
  126MOL   H22847978   1.191   6.640   3.336 -0.7232 -0.0878 -0.8358
  126MOL   H22947979   1.324   6.648   3.236 -0.8989 -0.5339  0.1277
  126MOL   C23047980   1.399   6.041   3.191 -0.7384  0.1012  0.4741
  126MOL   C23147981   1.265   6.071   3.270 -0.7129  0.3074 -0.0411
  126MOL   O23247982   1.160   6.035   3.184  0.3378 -0.3487 -0.2613
  126MOL   C23347983   1.112   6.136   3.093  0.3067 -0.4810  0.2527
  126MOL   C23447984   0.994   6.071   3.020 -0.2147  0.1427  0.1836
  126MOL   C23547985   1.025   5.946   2.937 -0.2167  0.2023  0.2319
  126MOL   C23647986   0.925   5.896   2.836 -0.0713 -0.0893 -0.0768
  126MOL   H23747987   1.426   5.935   3.182  0.9954  0.5955 -0.2494
  126MOL   H23847988   1.371   6.073   3.091 -0.8670 -0.7804  0.2163
  126MOL   H23947989   1.266   6.172   3.312  1.5670  0.6105 -0.7502
  126MOL   H24047990   1.069   6.218   3.150  0.2121  0.5278 -1.2396
  126MOL   H24147991   1.192   6.162   3.024 -0.1954  1.0038  0.2128
  126MOL   H24247992   0.921   6.050   3.097 -1.1792 -1.7222 -1.2127
  126MOL   H24347993   0.953   6.144   2.950 -1.7739  0.4991  1.4344
  126MOL   H24447994   1.040   5.865   3.008 -1.9125  0.9708  1.5253
  126MOL   H24547995   1.119   5.956   2.884 -0.8939 -0.8047 -1.1992
  126MOL   H24647996   0.953   5.797   2.801 -0.3793 -0.3162  0.3089
  126MOL   H24747997   0.924   5.965   2.751  0.9895 -2.0854 -1.7436
  126MOL   H24847998   0.828   5.886   2.885  0.3424 -1.1292  0.5324
  126MOL   C24947999   1.267   5.974   3.389 -0.6341 -0.8186 -0.5558
  126MOL   C25048000   1.135   5.985   3.469  0.6518  0.7360  0.1263
  126MOL   O25148001   1.116   6.119   3.516  0.1839 -0.0457  0.2847
  126MOL   C25248002   0.992   6.181   3.479  0.1189  0.0255 -0.5576
  126MOL   C25348003   0.994   6.335   3.493  0.0996  0.5854 -0.0054
  126MOL   C25448004   0.985   6.370   3.645 -0.2570 -0.1581  0.4555
  126MOL   C25548005   0.958   6.519   3.660  0.8272 -0.5555  0.0742
  126MOL   H25648006   1.349   5.992   3.459 -1.2752 -0.4520  0.1128
  126MOL   H25748007   1.277   5.871   3.356  1.1810 -1.1583  1.0036
  126MOL   H25848008   1.050   5.958   3.407 -0.6247  3.3704  0.6683
  126MOL   H25948009   0.906   6.146   3.537  0.2409 -1.2137 -1.1107
  126MOL   H26048010   0.976   6.150   3.375  0.7069 -0.4434 -0.5137
  126MOL   H26148011   1.076   6.376   3.435  1.1063  0.2023  1.1252
  126MOL   H26248012   0.904   6.368   3.442 -0.1849 -0.2107 -0.0263
  126MOL   H26348013   0.904   6.310   3.686  0.0960 -1.0865 -0.2186
  126MOL   H26448014   1.080   6.347   3.694 -0.6215 -2.1176  0.2609
  126MOL   H26548015   0.858   6.545   3.625  1.3821 -0.6956 -1.6548
  126MOL   H26648016   1.031   6.580   3.608 -2.0567  0.9351 -2.3771
  126MOL   H26748017   0.960   6.539   3.767 -2.1298 -1.7684  0.3996
  126MOL   C26848018   1.135   5.899   3.593  0.3219  0.1506  0.1689
  126MOL   C26948019   0.999   5.882   3.667 -0.6269 -0.6024 -0.1808
  126MOL   O27048020   0.893   5.815   3.592  0.0855  0.6396  0.4008
  126MOL   C27148021   0.753   5.848   3.621  0.2820 -0.0158 -0.1543
  126MOL   C27248022   0.665   5.738   3.544  0.6924 -0.3560 -0.4531
  126MOL   C27348023   0.686   5.749   3.387  0.2630 -0.3721  1.3127
  126MOL   C27448024   0.559   5.705   3.311 -0.5278 -0.2861 -0.0175
  126MOL   H27548025   1.176   5.800   3.573  0.7830  0.0228  1.7155
  126MOL   H27648026   1.208   5.949   3.656  0.7990  0.9027 -0.9655
  126MOL   H27748027   0.967   5.984   3.689 -1.4328 -1.0533  0.8306
  126MOL   H27848028   0.722   5.844   3.726 -0.7038 -1.2984 -0.4791
  126MOL   H27948029   0.736   5.945   3.575  0.5836  0.5963  1.0142
  126MOL   H28048030   0.683   5.635   3.576 -0.0684 -0.1470  0.6981
  126MOL   H28148031   0.562   5.767   3.567  0.8424 -0.7452  0.7986
  126MOL   H28248032   0.777   5.698   3.356 -0.5741 -2.3132  1.9498
  126MOL   H28348033   0.711   5.851   3.357 -0.7163 -0.0507  1.5823
  126MOL   H28448034   0.485   5.784   3.320  1.4996  1.9917 -2.5458
  126MOL   H28548035   0.525   5.614   3.362  2.0233 -0.2970  1.7368
  126MOL   H28648036   0.573   5.680   3.206 -1.0754 -0.9742  0.0703
  126MOL   C28748037   1.011   5.788   3.791  0.5315  0.3821 -0.3084
  126MOL   C28848038   1.094   5.842   3.910 -0.6579  0.1479 -0.6319
  126MOL   O28948039   1.225   5.814   3.865  0.3907 -0.4394 -0.3310
  126MOL   C29048040   1.321   5.894   3.926  0.0688  0.1806 -0.3658
  126MOL   C29148041   1.466   5.849   3.896 -0.3527 -0.1491  0.5581
  126MOL   C29248042   1.528   5.743   3.985  0.0500  0.3098  0.0575
  126MOL   C29348043   1.674   5.704   3.945 -0.2305 -0.2665 -0.0438
  126MOL   H29448044   1.038   5.687   3.760  2.2854  1.2838 -1.8436
  126MOL   H29548045   0.911   5.786   3.834  0.0365 -2.1713 -1.4743
  126MOL   H29648046   1.087   5.950   3.911  0.8369  0.2691 -1.7380
  126MOL   H29748047   1.315   5.998   3.893  1.7698  0.3338 -0.2689
  126MOL   H29848048   1.313   5.888   4.035 -0.4645 -0.0293 -0.4169
  126MOL   H29948049   1.532   5.936   3.897 -0.3027 -0.1300 -2.4515
  126MOL   H30048050   1.454   5.805   3.797  2.6348  1.5131 -0.5813
  126MOL   H30148051   1.467   5.653   3.989  3.8783 -2.3897  0.2551
  126MOL   H30248052   1.535   5.783   4.086 -0.6470 -0.8942  0.5888
  126MOL   H30348053   1.680   5.645   3.854  1.2911  0.1430 -0.2235
  126MOL   H30448054   1.739   5.790   3.929  1.5859 -1.5162  0.4463
  126MOL   H30548055   1.726   5.646   4.021 -1.8150 -0.2331  1.0824
  126MOL   C30648056   1.057   5.776   4.046  0.4536 -0.5818  0.5615
  126MOL   C30748057   0.936   5.837   4.117  0.1901 -0.8888 -0.1510
  126MOL   O30848058   0.960   5.964   4.174  0.3453 -0.0935 -0.1782
  126MOL   C30948059   1.037   5.976   4.298  0.1427  0.3424 -0.1744
  126MOL   C31048060   1.062   6.120   4.352 -0.1041  0.0983  0.1659
  126MOL   C31148061   1.112   6.123   4.502 -0.7066 -0.1739 -0.0427
  126MOL   C31248062   1.142   6.262   4.562 -0.1848 -1.1654  0.1567
  126MOL   H31348063   1.046   5.668   4.036  0.6540 -0.4635 -1.0530
  126MOL   H31448064   1.147   5.782   4.107  1.1432 -2.0862 -0.2903
  126MOL   H31548065   0.860   5.865   4.044  0.7932  1.5757  0.1049
  126MOL   H31648066   1.132   5.925   4.280 -0.8695 -0.6175 -2.9107
  126MOL   H31748067   0.985   5.911   4.368  1.2495  0.7049  1.0074
  126MOL   H31848068   0.965   6.169   4.339  0.3780  0.8405 -0.6950
  126MOL   H31948069   1.128   6.177   4.286 -0.6782  0.8263  0.2183
  126MOL   H32048070   1.044   6.072   4.571 -1.8318  1.1730 -0.1388
  126MOL   H32148071   1.199   6.058   4.494 -1.8040 -1.9854  2.0719
  126MOL   H32248072   1.218   6.310   4.501 -1.5456 -1.7996 -2.1018
  126MOL   H32348073   1.178   6.261   4.665  1.9401 -0.6291 -0.5544
  126MOL   H32448074   1.058   6.331   4.555  0.1097 -0.9250 -1.2139
  126MOL   C32548075   0.864   5.737   4.218  0.0156 -0.7229 -0.0269
  126MOL   C32648076   0.744   5.801   4.296  0.5931 -0.7253 -0.4175
  126MOL   O32748077   0.661   5.848   4.191 -0.5093 -0.3941 -0.0076
  126MOL   C32848078   0.623   5.982   4.202  0.6017 -0.5230 -0.8575
  126MOL   C32948079   0.546   6.037   4.081  0.2115  0.0717 -0.3554
  126MOL   C33048080   0.635   6.033   3.954  0.3653 -0.4890 -0.0408
  126MOL   C33148081   0.733   6.154   3.934 -0.2339  0.3684  0.0633
  126MOL   H33248082   0.941   5.707   4.290 -1.2483 -2.4990  0.6285
  126MOL   H33348083   0.827   5.647   4.168 -1.3069  0.1319 -0.6104
  126MOL   H33448084   0.767   5.881   4.366 -0.0554 -2.1995  1.5138
  126MOL   H33548085   0.706   6.049   4.223  2.5140 -2.6636 -1.3400
  126MOL   H33648086   0.550   5.985   4.283  1.1689  1.8769 -0.4120
  126MOL   H33748087   0.455   5.978   4.073  1.7162 -2.3555  0.0485
  126MOL   H33848088   0.527   6.142   4.103 -1.1651  0.0931 -1.6135
  126MOL   H33948089   0.564   6.034   3.871 -0.1765 -0.4554  0.4225
  126MOL   H34048090   0.685   5.937   3.945 -1.5400 -1.4076 -1.1158
  126MOL   H34148091   0.690   6.250   3.959 -0.1635 -0.0408  1.8179
  126MOL   H34248092   0.749   6.146   3.827 -0.1183 -0.3717  0.1322
  126MOL   H34348093   0.832   6.147   3.981 -1.1397 -1.2631  1.8348
  126MOL   C34448094   0.685   5.689   4.378 -0.2289 -0.2237  0.4114
  126MOL   C34548095   0.554   5.718   4.458 -0.0789  0.3822 -0.0082
  126MOL   O34648096   0.579   5.831   4.538 -0.4871 -0.1835  0.3224
  126MOL   C34748097   0.462   5.911   4.568 -0.0144  0.2734  0.0140
  126MOL   C34848098   0.499   6.047   4.632  0.1727  0.0613 -0.1364
  126MOL   C34948099   0.581   6.147   4.553 -0.1748  0.0441  0.6474
  126MOL   C35048100   0.599   6.284   4.618  0.3915 -0.5790 -0.1261
  126MOL   H35148101   0.679   5.593   4.327  2.6977 -0.8756  1.2121
  126MOL   H35248102   0.746   5.672   4.467 -2.1117 -0.7472  1.6496
  126MOL   H35348103   0.478   5.732   4.381 -0.6864 -1.2583  0.2871
  126MOL   H35448104   0.413   5.847   4.642 -0.6519  0.4486 -0.2562
  126MOL   H35548105   0.410   5.937   4.476 -0.2345 -1.0780 -0.2517
  126MOL   H35648106   0.547   6.024   4.727 -2.0172 -0.4912  0.8880
  126MOL   H35748107   0.405   6.099   4.654 -0.3818 -0.3622 -1.4253
  126MOL   H35848108   0.681   6.117   4.523 -0.8016 -0.1620 -1.2939
  126MOL   H35948109   0.521   6.162   4.463  0.1224 -0.5502  0.3469
  126MOL   H36048110   0.636   6.364   4.555  1.3681  0.8652  2.2354
  126MOL   H36148111   0.660   6.286   4.708 -0.6294  0.7026  0.5583
  126MOL   H36248112   0.504   6.329   4.648  1.2380  0.5678  0.8446
  126MOL   C36348113   0.513   5.601   4.553 -0.1068 -0.1289  1.1507
  126MOL   C36448114   0.472   5.478   4.480 -0.1755  0.1976 -0.2281
  126MOL   O36548115   0.374   5.400   4.547  0.6497 -0.2919 -0.4347
  126MOL   C36648116   0.331   5.288   4.470  0.4121 -0.7922  0.3400
  126MOL   C36748117   0.245   5.197   4.556  0.8112  0.3264 -0.2566
  126MOL   C36848118   0.255   5.053   4.518 -0.1073  1.3677 -0.3933
  126MOL   C36948119   0.150   4.954   4.572 -0.3496 -0.3734  0.0107
  126MOL   H37048120   0.427   5.631   4.613 -0.2620  0.4385  0.6481
  126MOL   H37148121   0.594   5.571   4.620  1.3294  1.3937  0.1324
  126MOL   H37248122   0.554   5.410   4.458 -1.8173 -1.6426 -0.7636
  126MOL   H37348123   0.422   5.231   4.456  0.2778 -1.5759  2.4638
  126MOL   H37448124   0.279   5.310   4.377  2.4293 -0.0216 -0.6147
  126MOL   H37548125   0.141   5.227   4.552  0.8468  0.5418  0.4474
  126MOL   H37648126   0.277   5.206   4.660 -0.8386 -1.6085  0.4617
  126MOL   H37748127   0.349   5.009   4.552 -1.1951 -1.3078 -0.6680
  126MOL   H37848128   0.250   5.040   4.410 -2.8157 -0.3545 -0.1203
  126MOL   H37948129   0.056   4.992   4.532  1.5100  4.1724 -0.4486
  126MOL   H38048130   0.168   4.860   4.521  0.1828  0.1047 -0.7001
  126MOL   H38148131   0.158   4.938   4.679  0.4010 -0.1230 -0.0065
  126MOL   H38248132   0.439   5.511   4.381  1.3050 -1.6578 -1.3795
  127MOL     C148133   4.453   1.376   2.226  0.2294  0.3911  0.6121
  127MOL     C248134   4.470   1.433   2.371  0.1440  0.7744  0.5262
  127MOL     O348135   4.606   1.458   2.382  0.0757  0.8678  0.4054
  127MOL     C448136   4.644   1.435   2.521  0.1221 -1.0852 -0.1194
  127MOL     C548137   4.798   1.469   2.536  0.1264 -0.1185 -0.0019
  127MOL     C648138   4.841   1.623   2.521  0.1586  0.2280  1.2915
  127MOL     C748139   4.783   1.704   2.636  0.9444 -0.3451 -0.3114
  127MOL     H848140   4.540   1.316   2.197  0.3535  0.2484  1.2798
  127MOL     H948141   4.371   1.304   2.217 -0.7359  1.4460  0.8091
  127MOL    H1048142   4.430   1.356   2.436 -1.5992  0.7527 -0.5142
  127MOL    H1148143   4.579   1.481   2.596  0.4034 -0.3919 -0.3024
  127MOL    H1248144   4.637   1.327   2.537  0.5057 -1.2592 -1.1072
  127MOL    H1348145   4.858   1.419   2.460  0.7945  1.1843 -0.3400
  127MOL    H1448146   4.831   1.423   2.629 -3.2995 -0.3418  1.1988
  127MOL    H1548147   4.819   1.658   2.421 -1.9784 -1.5944  1.0810
  127MOL    H1648148   4.948   1.631   2.542  0.3488 -1.7534  1.2459
  127MOL    H1748149   4.796   1.811   2.621  0.8669  0.0187  2.0127
  127MOL    H1848150   4.825   1.657   2.726 -1.3972 -0.5163  0.7125
  127MOL    H1948151   4.676   1.683   2.632  0.4922  1.7004  0.6386
  127MOL    H2048152   4.445   1.449   2.146  2.0361  1.0569  1.0147
  127MOL    C2148153   4.394   1.564   2.396 -0.1392  0.3679  0.1296
  127MOL    C2248154   4.250   1.553   2.348 -0.3187  0.1355 -0.6890
  127MOL    O2348155   4.192   1.458   2.440  0.2565 -0.7927  0.4958
  127MOL    C2448156   4.091   1.373   2.381 -0.3901  0.0863 -0.2178
  127MOL    C2548157   4.037   1.270   2.481 -0.2795  0.8380  0.5777
  127MOL    C2648158   4.141   1.159   2.521 -0.2204 -0.2377  0.2571
  127MOL    C2748159   4.114   1.087   2.657 -0.0385 -0.5361 -0.2794
  127MOL    H2848160   4.448   1.649   2.354  1.6510 -0.1260  1.3929
  127MOL    H2948161   4.388   1.587   2.502  0.7847 -0.3463  0.3335
  127MOL    H3048162   4.232   1.531   2.243  0.9684 -1.7054 -0.5441
  127MOL    H3148163   4.136   1.315   2.301  1.4497 -0.5187  1.2327
  127MOL    H3248164   4.008   1.430   2.339 -0.3306 -0.9273 -1.7284
  127MOL    H3348165   4.013   1.324   2.572 -0.3737  0.5158  0.7465
  127MOL    H3448166   3.947   1.216   2.453  0.4476 -0.5246  0.8211
  127MOL    H3548167   4.153   1.089   2.438  0.2299  0.3191 -0.1502
  127MOL    H3648168   4.238   1.207   2.531  0.0351 -0.9824  1.4393
  127MOL    H3748169   4.023   1.027   2.664 -0.0318 -0.2781  2.6885
  127MOL    H3848170   4.201   1.024   2.673  0.5550  0.1019 -0.9591
  127MOL    H3948171   4.129   1.153   2.743  1.5213  1.6645 -2.1552
  127MOL    C4048172   4.184   1.684   2.385  0.1652 -0.1856  0.1880
  127MOL    C4148173   4.226   1.813   2.329 -0.4632  0.2226 -0.0754
  127MOL    O4248174   4.122   1.909   2.345 -0.6131 -0.9450 -0.3168
  127MOL    C4348175   4.148   2.031   2.422  0.1191  0.0348 -0.0574
  127MOL    C4448176   4.071   2.032   2.558  1.0256 -0.0994  0.6503
  127MOL    C4548177   4.081   2.158   2.631  0.2315 -0.3529 -0.0644
  127MOL    C4648178   3.997   2.162   2.758  1.0671  0.3406 -0.7047
  127MOL    H4748179   4.180   1.693   2.493  0.3719  1.1024  0.0951
  127MOL    H4848180   4.079   1.662   2.362 -0.4574 -0.3028  3.0454
  127MOL    H4948181   4.317   1.832   2.386 -0.1951 -2.1047  0.3354
  127MOL    H5048182   4.127   2.111   2.352  0.0866  0.1354  0.0674
  127MOL    H5148183   4.254   2.037   2.443 -0.3404  0.9284  2.1611
  127MOL    H5248184   4.109   1.946   2.612 -1.6355 -0.3284  2.2599
  127MOL    H5348185   3.965   2.015   2.537  1.1863 -1.8394  1.1709
  127MOL    H5448186   4.054   2.249   2.578  1.0809  1.3516  2.3430
  127MOL    H5548187   4.181   2.185   2.663 -0.5731  3.8744 -0.8079
  127MOL    H5648188   3.892   2.181   2.734  0.9409  0.0640 -0.3694
  127MOL    H5748189   4.006   2.065   2.808  0.9263  0.7042  0.0301
  127MOL    H5848190   4.026   2.237   2.831 -0.2960 -0.6125  0.8461
  127MOL    C5948191   4.254   1.811   2.179  0.0246  0.4939 -0.4694
  127MOL    C6048192   4.305   1.941   2.116  0.2511 -0.8730 -0.2420
  127MOL    O6148193   4.432   1.970   2.180 -0.0105 -0.0179 -0.0798
  127MOL    C6248194   4.488   2.103   2.164  0.0747  0.8112  0.7244
  127MOL    C6348195   4.440   2.207   2.257 -0.0348  0.1564  0.0492
  127MOL    C6448196   4.531   2.323   2.247 -0.0975 -0.4034 -0.6494
  127MOL    C6548197   4.484   2.446   2.330 -0.1451 -0.1863 -0.0940
  127MOL    H6648198   4.329   1.734   2.164 -0.5994 -0.2622  0.2543
  127MOL    H6748199   4.157   1.779   2.141 -0.6433  1.4138  0.4187
  127MOL    H6848200   4.233   2.020   2.138  0.4636 -0.6080 -0.4879
  127MOL    H6948201   4.470   2.140   2.063  0.5557 -0.0652  0.3111
  127MOL    H7048202   4.595   2.093   2.177  0.1359  2.1774  1.3589
  127MOL    H7148203   4.337   2.229   2.230 -0.4680 -0.4045  1.2236
  127MOL    H7248204   4.446   2.157   2.353 -1.4937  0.4849  0.3256
  127MOL    H7348205   4.630   2.287   2.278 -0.0193  0.0976 -0.3187
  127MOL    H7448206   4.546   2.350   2.142 -1.1728 -1.7637 -1.1653
  127MOL    H7548207   4.471   2.403   2.430  0.4816 -2.1195 -0.8311
  127MOL    H7648208   4.544   2.537   2.338 -5.6669  3.8104 -0.5297
  127MOL    H7748209   4.390   2.487   2.293 -0.2407 -0.7962 -0.5274
  127MOL    C7848210   4.309   1.925   1.961 -0.3406 -0.2814 -0.0636
  127MOL    C7948211   4.173   1.917   1.897 -0.6762 -0.2949 -0.0822
  127MOL    O8048212   4.194   1.878   1.763  0.5880 -0.1632  0.1652
  127MOL    C8148213   4.209   1.739   1.745  0.0243  0.4467 -0.0786
  127MOL    C8248214   4.229   1.694   1.597  0.4539  0.6776 -0.5939
  127MOL    C8348215   4.102   1.700   1.512 -0.6297  0.6769 -0.1668
  127MOL    C8448216   4.118   1.693   1.355  0.0748 -1.0919  0.3219
  127MOL    H8548217   4.378   1.848   1.925 -1.0358 -0.6732 -0.5731
  127MOL    H8648218   4.363   2.010   1.918  0.5944 -0.8086  0.0580
  127MOL    H8748219   4.108   1.845   1.946  0.3943 -0.3434  1.2831
  127MOL    H8848220   4.126   1.685   1.790  0.7651 -0.7156 -0.0872
  127MOL    H8948221   4.294   1.695   1.798  0.0822 -0.5274 -0.9729
  127MOL    H9048222   4.305   1.749   1.542  1.8353  0.2840  0.8816
  127MOL    H9148223   4.269   1.592   1.592  1.0426  0.9809 -3.0380
  127MOL    H9248224   4.054   1.795   1.536 -0.5700  0.9006 -0.9115
  127MOL    H9348225   4.026   1.628   1.542 -3.8294  4.3295  0.9421
  127MOL    H9448226   4.043   1.746   1.297  0.2427  0.0747  1.1433
  127MOL    H9548227   4.215   1.739   1.334 -0.1360 -0.6478  0.3330
  127MOL    H9648228   4.118   1.594   1.309 -1.9071 -1.8184  1.8396
  127MOL    C9748229   4.102   2.049   1.890 -0.3842 -0.1767 -0.3223
  127MOL    C9848230   3.958   2.051   1.855 -0.1343 -0.2922 -0.3972
  127MOL    O9948231   3.881   2.003   1.963  0.2824  0.1878  0.3867
  127MOL   C10048232   3.793   1.900   1.916 -0.4129  1.4084  0.3898
  127MOL   C10148233   3.742   1.812   2.033  0.7509  0.1292 -0.0382
  127MOL   C10248234   3.854   1.787   2.138 -0.0916 -0.6582 -0.3005
  127MOL   C10348235   3.783   1.720   2.257  0.4449 -0.0430  0.1043
  127MOL   H10448236   4.155   2.100   1.809  1.1011 -2.1195 -0.6037
  127MOL   H10548237   4.109   2.103   1.984 -0.3425 -1.1361  0.2349
  127MOL   H10648238   3.952   1.977   1.775  0.4152 -1.0057  0.2154
  127MOL   H10748239   3.846   1.824   1.858  0.2128  1.6528  0.6318
  127MOL   H10848240   3.715   1.940   1.851  0.7670  0.5392 -1.6399
  127MOL   H10948241   3.707   1.717   1.993  0.2876  1.0854 -1.9645
  127MOL   H11048242   3.658   1.869   2.073  2.3263  1.5497  1.3262
  127MOL   H11148243   3.895   1.883   2.169 -0.5754 -0.3132 -0.7185
  127MOL   H11248244   3.932   1.716   2.109  0.7736 -0.5246  1.6481
  127MOL   H11348245   3.705   1.648   2.234 -1.0383  2.1214 -1.7824
  127MOL   H11448246   3.849   1.675   2.331 -1.5382 -0.7213  1.4940
  127MOL   H11548247   3.722   1.793   2.310  1.2328  0.9589 -0.3657
  127MOL   C11648248   3.888   2.186   1.813 -0.7033 -0.0338  0.0073
  127MOL   C11748249   3.938   2.237   1.676 -0.7574  0.4015  0.4271
  127MOL   O11848250   3.911   2.133   1.581  0.2220  0.1266  0.3186
  127MOL   C11948251   3.955   2.142   1.446  0.1655  0.2392 -0.0269
  127MOL   C12048252   3.845   2.099   1.347 -0.2908 -0.2404  0.9756
  127MOL   C12148253   3.803   1.955   1.376 -0.5116 -0.2293 -0.5353
  127MOL   C12248254   3.712   1.884   1.276 -0.4084  0.4877 -0.3614
  127MOL   H12348255   3.780   2.177   1.816 -0.8842  2.1136  0.6540
  127MOL   H12448256   3.913   2.261   1.888  1.6667  0.3343 -1.0813
  127MOL   H12548257   4.043   2.266   1.674 -0.5306 -0.4058  0.3110
  127MOL   H12648258   4.048   2.086   1.436 -0.0127  0.2062 -1.5842
  127MOL   H12748259   3.987   2.244   1.423 -0.7539  0.5030 -0.1236
  127MOL   H12848260   3.885   2.098   1.246 -0.4801 -1.7209  0.9005
  127MOL   H12948261   3.768   2.176   1.354 -1.0608 -0.8743 -0.2015
  127MOL   H13048262   3.889   1.888   1.370 -1.0167 -0.8869 -0.4214
  127MOL   H13148263   3.753   1.953   1.473 -1.3525  0.9523 -0.9350
  127MOL   H13248264   3.745   1.910   1.176  0.6867  0.1971 -0.0817
  127MOL   H13348265   3.617   1.937   1.286  0.3907  1.8634  0.1256
  127MOL   H13448266   3.690   1.777   1.278 -2.1032  0.8304  0.3241
  127MOL   C13548267   3.858   2.364   1.639  0.2055 -0.1662 -0.1589
  127MOL   C13648268   3.892   2.495   1.704  0.2991 -0.4358 -0.3217
  127MOL   O13748269   4.002   2.553   1.632 -0.0639  0.4621 -0.4851
  127MOL   C13848270   4.120   2.559   1.710  0.4801  0.4895 -0.0120
  127MOL   C13948271   4.244   2.591   1.623 -0.5526  0.6488 -0.9335
  127MOL   C14048272   4.254   2.739   1.583 -0.8284 -0.1624  0.1872
  127MOL   C14148273   4.380   2.753   1.496 -0.7020  0.1130  0.4237
  127MOL   H14248274   3.754   2.338   1.661  1.1398 -2.3150  1.9831
  127MOL   H14348275   3.860   2.372   1.530  2.6674  1.3891 -0.0147
  127MOL   H14448276   3.903   2.483   1.812  1.1988 -2.3933 -0.6204
  127MOL   H14548277   4.126   2.466   1.766 -3.0211  0.2176  0.0219
  127MOL   H14648278   4.099   2.634   1.787  0.3244 -1.2220  1.6418
  127MOL   H14748279   4.237   2.540   1.527 -1.0641  0.1944 -0.6587
  127MOL   H14848280   4.329   2.543   1.672 -2.4138 -2.7557 -0.8574
  127MOL   H14948281   4.169   2.767   1.520 -0.5295 -1.8001 -0.9679
  127MOL   H15048282   4.254   2.803   1.671 -1.2783  0.7468 -0.4771
  127MOL   H15148283   4.365   2.695   1.404 -0.2699 -1.0217  1.0612
  127MOL   H15248284   4.400   2.855   1.465  1.4783  0.1139  1.7189
  127MOL   H15348285   4.472   2.724   1.545 -0.7763  1.3522  1.3116
  127MOL   C15448286   3.780   2.595   1.698  0.6126  0.2520 -0.2229
  127MOL   C15548287   3.669   2.568   1.801 -0.3999 -0.3960  0.8518
  127MOL   O15648288   3.544   2.619   1.753 -0.3894  0.6125  0.5459
  127MOL   C15748289   3.489   2.545   1.650 -0.5638  0.0573  0.3766
  127MOL   C15848290   3.330   2.547   1.647 -0.1650  0.6519 -0.0669
  127MOL   C15948291   3.274   2.491   1.514 -0.7296 -0.0116 -0.2047
  127MOL   C16048292   3.265   2.586   1.393  0.1095  0.5531  0.5950
  127MOL   H16148293   3.731   2.606   1.602  0.8086  1.9082 -0.1451
  127MOL   H16248294   3.821   2.695   1.714  1.5087 -0.4587  2.1924
  127MOL   H16348295   3.670   2.462   1.824 -0.2752 -0.8728 -1.2267
  127MOL   H16448296   3.535   2.591   1.563  3.0579  0.6231  2.4476
  127MOL   H16548297   3.522   2.442   1.661 -1.5104 -0.3161 -0.2223
  127MOL   H16648298   3.288   2.647   1.649  0.2757  0.8210  1.5395
  127MOL   H16748299   3.308   2.492   1.739 -1.0558  1.9862  0.5302
  127MOL   H16848300   3.334   2.403   1.489  0.2986  0.2129  1.4563
  127MOL   H16948301   3.170   2.465   1.536 -1.3200  0.3298 -2.3777
  127MOL   H17048302   3.366   2.620   1.369  0.5660  0.4047  2.2467
  127MOL   H17148303   3.215   2.532   1.312  2.2860  1.6205 -1.5443
  127MOL   H17248304   3.204   2.671   1.420  0.2602  0.2161  2.0356
  127MOL   C17348305   3.693   2.634   1.946  0.1566 -0.7647  0.3749
  127MOL   C17448306   3.629   2.563   2.067  0.5385 -0.6860  1.1096
  127MOL   O17548307   3.696   2.617   2.176 -0.5572  0.0889 -0.3906
  127MOL   C17648308   3.739   2.520   2.272  0.2194 -0.5755  0.3137
  127MOL   C17748309   3.840   2.588   2.372  1.1416  0.4499 -0.3798
  127MOL   C17848310   3.982   2.569   2.328  0.3116  0.0044  0.6715
  127MOL   C17948311   4.041   2.435   2.377  0.2653  0.2627 -0.5364
  127MOL   H18048312   3.683   2.742   1.938  1.2747 -0.6385  0.7012
  127MOL   H18148313   3.800   2.623   1.962 -0.1638 -1.6877  2.0676
  127MOL   H18248314   3.650   2.457   2.062 -2.8179 -1.3360 -0.9921
  127MOL   H18348315   3.775   2.428   2.225 -1.4395 -1.3362  0.4837
  127MOL   H18448316   3.656   2.481   2.331 -2.1262  0.4381 -2.2349
  127MOL   H18548317   3.823   2.544   2.470 -2.5902  0.1650 -1.0598
  127MOL   H18648318   3.819   2.695   2.366  0.2412  0.2655 -0.7361
  127MOL   H18748319   3.978   2.571   2.219  0.0866 -0.2814  0.6742
  127MOL   H18848320   4.042   2.648   2.374 -0.6793  0.0809  1.8664
  127MOL   H18948321   4.142   2.424   2.337  0.3275  0.0387 -0.3225
  127MOL   H19048322   4.063   2.432   2.484  1.5119 -0.1071 -0.7812
  127MOL   H19148323   3.982   2.352   2.340 -0.3782  0.2463  0.5147
  127MOL   C19248324   3.477   2.585   2.073 -0.1167 -0.7701 -0.2795
  127MOL   C19348325   3.391   2.476   2.142  0.2421 -0.1511  0.5349
  127MOL   O19448326   3.253   2.513   2.148  0.3346 -0.2157 -0.0311
  127MOL   C19548327   3.227   2.613   2.254  0.1432  0.3299 -0.2375
  127MOL   C19648328   3.076   2.657   2.242  0.1805 -0.7007 -0.0003
  127MOL   C19748329   2.973   2.554   2.272  0.3588 -0.1755 -0.3385
  127MOL   C19848330   2.829   2.571   2.209 -0.1060 -0.0838  0.3654
  127MOL   H19948331   3.448   2.594   1.968 -0.2050  1.6041 -0.0705
  127MOL   H20048332   3.457   2.682   2.119  0.2071  0.8945 -3.5143
  127MOL   H20148333   3.425   2.456   2.244 -0.2135 -0.8314  0.5526
  127MOL   H20248334   3.296   2.698   2.246  1.3475 -0.5581  0.5612
  127MOL   H20348335   3.246   2.571   2.352 -0.8921  1.6427  0.5357
  127MOL   H20448336   3.076   2.745   2.307  1.7527  0.5164 -1.6315
  127MOL   H20548337   3.073   2.690   2.139 -0.0827  2.1948  0.8806
  127MOL   H20648338   2.961   2.528   2.377 -2.9188  0.2833 -0.5327
  127MOL   H20748339   3.007   2.459   2.232  0.5043 -1.0360  1.7606
  127MOL   H20848340   2.781   2.666   2.232  1.6452 -0.0094  4.1697
  127MOL   H20948341   2.840   2.572   2.101  1.5468 -0.2145  0.5265
  127MOL   H21048342   2.766   2.483   2.225  3.3468 -2.7401 -0.1415
  127MOL   C21148343   3.389   2.354   2.052 -0.0028 -0.2375 -0.2591
  127MOL   C21248344   3.292   2.241   2.085  0.2644  0.2274  0.1662
  127MOL   O21348345   3.322   2.137   1.994 -0.1789  0.0951  0.0955
  127MOL   C21448346   3.269   2.143   1.865 -0.2386 -0.3037  0.1025
  127MOL   C21548347   3.349   2.067   1.759  0.3437 -0.0337  0.2430
  127MOL   C21648348   3.487   2.125   1.743  1.1924 -0.1975  0.2736
  127MOL   C21748349   3.516   2.105   1.591  0.0186 -0.0441  0.5760
  127MOL   H21848350   3.487   2.307   2.045 -0.2748 -0.8606  0.0806
  127MOL   H21948351   3.356   2.390   1.954  0.3680 -0.2255 -0.3795
  127MOL   H22048352   3.188   2.273   2.078 -0.6099 -2.3380  0.9781
  127MOL   H22148353   3.168   2.103   1.866 -0.3650 -0.0104 -1.0572
  127MOL   H22248354   3.251   2.246   1.833 -0.7059 -0.3064  0.3564
  127MOL   H22348355   3.351   1.963   1.792  1.5494 -0.1240 -0.0775
  127MOL   H22448356   3.288   2.077   1.669  0.9860  3.5893  0.1170
  127MOL   H22548357   3.551   2.062   1.804  0.7377 -0.7546  0.1791
  127MOL   H22648358   3.488   2.229   1.775  2.2492 -0.0647 -0.1651
  127MOL   H22748359   3.466   2.015   1.555 -1.0771 -0.0970  2.1751
  127MOL   H22848360   3.623   2.103   1.567 -0.1671 -0.8217 -0.1844
  127MOL   H22948361   3.473   2.182   1.526 -0.7576 -1.5312 -0.6828
  127MOL   C23048362   3.312   2.176   2.220  0.0551 -0.1320  0.2761
  127MOL   C23148363   3.217   2.064   2.260 -0.5689 -0.3729  0.1165
  127MOL   O23248364   3.268   1.984   2.365 -0.2273 -0.7519  0.1453
  127MOL   C23348365   3.361   1.887   2.320  0.0796 -0.0457  0.0251
  127MOL   C23448366   3.381   1.798   2.444 -0.1895  0.2647  0.2875
  127MOL   C23548367   3.250   1.732   2.491 -0.0400  0.2536  0.1520
  127MOL   C23648368   3.258   1.649   2.616  0.0752 -0.0267  0.6575
  127MOL   H23748369   3.294   2.254   2.295  2.5878 -0.3998  1.2138
  127MOL   H23848370   3.418   2.150   2.219  0.5833  1.8963 -0.0552
  127MOL   H23948371   3.211   2.007   2.167 -0.4611  0.4812 -0.4267
  127MOL   H24048372   3.313   1.837   2.236  0.4846  0.5432 -0.5607
  127MOL   H24148373   3.457   1.922   2.282 -0.0063 -0.6160 -0.7297
  127MOL   H24248374   3.454   1.718   2.428 -0.5467  0.0393 -0.2354
  127MOL   H24348375   3.412   1.865   2.524  1.4570  1.1346 -1.0554
  127MOL   H24448376   3.210   1.666   2.414  1.0445 -0.7459  0.4422
  127MOL   H24548377   3.174   1.807   2.511 -2.1497 -1.6376 -0.5220
  127MOL   H24648378   3.302   1.702   2.701 -0.2353 -0.8129  1.3105
  127MOL   H24748379   3.328   1.567   2.604 -0.8063 -0.4466 -1.9395
  127MOL   H24848380   3.161   1.612   2.650 -0.3593  0.7827  0.3081
  127MOL   C24948381   3.077   2.117   2.303 -0.0782 -0.7993 -0.5551
  127MOL   C25048382   2.973   2.007   2.308  0.3050  0.5028  0.6987
  127MOL   O25148383   2.959   1.957   2.176 -0.2214 -0.6434  0.4466
  127MOL   C25248384   3.011   1.826   2.148 -0.0712  0.1171  0.5695
  127MOL   C25348385   3.031   1.792   1.995 -0.0215  0.4672  0.1084
  127MOL   C25448386   2.913   1.835   1.900 -0.1099  0.3760 -0.6893
  127MOL   C25548387   2.963   1.855   1.759 -0.0971 -0.8378  0.1940
  127MOL   H25648388   3.048   2.204   2.244  0.8824 -0.7577 -0.9743
  127MOL   H25748389   3.089   2.161   2.402  0.4465 -1.0226 -0.5167
  127MOL   H25848390   3.006   1.930   2.378  0.8319 -1.1203 -1.3025
  127MOL   H25948391   2.934   1.761   2.190  1.7891 -2.3415  0.2971
  127MOL   H26048392   3.095   1.802   2.213 -1.3380 -1.0425  1.8395
  127MOL   H26148393   3.119   1.841   1.952 -1.9940  2.6444 -1.5787
  127MOL   H26248394   3.043   1.685   1.985 -0.1793  0.5283 -0.8287
  127MOL   H26348395   2.836   1.757   1.898 -0.8237  1.0447  0.3767
  127MOL   H26448396   2.867   1.923   1.945 -2.6042 -1.8008  1.1758
  127MOL   H26548397   3.000   1.763   1.712  0.5563  0.4218 -1.8363
  127MOL   H26648398   3.056   1.911   1.762 -0.7940  0.3369  0.0870
  127MOL   H26748399   2.892   1.897   1.688 -2.1352  0.1580  2.7576
  127MOL   C26848400   2.831   2.060   2.336  0.4029  0.0756 -0.0605
  127MOL   C26948401   2.729   1.942   2.350  0.8969  0.1183  0.4092
  127MOL   O27048402   2.786   1.856   2.455 -0.5448 -0.3408  0.1948
  127MOL   C27148403   2.699   1.748   2.497  0.0666  0.6055 -0.3204
  127MOL   C27248404   2.785   1.644   2.567 -0.1615  0.0005 -0.4509
  127MOL   C27348405   2.871   1.567   2.464  0.1303  0.3701  0.0302
  127MOL   C27448406   2.899   1.428   2.519  0.2849 -0.6879 -0.0467
  127MOL   H27548407   2.828   2.112   2.431 -1.7275 -0.2214  0.0779
  127MOL   H27648408   2.796   2.125   2.256  0.3596 -0.0120 -0.1136
  127MOL   H27748409   2.719   1.886   2.257  0.5331  1.7304 -0.5453
  127MOL   H27848410   2.625   1.783   2.568 -0.7239 -0.6442 -0.5016
  127MOL   H27948411   2.635   1.713   2.416  0.8105 -1.2106 -0.1546
  127MOL   H28048412   2.856   1.686   2.638  0.0114 -0.2687 -0.4635
  127MOL   H28148413   2.724   1.580   2.631 -2.6976  3.6126  0.8945
  127MOL   H28248414   2.959   1.624   2.433  1.3195 -0.3806  1.8883
  127MOL   H28348415   2.815   1.554   2.372 -1.4530 -0.0574  1.0275
  127MOL   H28448416   2.934   1.364   2.438 -0.3957  0.8683 -1.5968
  127MOL   H28548417   2.805   1.378   2.540  0.7198 -2.8162 -3.0027
  127MOL   H28648418   2.974   1.420   2.598  0.1979  0.9237  0.2199
  127MOL   C28748419   2.589   2.000   2.386 -0.1640  0.3876 -0.1051
  127MOL   C28848420   2.525   2.098   2.286 -0.6737 -0.2475 -0.0613
  127MOL   O28948421   2.392   2.107   2.328 -0.0584  0.1067  0.4238
  127MOL   C29048422   2.374   2.179   2.448 -0.3536  0.0021 -0.7250
  127MOL   C29148423   2.221   2.164   2.465 -0.3597 -0.1016 -0.0796
  127MOL   C29248424   2.173   2.255   2.586  0.8451 -0.2146  0.0916
  127MOL   C29348425   2.025   2.278   2.582 -0.6011  0.0147 -0.4087
  127MOL   H29448426   2.604   2.056   2.478 -1.6057  0.4546  0.0969
  127MOL   H29548427   2.518   1.920   2.407 -0.6149  0.6515 -0.6266
  127MOL   H29648428   2.583   2.190   2.292 -0.8365 -0.1984  0.7997
  127MOL   H29748429   2.413   2.134   2.539 -0.1948  0.0071 -0.7909
  127MOL   H29848430   2.410   2.281   2.431  0.7190 -0.5336 -1.6885
  127MOL   H29948431   2.204   2.057   2.480  0.1306 -0.1457  0.1516
  127MOL   H30048432   2.171   2.189   2.371 -1.1152  2.2655  0.9165
  127MOL   H30148433   2.218   2.354   2.589  0.4334  0.0077 -0.9801
  127MOL   H30248434   2.198   2.194   2.673  0.7875  0.0943  0.3211
  127MOL   H30348435   1.982   2.346   2.655  0.4884  2.2761 -1.7924
  127MOL   H30448436   1.987   2.320   2.488  1.8103  0.5068 -1.1963
  127MOL   H30548437   1.976   2.185   2.610 -1.0387 -0.3311 -2.2417
  127MOL   C30648438   2.522   2.060   2.137  0.2279 -0.0349  0.5603
  127MOL   C30748439   2.454   2.164   2.043 -1.0163 -0.0227  0.2251
  127MOL   O30848440   2.483   2.123   1.908  0.4623  0.0316  0.3810
  127MOL   C30948441   2.402   2.019   1.850 -0.6311 -0.0355 -0.5308
  127MOL   C31048442   2.457   1.960   1.714  0.2845 -0.3779 -0.6063
  127MOL   C31148443   2.591   1.900   1.715 -0.2504  0.1195 -0.0691
  127MOL   C31248444   2.624   1.822   1.589 -0.0072 -0.2389  0.3187
  127MOL   H31348445   2.629   2.053   2.115 -0.1608 -2.7104 -0.5969
  127MOL   H31448446   2.472   1.964   2.126  2.0701 -0.8601 -0.8793
  127MOL   H31548447   2.345   2.166   2.052 -1.1074  1.4091 -0.9030
  127MOL   H31648448   2.307   2.065   1.824 -0.2765  0.0445 -1.7464
  127MOL   H31748449   2.373   1.934   1.911 -1.6085  0.0211 -0.9150
  127MOL   H31848450   2.468   2.048   1.652  2.9022  0.8955  1.5340
  127MOL   H31948451   2.385   1.903   1.655  1.7029  1.3919 -4.2006
  127MOL   H32048452   2.669   1.972   1.741  0.7434 -0.4198 -1.5345
  127MOL   H32148453   2.597   1.837   1.804  0.7496 -1.9183 -1.5407
  127MOL   H32248454   2.659   1.897   1.518 -0.3678 -1.1277 -0.8261
  127MOL   H32348455   2.539   1.774   1.540  0.4944 -1.2531  0.4177
  127MOL   H32448456   2.707   1.755   1.610  0.9965  0.8952  0.0228
  127MOL   C32548457   2.504   2.304   2.057 -0.0896 -0.1211  0.0429
  127MOL   C32648458   2.444   2.413   1.963 -0.5153  0.4185  0.1454
  127MOL   O32748459   2.313   2.434   2.016 -0.1063  0.1033  0.2405
  127MOL   C32848460   2.212   2.392   1.925  0.2305  0.0590 -0.0018
  127MOL   C32948461   2.081   2.414   2.005 -0.9070 -0.1106  0.0849
  127MOL   C33048462   1.958   2.368   1.927  0.6376 -0.3435  0.4437
  127MOL   C33148463   1.824   2.390   1.997  1.3709  0.3409  0.4365
  127MOL   H33248464   2.613   2.301   2.058 -0.0820 -0.7368 -1.6590
  127MOL   H33348465   2.484   2.341   2.158  0.4067 -1.3532  0.5946
  127MOL   H33448466   2.445   2.392   1.856  0.0844 -0.3327  0.2909
  127MOL   H33548467   2.229   2.287   1.898 -0.4455 -0.1735  0.4619
  127MOL   H33648468   2.212   2.437   1.826  2.0293  1.4561  0.6093
  127MOL   H33748469   2.085   2.363   2.101  0.8410  2.7199  1.5883
  127MOL   H33848470   2.074   2.519   2.034  1.4955  0.6185 -1.7462
  127MOL   H33948471   1.965   2.260   1.915 -0.6478 -0.5085  1.1697
  127MOL   H34048472   1.964   2.412   1.828 -0.8257  2.8260  1.6945
  127MOL   H34148473   1.787   2.492   1.989  0.9244  0.2668  1.4349
  127MOL   H34248474   1.833   2.381   2.106  2.5651 -1.6815  0.1988
  127MOL   H34348475   1.752   2.315   1.964  0.2813  0.4665  2.4505
  127MOL   C34448476   2.514   2.542   1.996 -0.1342  0.5517  0.5414
  127MOL   C34548477   2.474   2.653   1.892 -0.4436 -0.6143  0.2474
  127MOL   O34648478   2.544   2.643   1.767 -0.3539  0.0694  0.1975
  127MOL   C34748479   2.512   2.735   1.669 -0.0466 -0.1896  0.3548
  127MOL   C34848480   2.593   2.703   1.538  0.0239  0.3410  0.4537
  127MOL   C34948481   2.521   2.746   1.408 -0.6470  0.8977 -0.6319
  127MOL   C35048482   2.615   2.772   1.293  0.1667 -0.0887 -0.1809
  127MOL   H35148483   2.490   2.573   2.097 -1.0879  0.2899  0.4060
  127MOL   H35248484   2.622   2.524   1.997 -0.1140  0.7051  1.0715
  127MOL   H35348485   2.367   2.638   1.874 -0.4275 -2.8043  1.7454
  127MOL   H35448486   2.539   2.837   1.695 -0.3732 -0.1057  0.3715
  127MOL   H35548487   2.405   2.733   1.646 -0.0760  3.2411 -0.0332
  127MOL   H35648488   2.629   2.600   1.533  0.0022  0.3887 -0.8787
  127MOL   H35748489   2.684   2.763   1.540  0.0926  0.1955  2.8276
  127MOL   H35848490   2.463   2.659   1.378  1.1961 -0.2053 -1.0471
  127MOL   H35948491   2.463   2.838   1.418  0.3329  1.3382  1.3541
  127MOL   H36048492   2.627   2.879   1.276 -0.6561 -0.1093 -0.9061
  127MOL   H36148493   2.577   2.741   1.196  1.1209  1.2020 -0.9767
  127MOL   H36248494   2.714   2.726   1.302  0.0598 -0.0812  1.1008
  127MOL   C36348495   2.499   2.797   1.961 -0.2801 -0.5199 -0.1536
  127MOL   C36448496   2.652   2.825   1.990  0.1776 -0.1939  0.6801
  127MOL   O36548497   2.676   2.924   2.082  0.1308 -0.0724  0.4116
  127MOL   C36648498   2.810   2.976   2.093  0.7545 -1.1099  0.3557
  127MOL   C36748499   2.831   3.085   2.206 -0.2791 -0.1747  1.0181
  127MOL   C36848500   2.787   3.035   2.342  0.0768  0.6880  0.3625
  127MOL   C36948501   2.830   3.136   2.451  0.2958  0.2876  0.4578
  127MOL   H37048502   2.443   2.807   2.054  2.3030  2.3033  1.1700
  127MOL   H37148503   2.457   2.880   1.906  1.3056  0.8868  0.7188
  127MOL   H37248504   2.694   2.856   1.894 -0.0514 -0.0735  0.6181
  127MOL   H37348505   2.853   3.018   2.002  1.0051 -0.7120  0.6583
  127MOL   H37448506   2.876   2.891   2.114  0.8422 -0.6974  1.7782
  127MOL   H37548507   2.788   3.183   2.188  0.4681 -0.6579 -3.9727
  127MOL   H37648508   2.936   3.114   2.204 -0.4597  0.4314 -0.4478
  127MOL   H37748509   2.821   2.934   2.364 -1.0894  0.1833 -0.1533
  127MOL   H37848510   2.678   3.037   2.341  0.0805  0.4547 -0.8713
  127MOL   H37948511   2.801   3.239   2.431  1.7722  0.5293 -0.5081
  127MOL   H38048512   2.791   3.109   2.549 -0.7542  0.9184  0.2180
  127MOL   H38148513   2.936   3.149   2.473 -0.0665  1.5867  1.5498
  127MOL   H38248514   2.709   2.737   2.021 -1.0152 -0.5644  1.8689
  128MOL     C148515   6.673   7.497   0.005  0.3885 -0.7065  0.9032
  128MOL     C248516   6.756   7.382   7.752  0.8394 -0.4332  0.6980
  128MOL     O348517   6.834   7.325   0.053 -0.1655  0.3060  0.5082
  128MOL     C448518   6.974   7.352   0.051 -0.8382  0.2668  0.2100
  128MOL     C548519   7.040   7.249   0.147 -0.1185 -0.6101 -0.3655
  128MOL     C648520   7.024   7.287   0.295 -0.6604 -0.2900  0.3493
  128MOL     C748521   6.891   7.249   0.354  0.3643  0.8896  0.5548
  128MOL     H848522   6.743   7.564   0.055  0.1657  0.3797 -0.2275
  128MOL     H948523   6.626   7.545   7.721 -1.3688 -1.2675  1.5364
  128MOL    H1048524   6.821   7.415   7.671  0.9481 -0.5112  0.7554
  128MOL    H1148525   7.000   7.332   7.749 -2.1447  0.9057 -0.2618
  128MOL    H1248526   7.006   7.452   0.081 -0.7762  0.1784  0.4397
  128MOL    H1348527   7.145   7.264   0.123  0.2179 -1.4008  0.6038
  128MOL    H1448528   7.000   7.152   0.117 -1.2747  0.0954 -1.1827
  128MOL    H1548529   7.028   7.395   0.308 -1.7362 -0.1096 -0.6928
  128MOL    H1648530   7.103   7.246   0.359 -0.6674  1.8557  1.7662
  128MOL    H1748531   6.853   7.165   0.296 -0.0254 -0.3156  2.4984
  128MOL    H1848532   6.816   7.328   0.350  1.0757  1.4831 -2.1746
  128MOL    H1948533   6.900   7.222   0.459 -0.3748  0.6635  0.5622
  128MOL    H2048534   6.599   7.464   0.079 -0.0366  1.4812  1.5024
  128MOL    C2148535   6.654   7.289   7.686  0.7165  0.2837 -0.5205
  128MOL    C2248536   6.728   7.175   7.606 -0.0665 -0.0402 -0.2241
  128MOL    O2348537   6.693   7.049   7.666  0.4124 -0.5674 -0.2937
  128MOL    C2448538   6.744   7.016   7.797 -0.1995 -0.1258 -0.1855
  128MOL    C2548539   6.763   6.863   0.024  0.0773  0.1687 -0.1413
  128MOL    C2648540   6.620   6.798   0.027  0.3061  0.0168  0.1822
  128MOL    C2748541   6.635   6.664   0.093  0.0637 -0.1070  0.0290
  128MOL    H2848542   6.605   7.346   7.607 -0.9492  0.5623  0.6865
  128MOL    H2948543   6.572   7.259   7.751  1.4688 -2.4344 -0.7650
  128MOL    H3048544   6.837   7.187   7.603  0.4035 -2.9466  2.3329
  128MOL    H3148545   6.678   7.060   0.070  1.4699  1.0349  0.6431
  128MOL    H3248546   6.846   7.055   7.798  0.1561 -1.0540  0.9591
  128MOL    H3348547   6.819   6.820   7.743  0.6909 -2.9863  1.8238
  128MOL    H3448548   6.820   6.868   0.117  1.4087  2.7344 -1.0629
  128MOL    H3548549   6.552   6.860   0.085 -0.5532 -0.6375 -0.1263
  128MOL    H3648550   6.585   6.782   7.726 -0.0698  3.1070 -0.2231
  128MOL    H3748551   6.534   6.621   0.098  0.6758 -1.5943  0.0376
  128MOL    H3848552   6.693   6.598   0.029 -0.4527  0.0735 -0.6343
  128MOL    H3948553   6.685   6.665   0.190  2.1838 -1.8759 -1.0002
  128MOL    C4048554   6.677   7.165   7.462  0.4898  0.0049  0.3981
  128MOL    C4148555   6.755   7.246   7.354  0.0520 -0.1537  0.6493
  128MOL    O4248556   6.749   7.382   7.386 -0.9191  0.1270 -0.9262
  128MOL    C4348557   6.869   7.448   7.339  0.5271 -0.1878  0.5332
  128MOL    C4448558   6.837   7.595   7.322 -0.1295 -0.0173  1.1024
  128MOL    C4548559   6.959   7.682   7.304  0.8384 -0.1376 -0.1850
  128MOL    C4648560   7.041   7.669   7.173  0.9395 -0.2061 -0.3397
  128MOL    H4748561   6.569   7.181   7.462 -0.0678 -3.5470  1.0152
  128MOL    H4848562   6.689   7.061   7.435  0.1379 -0.1100  0.6739
  128MOL    H4948563   6.859   7.213   7.358 -0.0781 -0.8799 -1.3442
  128MOL    H5048564   6.895   7.409   7.241 -2.1257 -0.9560  0.0835
  128MOL    H5148565   6.951   7.431   7.408  2.2869 -0.2098 -1.5089
  128MOL    H5248566   6.789   7.618   7.418 -1.7881 -2.1194  0.8320
  128MOL    H5348567   6.769   7.623   7.242  2.9710  4.4368 -0.1175
  128MOL    H5448568   7.029   7.642   7.378 -0.0544 -1.1977  0.1076
  128MOL    H5548569   6.936   7.780   7.347  2.6293  0.2131  0.0094
  128MOL    H5648570   7.140   7.714   7.171  0.5579  0.6692 -0.0476
  128MOL    H5748571   7.061   7.565   7.146  1.1770 -0.2823  0.1224
  128MOL    H5848572   6.986   7.723   7.096  0.3513 -1.4160 -0.7746
  128MOL    C5948573   6.691   7.216   7.215  0.0176  0.2606  0.2214
  128MOL    C6048574   6.662   7.064   7.185  0.9112 -0.1201 -0.0750
  128MOL    O6148575   6.605   7.056   7.057 -0.3074 -0.5395  0.0234
  128MOL    C6248576   6.464   7.073   7.054  0.1281 -0.0263  0.5009
  128MOL    C6348577   6.405   7.051   6.914 -0.7970  0.0872 -0.3433
  128MOL    C6448578   6.381   6.895   6.883  0.2063  0.0388 -0.8936
  128MOL    C6548579   6.297   6.856   6.760  0.1964  0.1632  0.5584
  128MOL    H6648580   6.599   7.274   7.205  0.3489  1.0088  1.4753
  128MOL    H6748581   6.765   7.246   7.141 -1.1960 -0.4182 -1.2972
  128MOL    H6848582   6.592   7.033   7.262 -0.5226  1.8598 -0.5290
  128MOL    H6948583   6.443   7.172   7.094  1.0877 -0.7663  2.8823
  128MOL    H7048584   6.411   7.015   7.129  1.3551 -0.0509  1.3477
  128MOL    H7148585   6.308   7.101   6.906 -0.7521  0.7702  2.9918
  128MOL    H7248586   6.460   7.089   6.828  0.8873  0.8767  1.0824
  128MOL    H7348587   6.479   6.847   6.888  0.2453  0.3188  2.3461
  128MOL    H7448588   6.336   6.845   6.969 -0.1633  1.0168 -0.5118
  128MOL    H7548589   6.244   6.938   6.711  0.1860 -0.2144 -0.0634
  128MOL    H7648590   6.368   6.829   6.682 -0.3170  1.3391 -0.3383
  128MOL    H7748591   6.228   6.775   6.782 -0.6532  1.2684  2.0079
  128MOL    C7848592   6.784   6.972   7.199  0.3954  0.4534 -0.9833
  128MOL    C7948593   6.764   6.820   7.196  0.4506  0.1976 -0.5807
  128MOL    O8048594   6.827   6.763   7.312 -0.2759  0.1865  0.0800
  128MOL    C8148595   6.741   6.749   7.426  0.2192  0.1793 -0.2456
  128MOL    C8248596   6.823   6.650   7.513 -0.1757 -0.0057  0.0028
  128MOL    C8348597   6.854   6.515   7.439 -0.6797  1.0460 -0.6169
  128MOL    C8448598   6.940   6.412   7.511 -0.1269 -0.2223 -0.0099
  128MOL    H8548599   6.831   7.000   7.293 -1.7989 -1.7724  0.8338
  128MOL    H8648600   6.850   7.005   7.119 -0.6925  0.8116 -1.7408
  128MOL    H8748601   6.656   6.808   7.204  0.5366  0.0392  0.5397
  128MOL    H8848602   6.645   6.708   7.398 -0.0814  0.5374  0.2512
  128MOL    H8948603   6.727   6.840   7.485  1.5633  0.4673 -0.3436
  128MOL    H9048604   6.915   6.697   7.548  0.3423 -0.8101 -0.2499
  128MOL    H9148605   6.771   6.622   7.605 -0.7168  1.5634  0.1859
  128MOL    H9248606   6.923   6.540   7.358  2.1772 -0.0428  1.3745
  128MOL    H9348607   6.767   6.461   7.402 -1.4175  0.7583  1.5058
  128MOL    H9448608   7.024   6.473   7.544  1.6254 -0.0700 -4.3524
  128MOL    H9548609   6.885   6.366   7.593 -1.0373  0.6360 -0.1269
  128MOL    H9648610   6.978   6.340   7.439 -3.6903 -1.9962 -0.2434
  128MOL    C9748611   6.809   6.748   7.074  0.0668  0.0196 -0.3050
  128MOL    C9848612   6.767   6.591   7.057  0.5257  0.9022  0.4172
  128MOL    O9948613   6.625   6.593   7.050  0.0919  0.1971 -0.3742
  128MOL   C10048614   6.556   6.510   7.136 -0.3948  0.0257  0.9303
  128MOL   C10148615   6.407   6.546   7.119 -0.3067 -0.0810 -0.3986
  128MOL   C10248616   6.318   6.469   7.212  0.4670  0.5153  0.0276
  128MOL   C10348617   6.169   6.500   7.192 -0.6964 -0.0478 -0.0266
  128MOL   H10448618   6.916   6.762   7.057 -0.0207 -0.0652 -0.9393
  128MOL   H10548619   6.761   6.803   6.993  1.2505 -1.2419 -1.9152
  128MOL   H10648620   6.793   6.535   7.147 -1.8078 -0.3791  0.3138
  128MOL   H10748621   6.593   6.517   7.238 -1.1343 -1.5783  1.3260
  128MOL   H10848622   6.559   6.408   7.096  1.3101  0.4221  0.0384
  128MOL   H10948623   6.379   6.531   7.015 -0.5687 -1.4840 -0.1382
  128MOL   H11048624   6.396   6.653   7.135  1.0552 -0.2314  1.7767
  128MOL   H11148625   6.348   6.479   7.317 -0.6519 -1.1772  0.5263
  128MOL   H11248626   6.336   6.364   7.192 -1.6349  0.5052 -1.9267
  128MOL   H11348627   6.105   6.411   7.196  0.2439 -0.7060  0.6993
  128MOL   H11448628   6.126   6.564   7.269  2.4377 -0.8073  2.4652
  128MOL   H11548629   6.152   6.539   7.092  1.1649  0.6947 -0.0650
  128MOL   C11648630   6.820   6.529   6.929  0.4748  0.9566 -0.1826
  128MOL   C11748631   6.951   6.451   6.954 -0.1120 -0.4262 -0.6995
  128MOL   O11848632   6.908   6.321   6.986  0.1776 -0.1154  0.5942
  128MOL   C11948633   6.885   6.294   7.129  0.4303 -0.5956  0.9260
  128MOL   C12048634   6.904   6.143   7.157 -0.0832 -0.4839 -0.0385
  128MOL   C12148635   6.786   6.055   7.112 -0.1050 -0.8680  0.3620
  128MOL   C12248636   6.819   5.897   7.119  0.5789  0.4373  0.4519
  128MOL   H12348637   6.749   6.452   6.899  0.7634  0.9940 -0.9703
  128MOL   H12448638   6.826   6.600   6.847  0.3997  0.3620 -0.7078
  128MOL   H12548639   7.013   6.491   7.034  0.8644 -0.9041 -1.2020
  128MOL   H12648640   6.784   6.320   7.161 -0.2312 -1.4844 -0.3896
  128MOL   H12748641   6.953   6.342   7.200  2.7125 -3.0749  0.5090
  128MOL   H12848642   6.904   6.130   7.266  1.0011  0.9848  0.1479
  128MOL   H12948643   7.005   6.115   7.130  0.1422 -0.3125  0.6245
  128MOL   H13048644   6.699   6.067   7.176 -0.0147 -0.2179  0.3711
  128MOL   H13148645   6.763   6.085   7.010 -3.3893  2.8869  2.0461
  128MOL   H13248646   6.734   5.841   7.082  2.5081 -1.3577 -1.4450
  128MOL   H13348647   6.837   5.878   7.225  0.7220  0.3789  0.4171
  128MOL   H13448648   6.908   5.864   7.066 -0.9045 -0.1311 -1.7070
  128MOL   C13548649   7.032   6.442   6.830 -0.2234 -0.4379  0.2968
  128MOL   C13648650   7.171   6.369   6.839  0.4451  0.0174  0.1247
  128MOL   O13748651   7.258   6.441   6.919 -0.5158 -0.0152 -0.5710
  128MOL   C13848652   7.341   6.542   6.857 -0.2212 -0.2247 -0.2115
  128MOL   C13948653   7.378   6.663   6.946 -0.6360 -0.3494 -0.0819
  128MOL   C14048654   7.268   6.769   6.939  0.2701  0.6082  0.5755
  128MOL   C14148655   7.309   6.882   7.037 -0.1029  0.2973  0.6153
  128MOL   H14248656   7.049   6.546   6.801  1.6501  0.1258  3.2564
  128MOL   H14348657   6.980   6.388   6.750  1.2718 -0.5133 -0.6445
  128MOL   H14448658   7.215   6.364   6.740 -1.3100  3.8789 -0.9408
  128MOL   H14548659   7.275   6.575   6.776  1.2853  0.5550 -1.1426
  128MOL   H14648660   7.428   6.489   6.820 -1.1874 -0.9034 -1.5356
  128MOL   H14748661   7.477   6.708   6.932 -0.5631 -0.2587  0.7046
  128MOL   H14848662   7.385   6.616   7.044  1.5275 -0.3333 -0.1997
  128MOL   H14948663   7.260   6.798   6.834  0.8964 -1.2439 -0.0232
  128MOL   H15048664   7.171   6.732   6.972  1.6164 -2.9159  0.8212
  128MOL   H15148665   7.237   6.964   7.025 -1.1926 -0.7606 -0.2141
  128MOL   H15248666   7.291   6.863   7.143 -2.9636  0.5280  0.2327
  128MOL   H15348667   7.409   6.924   7.030 -0.4910  1.2309  0.4821
  128MOL   C15448668   7.164   6.215   6.875 -0.9425  0.8517  0.2229
  128MOL   C15548669   7.297   6.134   6.853  0.0159  0.6751 -0.0378
  128MOL   O15648670   7.301   6.106   6.712 -0.4775  0.7283  1.0420
  128MOL   C15748671   7.429   6.072   6.659 -0.0331 -0.0861 -0.0813
  128MOL   C15848672   7.398   6.041   6.508  0.3072 -0.1340  0.5850
  128MOL   C15948673   7.297   5.924   6.486  0.5546 -0.3988  0.1582
  128MOL   C16048674   7.254   5.913   6.339  0.1237 -0.0959  0.0352
  128MOL   H16148675   7.089   6.169   6.810  2.3112 -3.4248 -0.7546
  128MOL   H16248676   7.125   6.207   6.976 -0.1797 -0.0999  0.4424
  128MOL   H16348677   7.382   6.181   6.902 -0.3250  2.0877 -0.7749
  128MOL   H16448678   7.503   6.150   6.674 -0.0431 -0.1970  0.5814
  128MOL   H16548679   7.467   5.977   6.697  0.2037  1.2278  3.1294
  128MOL   H16648680   7.496   6.011   6.469  0.0096 -1.8371  1.1006
  128MOL   H16748681   7.352   6.128   6.461  0.2736  1.1311  2.8908
  128MOL   H16848682   7.333   5.824   6.511 -1.0934 -0.9849  0.2517
  128MOL   H16948683   7.208   5.943   6.546 -1.2020  0.1872 -2.5274
  128MOL   H17048684   7.199   6.003   6.310  1.0982  0.8390  1.0316
  128MOL   H17148685   7.342   5.882   6.283  0.0680 -0.8057  0.3366
  128MOL   H17248686   7.186   5.828   6.333 -0.4382  0.3951 -0.5416
  128MOL   C17348687   7.280   6.004   6.931 -0.1314  0.3232 -0.1835
  128MOL   C17448688   7.325   6.002   7.076 -0.3085  0.6711 -0.0749
  128MOL   O17548689   7.266   6.108   7.150  0.2920  0.4357  0.1831
  128MOL   C17648690   7.354   6.209   7.194  0.1233  0.9657 -0.2567
  128MOL   C17748691   7.273   6.330   7.256  0.2796 -0.1394 -0.1207
  128MOL   C17848692   7.367   6.446   7.314  0.0188  0.2798  0.7666
  128MOL   C17948693   7.296   6.579   7.358  0.1564 -0.4026  0.2190
  128MOL   H18048694   7.350   5.933   6.887 -1.8562 -1.1140 -0.6433
  128MOL   H18148695   7.181   5.961   6.917 -0.2081 -0.4661  2.5959
  128MOL   H18248696   7.434   5.997   7.082 -0.4608 -1.1588  1.9922
  128MOL   H18348697   7.415   6.239   7.109 -1.7132 -0.6098 -2.1669
  128MOL   H18448698   7.410   6.171   7.280 -1.6523 -0.8759  0.1065
  128MOL   H18548699   7.200   6.294   7.329  0.8747  0.7715  0.9405
  128MOL   H18648700   7.217   6.373   7.172 -0.7680 -0.0784  0.6010
  128MOL   H18748701   7.413   6.412   7.407  2.4603 -0.6770 -0.7545
  128MOL   H18848702   7.445   6.480   7.248  0.6039  0.4439  1.5333
  128MOL   H18948703   7.229   6.621   7.283 -0.3817  0.9425  1.4241
  128MOL   H19048704   7.236   6.547   7.444  0.0473 -1.1897 -0.1481
  128MOL   H19148705   7.373   6.650   7.386 -0.1058  0.2606 -0.7075
  128MOL   C19248706   7.269   5.881   7.158  0.0722  0.0460  0.0824
  128MOL   C19348707   7.327   5.744   7.116 -0.2451  0.4427 -0.3674
  128MOL   O19448708   7.262   5.716   6.991 -0.3891 -0.5572  0.4149
  128MOL   C19548709   7.142   5.646   6.987  0.0571  0.5113 -0.3903
  128MOL   C19648710   7.066   5.701   6.860 -0.3485  0.5080  0.9291
  128MOL   C19748711   7.145   5.672   6.737 -0.2502 -0.7338  0.0981
  128MOL   C19848712   7.054   5.700   6.615 -0.0633 -0.2501 -0.4814
  128MOL   H19948713   7.162   5.869   7.172 -0.0133 -1.6996 -1.8371
  128MOL   H20048714   7.310   5.891   7.259  0.4394 -1.7472  0.1396
  128MOL   H20148715   7.308   5.675   7.199 -2.4900 -1.1687 -2.1848
  128MOL   H20248716   7.073   5.669   7.068  0.1308 -0.2668 -0.0977
  128MOL   H20348717   7.164   5.539   6.984  0.1556  0.5723 -3.2622
  128MOL   H20448718   6.969   5.652   6.847  0.5558 -1.4420  1.4207
  128MOL   H20548719   7.041   5.807   6.875 -1.0044  0.6438 -0.9790
  128MOL   H20648720   7.177   5.568   6.745  2.9110  0.3798  3.1207
  128MOL   H20748721   7.240   5.725   6.730  0.7040 -2.4689 -0.3158
  128MOL   H20848722   7.014   5.801   6.626 -0.1083 -0.2249 -0.8890
  128MOL   H20948723   7.109   5.694   6.522  0.9596  2.0336 -0.0832
  128MOL   H21048724   6.977   5.624   6.620 -1.0964  0.9288  2.7029
  128MOL   C21148725   7.474   5.744   7.084 -0.0459 -0.8059 -0.4670
  128MOL   C21248726   7.549   5.609   7.103  0.6300  0.1432  0.5150
  128MOL   O21348727   7.564   5.574   7.240  0.3628 -0.2888  0.9234
  128MOL   C21448728   7.651   5.460   7.261 -0.7471 -0.1412 -0.3873
  128MOL   C21548729   7.707   5.453   7.401  1.0971  0.3340 -0.2150
  128MOL   C21648730   7.598   5.424   7.504  0.7629  0.0659  0.3685
  128MOL   C21748731   7.646   5.414   7.647  0.7560  0.0542 -0.4552
  128MOL   H21848732   7.530   5.802   7.157 -0.0276 -1.5154  0.0917
  128MOL   H21948733   7.497   5.795   6.990 -1.9279  3.3268  1.2138
  128MOL   H22048734   7.652   5.632   7.077  0.0390 -1.0918 -3.3361
  128MOL   H22148735   7.598   5.365   7.246  1.1694 -1.1246 -1.1303
  128MOL   H22248736   7.737   5.460   7.193  0.2303  0.4245  0.8323
  128MOL   H22348737   7.776   5.370   7.414  1.1224  0.3871 -0.0034
  128MOL   H22448738   7.750   5.551   7.424 -0.0860  0.7630  0.2276
  128MOL   H22548739   7.545   5.331   7.483 -0.4000  0.6474  0.7277
  128MOL   H22648740   7.525   5.504   7.502 -1.0224 -1.5230 -3.9139
  128MOL   H22748741   7.711   5.331   7.675  0.0964 -0.8268 -1.4751
  128MOL   H22848742   7.562   5.405   7.715  0.2870  1.0581 -0.8841
  128MOL   H22948743   7.698   5.507   7.670 -0.2244  0.1154  1.5361
  128MOL   C23048744   7.485   5.499   7.018  0.6661  0.1490  0.4218
  128MOL   C23148745   7.482   5.526   6.863 -0.0674  0.7777  0.0886
  128MOL   O23248746   7.607   5.593   6.826  0.3920  0.2476  0.2816
  128MOL   C23348747   7.588   5.693   6.730  0.7031  0.7045  0.1774
  128MOL   C23448748   7.721   5.775   6.726  0.2541  0.2782 -0.1909
  128MOL   C23548749   7.722   5.874   6.845 -0.0604 -0.0073  0.0491
  128MOL   C23648750   0.028   5.987   6.839  0.3008  0.2336 -0.0539
  128MOL   H23748751   7.388   5.480   7.063 -1.1624 -0.9122 -3.7313
  128MOL   H23848752   7.533   5.402   7.032 -1.7482 -0.9535  1.1788
  128MOL   H23948753   7.404   5.602   6.855 -0.1651  0.8110  1.3253
  128MOL   H24048754   7.563   5.650   6.633 -1.5213 -0.5427  1.2483
  128MOL   H24148755   7.503   5.756   6.757 -0.5830 -1.2747  0.8219
  128MOL   H24248756   0.006   5.710   6.721  0.7314  1.0959 -3.2471
  128MOL   H24348757   7.736   5.832   6.634  2.2088  1.3306  0.7467
  128MOL   H24448758   7.743   5.820   6.938 -1.0500  0.4310  0.5310
  128MOL   H24548759   7.630   5.926   6.870 -0.6119  0.0142 -2.0023
  128MOL   H24648760   0.022   6.039   6.934 -0.6569  0.6299 -0.3232
  128MOL   H24748761   0.014   6.058   6.757  0.4798 -0.0443 -0.3293
  128MOL   H24848762   0.125   5.943   6.816 -0.2202  0.1961 -2.3904
  128MOL   C24948763   7.461   5.409   6.768 -0.0479 -0.2255 -0.2475
  128MOL   C25048764   7.347   5.308   6.798  0.0621  0.4841  0.2087
  128MOL   O25148765   7.383   5.238   6.918  0.3378 -0.9385  0.3161
  128MOL   C25248766   7.279   5.172   6.994  0.2155 -0.3055  0.0341
  128MOL   C25348767   7.340   5.075   7.098  0.4939  0.2909 -0.4071
  128MOL   C25448768   7.457   5.123   7.182 -0.5133 -0.7228 -0.2954
  128MOL   C25548769   7.485   5.019   7.289 -0.0575  0.1735  0.2374
  128MOL   H25648770   7.553   5.353   6.784  1.0177  1.3648 -0.7471
  128MOL   H25748771   7.456   5.450   6.667  0.6389  0.2344 -0.0951
  128MOL   H25848772   7.253   5.359   6.820  1.3404  1.9451  2.5198
  128MOL   H25948773   7.203   5.121   6.935  0.0682  0.1679 -0.1901
  128MOL   H26048774   7.229   5.249   7.053  0.5886 -1.2625  1.6282
  128MOL   H26148775   7.255   5.031   7.150  0.5666 -0.1767 -0.6724
  128MOL   H26248776   7.385   4.991   7.044 -0.5704 -0.9423  0.5887
  128MOL   H26348777   7.540   5.144   7.115  0.2107 -1.3451  0.3905
  128MOL   H26448778   7.428   5.213   7.236 -1.0824 -2.1411  1.8403
  128MOL   H26548779   7.410   5.036   7.366 -1.2671 -0.1218 -0.8776
  128MOL   H26648780   7.584   5.028   7.335  0.4881  1.2069 -1.1192
  128MOL   H26748781   7.467   4.916   7.257 -0.9365  0.4399 -0.1183
  128MOL   C26848782   7.319   5.200   6.690 -0.2954 -0.6767  0.2498
  128MOL   C26948783   7.215   5.244   6.580  0.3957  0.0070 -0.0678
  128MOL   O27048784   7.296   5.318   6.490 -0.1359 -0.4688  0.3827
  128MOL   C27148785   7.234   5.418   6.414 -0.3315 -0.4705 -0.0870
  128MOL   C27248786   7.344   5.522   6.397 -0.5128  0.6734  0.3319
  128MOL   C27348787   7.441   5.496   6.284  0.4779  0.5489  0.1316
  128MOL   C27448788   7.555   5.595   6.268  0.2375 -0.1180  0.3122
  128MOL   H27548789   7.410   5.159   6.646 -0.1933 -1.0001  0.7466
  128MOL   H27648790   7.274   5.117   6.746 -1.2647  1.0256  2.0688
  128MOL   H27748791   7.135   5.299   6.629  0.3059  0.1602 -0.3870
  128MOL   H27848792   7.196   5.369   6.324 -1.6413 -1.8121  1.1855
  128MOL   H27948793   7.152   5.453   6.477  1.6977 -0.3211  2.5059
  128MOL   H28048794   7.301   5.621   6.382 -0.9333  0.3773 -0.4147
  128MOL   H28148795   7.408   5.541   6.483 -0.3771  3.0526 -0.2736
  128MOL   H28248796   7.389   5.500   6.189 -1.3046 -1.2906  0.9707
  128MOL   H28348797   7.471   5.392   6.299  0.9408  0.5382 -0.8320
  128MOL   H28448798   7.517   5.697   6.274  1.7739  0.5624 -1.0195
  128MOL   H28548799   7.598   5.584   6.168 -0.2978  0.7877 -0.0219
  128MOL   H28648800   7.633   5.575   6.341  1.5976  0.0785 -1.0493
  128MOL   C28748801   7.143   5.117   6.523  0.4086  0.5113  0.7608
  128MOL   C28848802   7.007   5.140   6.461 -0.2572  0.7166 -0.0464
  128MOL   O28948803   6.929   5.192   6.570  0.3027  0.5426 -0.1555
  128MOL   C29048804   6.855   5.318   6.549  0.1812  0.0835  0.1843
  128MOL   C29148805   6.766   5.338   6.669 -0.5952 -0.1738 -0.0524
  128MOL   C29248806   6.833   5.351   6.808 -0.4157 -0.5006  0.4784
  128MOL   C29348807   6.772   5.262   6.917  0.6354  0.1877 -0.3101
  128MOL   H29448808   7.136   5.047   6.606  0.6837 -2.2527 -1.4928
  128MOL   H29548809   7.215   5.071   6.455  0.9859  2.4714  0.0110
  128MOL   H29648810   7.019   5.218   6.386  1.6051 -0.2138 -0.7621
  128MOL   H29748811   6.923   5.403   6.544  1.7075 -1.0518  1.1869
  128MOL   H29848812   6.798   5.311   6.457  0.3877 -0.2607  0.0800
  128MOL   H29948813   6.696   5.254   6.666 -0.6416 -0.1329 -0.1189
  128MOL   H30048814   6.711   5.430   6.648 -0.3698  0.5219  2.3180
  128MOL   H30148815   6.832   5.455   6.841  0.3205 -0.1767 -0.5033
  128MOL   H30248816   6.938   5.323   6.802 -0.9462 -2.1818 -1.4419
  128MOL   H30348817   6.833   5.255   7.007 -1.1779 -1.2266  0.8488
  128MOL   H30448818   6.673   5.300   6.943  0.4857 -1.2771  1.3324
  128MOL   H30548819   6.741   5.162   6.886 -0.2884  0.8364 -1.5512
  128MOL   C30648820   6.937   5.017   6.400  0.4555  0.0333  0.3213
  128MOL   C30748821   6.919   4.900   6.496 -0.6953 -0.3409 -0.5125
  128MOL   O30848822   6.903   4.784   6.415  0.0032  0.2664 -0.3689
  128MOL   C30948823   7.016   4.711   6.381 -0.4524  0.2439  0.4409
  128MOL   C31048824   6.993   4.590   6.285  0.2280  0.1505 -0.2833
  128MOL   C31148825   6.920   4.482   6.356  0.2809  0.2833  0.8859
  128MOL   C31248826   6.890   4.368   6.251  0.2018 -0.4726 -0.2891
  128MOL   H31348827   6.836   5.048   6.375  0.0217 -1.8740 -0.4169
  128MOL   H31448828   6.988   4.984   6.310  0.0572 -1.4865  0.6416
  128MOL   H31548829   7.004   4.890   6.564 -0.7728  0.6537 -0.2556
  128MOL   H31648830   7.071   4.677   6.469  1.0163 -0.4780 -0.7263
  128MOL   H31748831   7.088   4.776   6.332 -0.5468  0.8310  1.0776
  128MOL   H31848832   7.086   4.539   6.259  0.7027  0.1547  1.3508
  128MOL   H31948833   6.938   4.623   6.197 -2.2474 -1.0380  0.7634
  128MOL   H32048834   6.979   4.443   6.440  1.0618  1.0063  0.6811
  128MOL   H32148835   6.824   4.511   6.398 -0.9416  0.4930 -1.9560
  128MOL   H32248836   6.819   4.410   6.179 -0.0562  2.5277  1.5890
  128MOL   H32348837   6.840   4.281   6.292  0.1873 -1.1519 -1.7202
  128MOL   H32448838   6.973   4.330   6.193  0.0572  0.4127 -1.0967
  128MOL   C32548839   6.783   4.900   6.578  0.5388 -0.3217  0.0704
  128MOL   C32648840   6.787   4.801   6.698 -0.5408  0.2229  0.8141
  128MOL   O32748841   6.828   4.865   6.817 -0.2188 -0.1188  0.0628
  128MOL   C32848842   6.961   4.909   6.830 -0.3385 -0.3476  0.1718
  128MOL   C32948843   7.008   4.882   6.975  0.3455 -0.7845 -0.9183
  128MOL   C33048844   6.934   4.957   7.094 -0.3058 -0.1124 -0.4976
  128MOL   C33148845   6.792   4.906   7.135  0.1975 -0.4984 -0.2524
  128MOL   H33248846   6.709   4.885   6.499 -0.6608 -1.8150  1.4640
  128MOL   H33348847   6.766   5.001   6.615  0.3019 -0.7415  1.1254
  128MOL   H33448848   6.860   4.726   6.665  0.1129  1.6185 -1.0122
  128MOL   H33548849   6.973   5.013   6.801  0.7040  0.1669  2.3074
  128MOL   H33648850   7.028   4.851   6.768 -0.3171  0.6481 -0.7503
  128MOL   H33748851   7.008   4.776   7.000 -2.7547 -0.4212  0.8866
  128MOL   H33848852   7.115   4.903   6.976 -0.1265  1.9962 -2.3499
  128MOL   H33948853   6.931   5.062   7.066  1.1244  0.1348  0.2004
  128MOL   H34048854   7.003   4.964   7.179 -0.7997  0.7025 -0.1571
  128MOL   H34148855   6.802   4.801   7.163  1.0360  0.0820  1.6841
  128MOL   H34248856   6.715   4.904   7.057  0.3249  3.0937 -0.5407
  128MOL   H34348857   6.756   4.948   7.228 -2.5463  0.1204 -1.5412
  128MOL   C34448858   6.659   4.736   6.725 -0.3782 -0.3751  0.8304
  128MOL   C34548859   6.640   4.625   6.835  0.3928  0.1289  0.9932
  128MOL   O34648860   6.717   4.511   6.800 -0.3283  0.5827 -0.7184
  128MOL   C34748861   6.843   4.493   6.867 -1.0134 -0.3510  0.0412
  128MOL   C34848862   6.915   4.364   6.825  0.3773  0.3535 -0.0898
  128MOL   C34948863   6.844   4.233   6.864 -0.2386 -0.8690  0.3602
  128MOL   C35048864   6.859   4.201   7.017  0.7163 -0.3401  0.2141
  128MOL   H35148865   6.597   4.820   6.754  0.1093  1.2354 -2.5758
  128MOL   H35248866   6.620   4.694   6.633  0.8961 -1.3794  0.7242
  128MOL   H35348867   6.672   4.658   6.933  0.7343 -0.5955  1.1263
  128MOL   H35448868   6.840   4.476   6.975 -0.4208 -1.7741 -0.1443
  128MOL   H35548869   6.910   4.574   6.837 -1.2583 -0.1321  0.0908
  128MOL   H35648870   7.012   4.352   6.874  0.7508  1.4800 -0.5415
  128MOL   H35748871   6.933   4.368   6.718  1.3827  1.3479  0.1053
  128MOL   H35848872   6.741   4.244   6.831  0.9167 -1.5677 -3.8054
  128MOL   H35948873   6.894   4.158   6.802 -0.9009  1.8896 -3.7100
  128MOL   H36048874   6.821   4.279   7.083  0.4373 -1.8524  1.8770
  128MOL   H36148875   6.961   4.176   7.048  0.6983  2.7109  2.9973
  128MOL   H36248876   6.793   4.116   7.035 -0.2527  0.0425 -1.4416
  128MOL   C36348877   6.493   4.591   6.856 -0.1737 -1.0601 -0.4449
  128MOL   C36448878   6.464   4.497   6.973 -0.0080  0.9322 -0.0485
  128MOL   O36548879   6.327   4.466   6.961  0.0297  0.5781 -0.0033
  128MOL   C36648880   6.297   4.354   7.043  0.5065 -0.0472 -0.3344
  128MOL   C36748881   6.154   4.311   7.022 -0.6100  0.2361  0.3772
  128MOL   C36848882   6.123   4.245   6.885 -0.5583 -0.4764  0.0098
  128MOL   C36948883   5.973   4.220   6.854  0.0911  0.5022 -0.3452
  128MOL   H37048884   6.442   4.553   6.768 -2.6174 -0.0353  0.5074
  128MOL   H37148885   6.439   4.682   6.881 -0.3567 -1.1672 -0.4563
  128MOL   H37248886   6.490   4.537   7.071  1.3829 -1.4104  0.6013
  128MOL   H37348887   6.299   4.378   7.149  0.3110 -2.3977  0.2207
  128MOL   H37448888   6.359   4.269   7.014 -0.3088 -0.9038  0.4091
  128MOL   H37548889   6.088   4.397   7.036  0.9209  1.5138 -0.1048
  128MOL   H37648890   6.137   4.246   7.108 -2.1978  1.2916  0.8892
  128MOL   H37748891   6.187   4.156   6.878  0.6876  0.5535 -2.3272
  128MOL   H37848892   6.166   4.312   6.811  0.9345 -0.4678  0.8808
  128MOL   H37948893   5.944   4.137   6.918  0.6098  0.1914 -0.5118
  128MOL   H38048894   5.912   4.307   6.878  0.6998  1.3305 -1.7686
  128MOL   H38148895   5.951   4.193   6.751  0.2421 -0.8308 -0.0270
  128MOL   H38248896   6.526   4.408   6.966 -1.6506 -0.3068  0.7316
  129MOL     C148897   5.879   2.780   5.724  0.4615  0.2459 -0.4651
  129MOL     C248898   5.797   2.868   5.828 -1.3592 -1.3577 -0.0217
  129MOL     O348899   5.667   2.899   5.772 -1.1765 -0.3370  0.5390
  129MOL     C448900   5.623   3.032   5.808  0.3245  0.1418 -0.6631
  129MOL     C548901   5.481   3.052   5.759 -0.6626  0.5402  0.0798
  129MOL     C648902   5.478   3.056   5.605 -0.4502 -0.5551 -0.1535
  129MOL     C748903   5.339   3.108   5.549  0.2424 -0.3215  0.2597
  129MOL     H848904   5.986   2.773   5.741  0.4787  0.5593 -0.4426
  129MOL     H948905   5.833   2.681   5.726  0.5402  0.2249  0.9653
  129MOL    H1048906   5.865   2.949   5.855 -2.1153 -0.5462 -0.5287
  129MOL    H1148907   5.611   3.039   5.916  0.1440 -0.9010 -0.6077
  129MOL    H1248908   5.688   3.114   5.779 -1.3896 -0.0017 -5.2850
  129MOL    H1348909   5.441   3.148   5.793  1.2760  0.4812  2.7078
  129MOL    H1448910   5.408   2.980   5.797 -0.2781  1.0807  1.9157
  129MOL    H1548911   5.484   2.963   5.548  2.7942 -0.8735  0.5752
  129MOL    H1648912   5.555   3.130   5.581 -1.7217  0.8355  0.0037
  129MOL    H1748913   5.330   3.207   5.593  0.7842 -0.2060  0.1125
  129MOL    H1848914   5.251   3.052   5.582  0.0918  0.0037  0.4128
  129MOL    H1948915   5.339   3.122   5.441  2.4063 -2.3505 -0.0408
  129MOL    H2048916   5.886   2.825   5.625  0.6083 -1.1639 -1.1064
  129MOL    C2148917   5.763   2.790   5.958 -0.0396 -0.5609 -0.2012
  129MOL    C2248918   5.878   2.723   6.034 -0.0417  0.5464  0.4966
  129MOL    O2348919   5.951   2.823   6.107 -0.1273 -0.0728 -0.1650
  129MOL    C2448920   6.073   2.876   6.058 -0.0346 -0.9653 -0.6204
  129MOL    C2548921   6.142   2.958   6.164 -0.1470  0.3289 -0.2970
  129MOL    C2648922   6.177   2.870   6.288 -0.0258  0.6716 -0.3883
  129MOL    C2748923   6.280   2.947   6.379 -0.1053  0.5948 -0.2869
  129MOL    H2848924   5.700   2.707   5.925 -1.4293  0.8922 -1.2876
  129MOL    H2948925   5.704   2.859   6.017  1.5574  0.9231 -0.3160
  129MOL    H3048926   5.934   2.661   5.964 -0.4965 -0.6584  1.1724
  129MOL    H3148927   6.058   2.958   5.988  2.4164  0.1180  0.0576
  129MOL    H3248928   6.139   2.803   6.012  1.6447  0.2171 -0.1689
  129MOL    H3348929   6.233   2.997   6.121  1.3019  1.2400  3.3907
  129MOL    H3448930   6.079   3.039   6.201 -1.3562  0.0870 -1.7548
  129MOL    H3548931   6.092   2.837   6.348  0.3396  3.0923  1.5167
  129MOL    H3648932   6.234   2.784   6.253 -1.2160  0.8450 -2.8265
  129MOL    H3748933   6.331   2.889   6.456 -1.5616 -1.1641 -0.6152
  129MOL    H3848934   6.351   2.994   6.312 -0.8240  1.3681 -0.5080
  129MOL    H3948935   6.228   3.018   6.444 -0.1658  0.6886 -0.4400
  129MOL    C4048936   5.821   2.631   6.147  0.6247  0.0794  0.1092
  129MOL    C4148937   5.920   2.556   6.236  1.1286  0.1643  0.7677
  129MOL    O4248938   5.985   2.462   6.145 -0.1456  0.3070 -0.1882
  129MOL    C4348939   6.129   2.440   6.154 -0.5054  0.4566 -0.0862
  129MOL    C4448940   6.193   2.379   6.024  0.0471  0.6539  0.3009
  129MOL    C4548941   6.346   2.360   6.034 -0.1334 -0.1352  0.5985
  129MOL    C4648942   6.407   2.293   5.898 -0.0904 -0.0701 -0.5810
  129MOL    H4748943   5.771   2.542   6.106  0.9601  0.8518 -2.0529
  129MOL    H4848944   5.745   2.681   6.206 -1.2234 -1.9883 -0.4503
  129MOL    H4948945   5.985   2.633   6.277  0.6688 -0.1659  2.1484
  129MOL    H5048946   6.153   2.375   6.237  0.6300 -1.7047 -2.0403
  129MOL    H5148947   6.171   2.539   6.172 -0.7059  1.1092 -2.8909
  129MOL    H5248948   6.168   2.442   5.939 -1.1353  1.9118  1.5454
  129MOL    H5348949   6.150   2.284   5.994  2.7645 -0.6343  0.3473
  129MOL    H5448950   6.363   2.296   6.120 -1.9475 -1.2839  0.1454
  129MOL    H5548951   6.394   2.453   6.064 -1.2563  0.3519  0.9037
  129MOL    H5648952   6.511   2.265   5.912 -0.0195 -0.0392 -1.0350
  129MOL    H5748953   6.338   2.212   5.877  1.5228 -2.6375  3.4156
  129MOL    H5848954   6.404   2.367   5.818  0.0539 -0.1903 -0.6979
  129MOL    C5948955   5.851   2.481   6.350 -0.3348  0.2517 -0.4536
  129MOL    C6048956   5.927   2.414   6.470 -0.0126  1.2904 -0.2698
  129MOL    O6148957   5.991   2.519   6.534  0.1533  0.7306  0.0788
  129MOL    C6248958   6.131   2.516   6.552 -0.0279  0.1611 -0.3213
  129MOL    C6348959   6.154   2.651   6.614 -0.1373  0.3232 -0.0628
  129MOL    C6448960   6.112   2.656   6.759 -0.3059  0.3338 -0.0466
  129MOL    C6548961   6.176   2.770   6.841  0.1337 -0.7571  0.3262
  129MOL    H6648962   5.794   2.554   6.406  1.1452  0.7542  0.4152
  129MOL    H6748963   5.783   2.409   6.304 -1.7457 -1.1268  3.6006
  129MOL    H6848964   5.999   2.348   6.422 -2.0821 -0.0512 -1.6021
  129MOL    H6948965   6.170   2.518   6.450  2.3686 -1.8592  0.4939
  129MOL    H7048966   6.156   2.428   6.612 -1.4277 -0.0518 -0.0320
  129MOL    H7148967   6.261   2.670   6.605 -0.1746  0.8396  0.5373
  129MOL    H7248968   6.103   2.727   6.556  0.4427  0.6698 -0.1308
  129MOL    H7348969   6.003   2.660   6.767 -0.3341 -0.1409 -0.2212
  129MOL    H7448970   6.142   2.563   6.806 -2.8337  0.1786  1.3439
  129MOL    H7548971   6.148   2.866   6.798  0.6013 -1.0908 -0.7182
  129MOL    H7648972   6.120   2.761   6.935 -3.1627  1.1304 -1.3538
  129MOL    H7748973   6.283   2.759   6.855 -0.0893 -0.8737  2.0992
  129MOL    C7848974   5.834   2.345   6.569  0.1683  0.1835 -0.5973
  129MOL    C7948975   5.902   2.237   6.662 -0.6619 -0.0419  0.5862
  129MOL    O8048976   5.793   2.148   6.686  0.7181 -0.4619  0.0034
  129MOL    C8148977   5.815   2.014   6.630 -0.4404  0.1465 -0.7416
  129MOL    C8248978   5.683   1.935   6.650  0.0191  0.3387  0.0034
  129MOL    C8348979   5.695   1.789   6.593  0.0934 -0.7269  0.0408
  129MOL    C8448980   5.573   1.704   6.632 -0.0750 -0.0419  0.2513
  129MOL    H8548981   5.758   2.291   6.511  0.3345 -1.1766  0.4253
  129MOL    H8648982   5.772   2.416   6.623 -0.4373 -3.0479  3.1963
  129MOL    H8748983   5.987   2.195   6.609 -1.0474  1.1687 -1.0609
  129MOL    H8848984   5.897   1.967   6.685 -1.1913  2.1241  2.1835
  129MOL    H8948985   5.835   2.021   6.523 -0.2397 -0.1446 -0.7233
  129MOL    H9048986   5.655   1.931   6.755 -0.4281 -0.0289 -0.1266
  129MOL    H9148987   5.602   1.989   6.600  1.3650  0.5841 -1.9859
  129MOL    H9248988   5.780   1.741   6.641  0.5165  0.2965  0.3447
  129MOL    H9348989   5.712   1.792   6.486 -0.6079  2.2183 -0.0466
  129MOL    H9448990   5.578   1.612   6.574  0.9566  0.2548 -0.1448
  129MOL    H9548991   5.585   1.672   6.736  2.4632 -0.3023 -0.0815
  129MOL    H9648992   5.478   1.752   6.608  0.7686  0.9783 -1.1473
  129MOL    C9748993   5.944   2.307   6.793 -0.1833  0.0836  0.3770
  129MOL    C9848994   5.994   2.205   6.897  0.4175 -0.7483 -0.5924
  129MOL    O9948995   6.106   2.151   6.831 -0.0307  0.0300 -0.3786
  129MOL   C10048996   6.140   2.010   6.840  0.6047 -0.2088 -1.2678
  129MOL   C10148997   6.196   1.969   6.978 -0.0621  0.2155 -0.3266
  129MOL   C10248998   6.321   2.042   7.020  0.2607 -0.0367  0.2929
  129MOL   C10348999   6.360   2.001   7.165  0.1764  0.3880  0.6477
  129MOL   H10449000   5.852   2.357   6.823 -0.3129  0.2571 -0.3006
  129MOL   H10549001   6.028   2.372   6.769  0.0223 -1.0131 -2.0858
  129MOL   H10649002   5.915   2.132   6.911 -3.1360  3.3479  1.9820
  129MOL   H10749003   6.202   1.974   6.757  0.7992 -1.1009 -0.7521
  129MOL   H10849004   6.052   1.949   6.819 -0.2103 -0.3468  2.2289
  129MOL   H10949005   6.215   1.862   6.985  1.4379  0.4845 -0.1068
  129MOL   H11049006   6.120   1.987   7.054 -0.7900 -0.1891 -0.9477
  129MOL   H11149007   6.314   2.151   7.018 -1.3818 -0.1208  0.6899
  129MOL   H11249008   6.404   2.018   6.954  0.6142  1.1238  0.3004
  129MOL   H11349009   6.460   2.035   7.194  1.6012 -2.8049 -0.2273
  129MOL   H11449010   6.288   2.044   7.233 -1.9257  0.5812 -1.6396
  129MOL   H11549011   6.354   1.892   7.172  0.4656  0.2404 -1.1496
  129MOL   C11649012   6.047   2.284   7.021 -0.0594  0.2091  0.4808
  129MOL   C11749013   5.939   2.369   7.097 -0.4183  0.1297  0.0451
  129MOL   O11849014   5.860   2.272   7.158 -0.1707  0.3367  0.1990
  129MOL   C11949015   5.726   2.286   7.108  0.2641  0.3729 -0.2042
  129MOL   C12049016   5.640   2.193   7.190 -0.3893  0.0976  0.0219
  129MOL   C12149017   5.634   2.225   7.347 -0.5495  0.1755  0.6870
  129MOL   C12249018   5.510   2.156   7.407 -0.0853 -0.3886 -0.0717
  129MOL   H12349019   6.093   2.213   7.090  0.1960 -0.0127  0.0844
  129MOL   H12449020   6.113   2.364   6.988  1.0933 -0.2827  1.5584
  129MOL   H12549021   5.887   2.437   7.029 -2.2119  1.7408  2.9658
  129MOL   H12649022   5.709   2.267   7.002 -1.0990  0.3231  0.0206
  129MOL   H12749023   5.690   2.389   7.108 -1.7187 -0.3058 -0.6029
  129MOL   H12849024   5.664   2.087   7.183  2.6855  0.8649 -2.3881
  129MOL   H12949025   5.541   2.204   7.145  0.1575 -1.4503 -1.6298
  129MOL   H13049026   5.729   2.189   7.386  0.3949  0.3479 -1.4119
  129MOL   H13149027   5.629   2.331   7.371 -0.7413 -0.2055  2.3755
  129MOL   H13249028   5.528   2.050   7.390 -2.8353 -0.7550 -0.9487
  129MOL   H13349029   5.417   2.190   7.362 -1.0856 -1.2957  1.2949
  129MOL   H13449030   5.496   2.179   7.512  2.5258  0.1376  0.2131
  129MOL   C13549031   5.995   2.461   7.205 -0.4743 -0.2516  0.5393
  129MOL   C13649032   5.892   2.553   7.270  0.6208 -0.4388  0.7987
  129MOL   O13749033   5.927   2.590   7.401 -0.2012 -0.4756  0.3079
  129MOL   C13849034   5.879   2.507   7.509 -0.3118 -0.5279 -0.4237
  129MOL   C13949035   5.953   2.541   7.636  0.1071  0.4887 -0.1068
  129MOL   C14049036   5.904   2.455   7.758 -0.3888 -0.0765 -0.3277
  129MOL   C14149037   5.986   2.477   0.079 -0.0259 -0.5352 -1.1570
  129MOL   H14249038   6.081   2.513   7.163 -0.5113 -1.1732 -0.6916
  129MOL   H14349039   6.040   2.387   7.272 -1.6435 -2.2420 -0.8068
  129MOL   H14449040   5.792   2.510   7.273 -0.0529  0.9189 -1.1453
  129MOL   H14549041   5.894   2.404   7.476  0.6811 -1.5900  3.0906
  129MOL   H14649042   5.773   2.519   7.531 -0.6237  2.0832 -3.0858
  129MOL   H14749043   5.938   2.647   7.659 -1.3508  0.1439  0.6074
  129MOL   H14849044   6.060   2.530   7.619 -0.1437 -1.0390 -0.7194
  129MOL   H14949045   5.798   2.480   7.762 -0.9598 -2.3631 -0.6452
  129MOL   H15049046   5.910   2.350   7.729  1.4665  0.2684 -1.2533
  129MOL   H15149047   5.931   2.429   0.160  2.4916 -1.7035 -0.1249
  129MOL   H15249048   6.079   2.424   0.060  1.0400  0.6939  0.5437
  129MOL   H15349049   5.985   2.583   0.107 -1.0571 -0.4892 -1.3220
  129MOL   C15449050   5.880   2.682   7.185  0.0092  0.2487 -0.6569
  129MOL   C15549051   5.753   2.764   7.217  0.3347  0.0716  0.1945
  129MOL   O15649052   5.641   2.682   7.182  0.5955  0.5105 -0.1217
  129MOL   C15749053   5.514   2.712   7.238  0.3329 -0.7203 -0.7436
  129MOL   C15849054   5.398   2.615   7.191 -0.0126 -0.3344  0.1034
  129MOL   C15949055   5.408   2.464   7.231 -0.5572 -0.2292 -0.1153
  129MOL   C16049056   5.282   2.387   7.193  0.0715  0.2758  0.7010
  129MOL   H16149057   5.883   2.659   7.079  3.5836  1.7680 -0.9441
  129MOL   H16249058   5.972   2.738   7.196 -0.4109  0.6454  0.9653
  129MOL   H16349059   5.736   2.787   7.323 -0.9484 -0.3358  0.0902
  129MOL   H16449060   5.525   2.709   7.347  1.5889 -2.5512 -0.9074
  129MOL   H16549061   5.483   2.813   7.210  0.5993 -0.4449 -0.0536
  129MOL   H16649062   5.400   2.629   7.083  0.3241 -2.2036 -0.1400
  129MOL   H16749063   5.312   2.665   7.236  0.2686 -0.8673  1.2277
  129MOL   H16849064   5.497   2.421   7.185  0.3587  1.4435  0.0422
  129MOL   H16949065   5.417   2.459   7.340 -0.4592  0.1036 -0.1062
  129MOL   H17049066   5.195   2.411   7.253  1.2997  0.3295  2.5014
  129MOL   H17149067   5.252   2.410   7.091 -2.0932 -2.0408  0.7631
  129MOL   H17249068   5.286   2.278   7.191  1.3602  0.2232  3.3607
  129MOL   C17349069   5.748   2.902   7.142  0.2464  0.1568  0.3428
  129MOL   C17449070   5.858   2.997   7.193  0.4880  0.5385 -0.6370
  129MOL   O17549071   5.890   3.101   7.097  0.6487  0.1274  0.0834
  129MOL   C17649072   5.975   3.044   6.996  0.1080  0.2610  0.2513
  129MOL   C17749073   5.960   3.154   6.891 -0.0458  0.3349 -0.6985
  129MOL   C17849074   6.054   3.157   6.764  0.6133  0.0602  0.2944
  129MOL   C17949075   6.042   3.289   6.692 -0.2447  0.2395  0.5284
  129MOL   H18049076   5.650   2.947   7.152  0.2969  0.1572  0.8737
  129MOL   H18149077   5.758   2.890   7.035  1.1451  1.0055  0.3197
  129MOL   H18249078   5.952   2.946   7.215  1.5795  2.1487 -1.4638
  129MOL   H18349079   5.932   2.952   6.954 -2.8078  1.5669  0.2188
  129MOL   H18449080   6.075   3.018   7.029 -1.4955 -3.9790  2.3001
  129MOL   H18549081   5.977   3.247   6.946  1.0330 -1.0250  1.3470
  129MOL   H18649082   5.856   3.147   6.860 -0.9964  0.2924  2.3722
  129MOL   H18749083   6.157   3.150   6.798  0.2044  1.4294  1.8774
  129MOL   H18849084   6.037   3.073   6.696 -0.4446  2.5804 -2.6383
  129MOL   H18949085   5.937   3.306   6.669  0.0292  0.0553 -0.9365
  129MOL   H19049086   6.084   3.375   6.746  0.0316 -1.2064  2.6667
  129MOL   H19149087   6.096   3.288   6.597  0.1707 -1.4516  0.7710
  129MOL   C19249088   5.826   3.069   7.325 -0.5773 -0.3389  0.1778
  129MOL   C19349089   5.907   3.018   7.447 -0.1654  0.2060  0.3956
  129MOL   O19449090   6.048   3.013   7.416 -0.2141  0.1758 -0.7744
  129MOL   C19549091   6.110   2.899   7.456  0.0432  1.0413 -0.1585
  129MOL   C19649092   6.257   2.911   7.438 -0.0026 -0.3766  0.2380
  129MOL   C19749093   6.295   2.912   7.291 -0.0133  0.1011 -0.3243
  129MOL   C19849094   6.441   2.953   7.278  0.1419  0.5561  0.8118
  129MOL   H19949095   5.721   3.079   7.352 -0.2440 -1.8211  2.1438
  129MOL   H20049096   5.857   3.170   7.299 -3.0388  0.5451  0.5621
  129MOL   H20149097   5.875   2.914   7.449 -0.4238  0.2894  0.6763
  129MOL   H20249098   6.078   2.807   7.406  2.3900 -0.4442  0.9742
  129MOL   H20349099   6.089   2.888   7.562  1.6340 -0.5066  0.0376
  129MOL   H20449100   6.285   3.005   7.485  0.6474 -0.6037  0.3062
  129MOL   H20549101   6.309   2.826   7.483  4.0268  0.4844 -2.5367
  129MOL   H20649102   6.233   2.993   7.253 -0.1036  0.6586  0.9975
  129MOL   H20749103   6.271   2.819   7.238  1.7023 -0.5100 -0.0624
  129MOL   H20849104   6.461   2.963   7.171  0.6508 -0.6261  0.7859
  129MOL   H20949105   6.471   3.042   7.334  0.2857  2.1745 -1.7533
  129MOL   H21049106   6.508   2.879   7.322 -2.1679 -1.2340  1.4271
  129MOL   C21149107   5.880   3.096   7.577  0.2353  0.4338 -0.3444
  129MOL   C21249108   5.741   3.078   7.653 -0.6809  0.0458  0.3937
  129MOL   O21349109   5.736   2.935   7.688  0.2525 -0.2737  0.9497
  129MOL   C21449110   5.607   2.885   7.666  0.3040 -0.6475  0.4791
  129MOL   C21549111   5.616   2.736   7.714 -0.1119  0.0222  0.0802
  129MOL   C21649112   5.480   2.679   7.734 -0.1213  0.3901 -0.6550
  129MOL   C21749113   5.470   2.527   7.767  0.0502 -0.0809  0.0514
  129MOL   H21849114   5.888   3.202   7.551  1.5478  0.7821  1.3685
  129MOL   H21949115   5.960   3.072   7.647  0.9101  0.6786 -1.0159
  129MOL   H22049116   5.656   3.099   7.588 -1.2835 -2.0934  0.4386
  129MOL   H22149117   5.532   2.942   7.721  0.9812  1.7002 -0.9533
  129MOL   H22249118   5.580   2.891   7.561 -0.1662  0.0896  0.6371
  129MOL   H22349119   5.675   2.684   7.638  0.3636  0.5878  0.0579
  129MOL   H22449120   5.670   2.724   0.006  0.6514  1.9137 -0.0988
  129MOL   H22549121   5.427   2.696   7.640  0.2177 -0.3894 -0.9970
  129MOL   H22649122   5.434   2.746   0.005 -0.1128  0.4290 -0.6865
  129MOL   H22749123   5.365   2.502   7.757 -0.0720 -0.4482  2.0666
  129MOL   H22849124   5.514   2.497   0.061  2.4770 -0.9779 -1.2886
  129MOL   H22949125   5.525   2.466   7.695  1.6376  1.8313 -0.3985
  129MOL   C23049126   5.732   3.163   7.786  0.6260  0.4262 -0.4877
  129MOL   C23149127   5.746   3.317   7.775 -0.3156 -0.2717  0.4748
  129MOL   O23249128   5.880   3.343   7.756  0.1770 -0.3102  0.5145
  129MOL   C23349129   5.953   3.368   0.074  0.1883 -0.4332  0.4795
  129MOL   C23449130   6.097   3.381   0.017  0.5571  0.2205 -0.2642
  129MOL   C23549131   6.159   3.262   7.746 -0.0413  0.0209  0.2379
  129MOL   C23649132   6.309   3.281   7.717  0.1426 -0.4649  0.6514
  129MOL   H23749133   5.795   3.121   0.062  0.2105 -0.8438 -0.8265
  129MOL   H23849134   5.628   3.147   0.013  0.5642 -0.9427 -1.3975
  129MOL   H23949135   5.707   3.354   0.068 -1.6755  1.1583 -0.6249
  129MOL   H24049136   5.923   3.456   0.132 -0.6231 -1.4236  1.5890
  129MOL   H24149137   5.945   3.284   0.143  0.0276 -0.6235  0.2316
  129MOL   H24249138   6.110   3.470   7.757 -0.3239 -2.1827 -4.1500
  129MOL   H24349139   6.146   3.393   0.113  0.6658  0.7481 -0.3867
  129MOL   H24449140   6.111   3.257   7.649 -2.1483 -0.3312  1.2772
  129MOL   H24549141   6.135   3.170   7.800  0.8616 -1.1663 -1.3519
  129MOL   H24649142   6.375   3.290   0.002  2.0927 -2.1928 -0.6033
  129MOL   H24749143   6.328   3.376   7.667  3.5176  0.9239  4.3271
  129MOL   H24849144   6.348   3.198   7.657 -1.0704 -0.9354  0.4931
  129MOL   C24949145   5.669   3.379   7.660  0.5896 -0.1043 -0.6760
  129MOL   C25049146   5.662   3.529   7.671  0.1426 -0.2194 -0.3732
  129MOL   O25149147   5.574   3.558   7.774  1.1065  0.0815 -0.2499
  129MOL   C25249148   5.597   3.678   0.036  0.1076 -0.4305 -0.0591
  129MOL   C25349149   5.494   3.679   0.151 -0.2065  0.2599  0.4072
  129MOL   C25449150   5.494   3.549   0.238  0.5063  0.0851  0.2598
  129MOL   C25549151   5.397   3.545   0.357  0.3775 -0.1423  0.2750
  129MOL   H25649152   5.567   3.343   7.650 -0.1438  1.6556  0.3766
  129MOL   H25749153   5.725   3.349   7.571 -1.0147 -1.3841 -1.2744
  129MOL   H25849154   5.763   3.556   7.702 -0.5259  0.0226  1.6752
  129MOL   H25949155   5.595   3.775   7.787 -0.6596  1.5692  3.6184
  129MOL   H26049156   5.695   3.684   0.083  0.6334 -0.7685 -1.0929
  129MOL   H26149157   5.534   3.753   0.220  2.7666 -0.7893 -0.1126
  129MOL   H26249158   5.391   3.701   0.121 -0.3202 -1.9327 -0.9767
  129MOL   H26349159   5.490   3.452   0.188 -1.8802  0.5675 -0.5399
  129MOL   H26449160   5.597   3.549   0.276  1.9052  1.0192 -3.2971
  129MOL   H26549161   5.402   3.631   0.423  0.1614  0.5509 -0.5907
  129MOL   H26649162   5.400   3.446   0.403 -0.5225  0.6944  2.1821
  129MOL   H26749163   5.296   3.560   0.318  0.9574  0.6342 -0.9503
  129MOL   C26849164   5.619   3.597   7.537 -0.0525 -0.3107  0.5265
  129MOL   C26949165   5.739   3.596   7.437 -0.1061 -0.4196  0.4392
  129MOL   O27049166   5.697   3.573   7.302 -0.3494 -0.4601 -0.4637
  129MOL   C27149167   5.685   3.433   7.274  0.2943  0.3855 -0.4909
  129MOL   C27249168   5.679   3.399   7.125  0.7149  0.6407 -0.2372
  129MOL   C27349169   5.774   3.471   7.028  0.1606  0.0228 -0.6174
  129MOL   C27449170   5.734   3.449   6.884  0.0345  0.0662 -0.5057
  129MOL   H27549171   5.536   3.540   7.494 -2.3886  1.8797  1.9989
  129MOL   H27649172   5.589   3.700   7.551  1.9043  0.0273  2.4157
  129MOL   H27749173   5.813   3.523   7.471  0.2713 -0.6955 -0.9477
  129MOL   H27849174   5.769   3.381   7.321 -0.2552  0.7438  0.9205
  129MOL   H27949175   5.591   3.398   7.317  1.8806 -0.5240  2.3772
  129MOL   H28049176   5.693   3.291   7.121 -2.6525  0.1191  0.6078
  129MOL   H28149177   5.581   3.434   7.092 -0.8573 -1.1013  2.3210
  129MOL   H28249178   5.877   3.436   7.039  0.4957  1.0772 -0.3533
  129MOL   H28349179   5.766   3.575   7.058  1.4474  0.1511 -0.6898
  129MOL   H28449180   5.630   3.483   6.886 -0.0573 -0.2619  2.8994
  129MOL   H28549181   5.729   3.344   6.855  1.8326 -0.3590  0.6493
  129MOL   H28649182   5.794   3.497   6.807 -1.1130 -0.0491 -1.4884
  129MOL   C28749183   5.815   3.729   7.435 -0.9834  1.0788  0.0419
  129MOL   C28849184   5.943   3.726   7.350 -0.1391  0.0925  0.2158
  129MOL   O28949185   6.032   3.619   7.388 -0.3033 -0.1823 -0.1622
  129MOL   C29049186   6.065   3.524   7.283  1.1265 -0.5555 -0.4207
  129MOL   C29149187   6.168   3.430   7.345  0.0838 -0.4743 -0.3424
  129MOL   C29249188   6.187   3.298   7.275 -0.5308  1.2373  0.2481
  129MOL   C29349189   6.216   3.317   7.129 -0.3781 -0.0777 -0.3697
  129MOL   H29449190   5.832   3.759   7.538 -0.9299 -3.3858  1.4264
  129MOL   H29549191   5.753   3.810   7.396 -0.1833  1.4244 -0.5273
  129MOL   H29649192   5.900   3.701   7.254  1.1122  1.1486 -0.6420
  129MOL   H29749193   5.978   3.467   7.251  0.5458  0.6449 -0.9819
  129MOL   H29849194   6.093   3.581   7.195 -1.4981  0.6692 -0.5012
  129MOL   H29949195   6.136   3.401   7.445 -1.6483 -1.3331 -1.1115
  129MOL   H30049196   6.262   3.484   7.354 -1.3777  2.0918  0.0761
  129MOL   H30149197   6.098   3.236   7.283  0.5442 -0.3907 -0.0126
  129MOL   H30249198   6.265   3.243   7.328 -1.3447  0.5203  0.7129
  129MOL   H30349199   6.318   3.349   7.107 -0.1559  0.0557  0.8683
  129MOL   H30449200   6.204   3.229   7.065  1.7947 -0.2892 -0.5258
  129MOL   H30549201   6.151   3.393   7.086 -2.7228 -1.9108 -0.1685
  129MOL   C30649202   6.017   3.859   7.351 -0.5687  0.3711  0.5180
  129MOL   C30749203   6.061   3.914   7.495  0.1959 -0.6174  0.0118
  129MOL   O30849204   6.088   4.051   7.477  0.1468 -0.2637 -0.4124
  129MOL   C30949205   5.987   4.143   7.478  0.0606  0.4062 -0.5836
  129MOL   C31049206   6.057   4.276   7.448 -0.2401 -0.6236  0.5542
  129MOL   C31149207   5.953   4.375   7.404  0.5234 -0.5425 -0.0254
  129MOL   C31249208   6.018   4.507   7.372 -0.4078 -0.1452 -0.2044
  129MOL   H31349209   6.102   3.846   7.284 -2.2690  0.1778 -1.6637
  129MOL   H31449210   5.962   3.919   7.278 -1.4400 -0.5089  0.4485
  129MOL   H31549211   5.984   3.913   7.572 -0.6661  2.1411 -0.7444
  129MOL   H31649212   5.934   4.156   7.573 -1.8445  1.3036 -1.7392
  129MOL   H31749213   5.913   4.127   7.399  1.5052 -1.8406 -1.5393
  129MOL   H31849214   6.128   4.250   7.369  0.4751  0.5374  0.7955
  129MOL   H31949215   6.108   4.305   7.540  1.9827 -0.6467 -0.6309
  129MOL   H32049216   5.897   4.340   7.317  1.7546  1.2317 -1.5854
  129MOL   H32149217   5.885   4.391   7.488  2.4281  0.9153  1.2985
  129MOL   H32249218   6.092   4.497   7.293 -0.3262 -1.8168  0.0662
  129MOL   H32349219   6.066   4.545   7.462 -0.6659  1.9512 -0.9109
  129MOL   H32449220   5.948   4.583   7.336 -3.5657 -1.0794  3.6587
  129MOL   C32549221   6.186   3.850   7.556  0.1500 -0.5197  0.1800
  129MOL   C32649222   6.237   3.915   7.686 -0.0897 -0.1955 -0.4754
  129MOL   O32749223   6.154   3.878   7.794  0.0970 -0.5340 -0.2301
  129MOL   C32849224   6.073   3.984   0.046 -0.3188  0.4583 -0.2856
  129MOL   C32949225   6.009   3.942   0.174  0.2419 -0.2680  0.0293
  129MOL   C33049226   5.923   3.815   0.163  0.4015 -0.3423 -0.7001
  129MOL   C33149227   5.849   3.781   0.296  0.4456 -0.2128 -0.6294
  129MOL   H33249228   6.264   3.856   7.480  0.4847  1.2251  0.6368
  129MOL   H33349229   6.166   3.743   7.568  1.0734 -0.8327 -0.9832
  129MOL   H33449230   6.231   4.022   7.670  1.4080  0.1204  1.0110
  129MOL   H33549231   6.000   4.024   7.777 -0.7481 -0.4814 -0.3892
  129MOL   H33649232   6.137   4.066   0.079 -0.8573  0.4253  0.8679
  129MOL   H33749233   6.074   3.928   0.261  0.5304 -0.0939 -0.1559
  129MOL   H33849234   5.951   4.028   0.206 -0.8649 -0.6077 -1.0644
  129MOL   H33949235   5.990   3.731   0.145  0.6706 -0.7348  2.0150
  129MOL   H34049236   5.851   3.817   0.081 -0.9205  1.9183  0.4806
  129MOL   H34149237   5.776   3.701   0.283 -0.9206  1.0302 -0.7899
  129MOL   H34249238   5.780   3.851   0.344  1.6828 -1.5416  3.3716
  129MOL   H34349239   5.919   3.746   0.372 -1.3559 -1.2979  0.5832
  129MOL   C34449240   6.383   3.873   7.718  0.1138 -0.2511  0.5523
  129MOL   C34549241   6.454   3.948   0.035 -0.0004  0.1816  0.0416
  129MOL   O34649242   6.496   4.067   7.769 -0.3473  0.0084 -0.2492
  129MOL   C34749243   6.491   4.192   0.039 -0.0122 -0.5900  0.7647
  129MOL   C34849244   6.373   4.263   7.781  0.2250  0.7323 -0.5012
  129MOL   C34949245   6.391   4.412   0.008  0.1271  1.1609 -0.8364
  129MOL   C35049246   6.258   4.486   7.768 -0.5099 -0.0780  0.0592
  129MOL   H35149247   6.374   3.771   7.754 -0.1244 -0.9549 -1.4883
  129MOL   H35249248   6.446   3.862   7.630 -0.7002 -0.8043  0.0428
  129MOL   H35349249   6.391   3.978   0.118  1.5316 -0.3957  1.4468
  129MOL   H35449250   6.581   4.245   0.009 -1.9526  1.1540 -2.1899
  129MOL   H35549251   6.502   4.196   0.147 -0.5045  2.1529  0.7437
  129MOL   H35649252   6.294   4.215   0.036  0.5972 -2.2072 -2.4163
  129MOL   H35749253   6.373   4.221   7.681  0.9716  3.1398 -1.5612
  129MOL   H35849254   6.399   4.431   0.115 -0.5284 -0.3690 -0.5066
  129MOL   H35949255   6.484   4.452   7.768 -0.2355 -1.0441 -4.0219
  129MOL   H36049256   6.180   4.469   0.040 -0.6977  2.2376  0.4315
  129MOL   H36149257   6.229   4.465   7.665 -0.1198  1.4312 -0.3711
  129MOL   H36249258   6.271   4.592   7.788  0.8687 -0.0646 -0.8217
  129MOL   C36349259   6.582   3.875   0.085 -0.2655 -0.3075  0.0757
  129MOL   C36449260   6.559   3.745   0.167  0.4849 -0.3060  0.1663
  129MOL   O36549261   6.677   3.667   0.165 -0.7885 -0.5311 -0.3994
  129MOL   C36649262   6.651   3.533   0.213 -0.6195  0.2069 -0.6492
  129MOL   C36749263   6.773   3.437   0.204  0.1361 -0.2822  0.0795
  129MOL   C36849264   6.902   3.487   0.266  0.0619 -0.1194  0.5081
  129MOL   C36949265   6.870   3.547   0.406  0.2681  0.0965 -0.0519
  129MOL   H37049266   6.642   3.939   0.149 -0.7890  0.5347 -0.2587
  129MOL   H37149267   6.636   3.857   7.794 -0.6348 -2.2038  0.2152
  129MOL   H37249268   6.480   3.684   0.122  0.9178 -0.6236 -0.1706
  129MOL   H37349269   6.565   3.490   0.161 -0.9232  0.6443 -0.5029
  129MOL   H37449270   6.620   3.543   0.317  1.9474  0.9109  0.0800
  129MOL   H37549271   6.793   3.403   0.102  0.7960  2.1167 -0.6293
  129MOL   H37649272   6.756   3.355   0.273  3.4469 -1.5785 -0.5140
  129MOL   H37749273   6.948   3.557   0.197  0.4653 -0.8077  0.0650
  129MOL   H37849274   6.962   3.396   0.271  0.5630  0.2213  0.7901
  129MOL   H37949275   6.959   3.589   0.452 -0.3215 -0.0310  1.2234
  129MOL   H38049276   6.798   3.629   0.404  0.8001  0.5723  0.1956
  129MOL   H38149277   6.835   3.469   0.474  0.3334 -0.6166 -0.8270
  129MOL   H38249278   6.545   3.782   0.268  0.2749  0.8704 -0.2855
  130MOL     C149279   2.417   1.410   5.249  0.1305  0.1769 -0.6316
  130MOL     C249280   2.542   1.344   5.310  0.5518 -0.1237 -0.2059
  130MOL     O349281   2.546   1.381   5.449  0.3663 -0.3603 -0.5001
  130MOL     C449282   2.633   1.492   5.471  0.2129 -0.0508  0.3254
  130MOL     C549283   2.700   1.484   5.607  0.3252  0.1406  0.0883
  130MOL     C649284   2.777   1.611   5.648 -0.2445 -0.4019  0.0666
  130MOL     C749285   2.772   1.647   5.795 -0.0778  0.0383 -0.2239
  130MOL     H849286   2.370   1.365   5.162 -0.2908  1.0803 -0.8723
  130MOL     H949287   2.342   1.411   5.329 -0.3210 -1.8240 -1.0103
  130MOL    H1049288   2.625   1.363   5.242  0.9008  2.9402  0.9770
  130MOL    H1149289   2.703   1.500   5.388 -2.2437 -1.5206 -1.9630
  130MOL    H1249290   2.576   1.584   5.468 -1.4492 -1.0096  1.6258
  130MOL    H1349291   2.766   1.397   5.595 -0.2429 -0.5032  1.5516
  130MOL    H1449292   2.633   1.453   5.687 -0.0277 -0.1371 -0.3116
  130MOL    H1549293   2.723   1.696   5.608  1.6389 -0.0120 -1.7460
  130MOL    H1649294   2.868   1.626   5.590 -0.2419  0.1225  0.2056
  130MOL    H1749295   2.778   1.565   5.867 -0.0062  1.4713  1.4665
  130MOL    H1849296   2.697   1.720   5.826  1.3902  1.1600  0.8325
  130MOL    H1949297   2.866   1.700   5.814  0.0073  0.3007 -1.3693
  130MOL    H2049298   2.426   1.514   5.220 -3.9899 -0.0548 -3.0779
  130MOL    C2149299   2.515   1.188   5.319 -0.7213 -0.2175  0.1546
  130MOL    C2249300   2.545   1.100   5.195 -0.2201  0.6129 -0.7310
  130MOL    O2349301   2.682   1.108   5.176 -0.4651  0.0009 -0.0398
  130MOL    C2449302   2.714   1.132   5.044  0.2089  0.2623  0.0308
  130MOL    C2549303   2.864   1.119   5.014  0.7558  0.1263 -0.7057
  130MOL    C2649304   2.925   0.996   5.091 -0.1053  0.4676 -0.4489
  130MOL    C2749305   3.078   0.973   5.087 -0.0086 -0.1493  0.0348
  130MOL    H2849306   2.415   1.172   5.357 -0.7222 -0.0987  0.2034
  130MOL    H2949307   2.586   1.151   5.393  1.1292 -0.7212 -1.8101
  130MOL    H3049308   2.497   1.152   5.111 -0.2503  0.4505 -0.8148
  130MOL    H3149309   2.675   1.222   4.996 -0.0935 -0.8704 -1.9001
  130MOL    H3249310   2.668   1.052   4.986 -1.0083 -0.4143  1.9157
  130MOL    H3349311   2.886   1.100   4.909  2.8580  0.6981 -0.3864
  130MOL    H3449312   2.917   1.211   5.039  2.1114 -0.5711 -1.0297
  130MOL    H3549313   2.897   1.000   5.197 -2.0092  0.0415 -0.9089
  130MOL    H3649314   2.878   0.907   5.049  2.5932  0.3632 -3.3642
  130MOL    H3749315   3.118   0.984   4.986 -0.7287  0.2865 -0.2094
  130MOL    H3849316   3.111   1.051   5.155 -0.6516 -1.5572  2.0289
  130MOL    H3949317   3.104   0.874   5.126 -1.2131 -1.1552 -1.6321
  130MOL    C4049318   2.498   0.957   5.200 -0.0150  0.0927 -0.7663
  130MOL    C4149319   2.367   0.918   5.123 -0.1822  0.3776 -0.0396
  130MOL    O4249320   2.258   1.010   5.159  0.0984 -0.0280 -0.0168
  130MOL    C4349321   2.215   1.079   5.046 -0.2357 -0.4907  0.0512
  130MOL    C4449322   2.118   1.192   5.100  0.0180 -0.6542 -0.0530
  130MOL    C4549323   2.044   1.263   4.990 -0.5010 -0.3065  0.5291
  130MOL    C4649324   2.132   1.340   4.885  0.2134 -0.3718  0.1825
  130MOL    H4749325   2.515   0.918   5.301 -0.8293 -2.1222 -1.4424
  130MOL    H4849326   2.575   0.901   5.147  1.5362  0.5493  0.9408
  130MOL    H4949327   2.386   0.924   5.016 -1.1706  4.4747 -0.0694
  130MOL    H5049328   2.162   1.017   4.974  1.0229  0.7665 -2.0233
  130MOL    H5149329   2.295   1.130   4.991  1.2459 -1.5562  1.1612
  130MOL    H5249330   2.165   1.266   5.165  2.0512 -0.2584 -1.9095
  130MOL    H5349331   2.059   1.142   5.176  1.8576  1.2537  2.7354
  130MOL    H5449332   1.968   1.326   5.037 -1.2298 -0.5070 -0.3491
  130MOL    H5549333   1.985   1.185   4.941  0.0691  1.5610 -3.3089
  130MOL    H5649334   2.073   1.398   4.815  0.0607  0.9263  1.3430
  130MOL    H5749335   2.198   1.416   4.929  1.1478 -0.2565 -1.3992
  130MOL    H5849336   2.191   1.276   4.821 -1.9524  0.9930 -3.2992
  130MOL    C5949337   2.327   0.779   5.154 -0.6525 -0.2698 -0.4523
  130MOL    C6049338   2.205   0.729   5.078 -0.1419 -0.9245  0.1747
  130MOL    O6149339   2.236   0.760   4.942  0.0640 -0.1432  0.3104
  130MOL    C6249340   2.127   0.762   4.852 -0.2263 -0.2284 -0.5180
  130MOL    C6349341   2.185   0.804   4.717 -0.2555  0.4904  0.8302
  130MOL    C6449342   2.233   0.951   4.715 -0.5134  0.4269 -0.0539
  130MOL    C6549343   2.263   0.998   4.568 -0.3873  0.0880 -0.1017
  130MOL    H6649344   2.417   0.721   5.135  0.0093  1.5063 -2.9910
  130MOL    H6749345   2.310   0.786   5.262  2.0067  0.7914 -0.0735
  130MOL    H6849346   2.122   0.792   5.107  0.0872 -0.1103 -0.9306
  130MOL    H6949347   2.042   0.822   4.884 -0.6062 -0.6460 -0.7446
  130MOL    H7049348   2.087   0.662   4.834 -0.3410 -0.3564  0.4502
  130MOL    H7149349   2.267   0.736   4.692 -1.3203 -0.4277 -0.1811
  130MOL    H7249350   2.112   0.792   4.638  0.7565 -2.8610  0.3077
  130MOL    H7349351   2.159   1.020   4.755  1.0851  1.6565  0.8231
  130MOL    H7449352   2.315   0.953   4.787  0.4428 -2.3028 -0.9880
  130MOL    H7549353   2.353   0.941   4.548 -1.3288 -1.6240  0.4675
  130MOL    H7649354   2.185   0.965   4.499  1.2457 -0.1494 -1.8644
  130MOL    H7749355   2.269   1.107   4.569  0.4047  0.0862 -2.1001
  130MOL    C7849356   2.176   0.577   5.105 -0.0445  0.2264 -0.0813
  130MOL    C7949357   2.030   0.532   5.084 -0.0255 -0.1783 -0.7025
  130MOL    O8049358   1.946   0.618   5.171  0.0509 -0.1426 -0.5721
  130MOL    C8149359   1.820   0.643   5.119  0.3741 -0.6986 -0.6119
  130MOL    C8249360   1.718   0.678   5.227  0.2109  0.5104  0.1777
  130MOL    C8349361   1.699   0.556   5.321 -0.3799  0.8520  1.0696
  130MOL    C8449362   1.620   0.582   5.444  0.3378  0.4132 -0.3242
  130MOL    H8549363   2.219   0.551   5.202 -0.6037  1.2613  0.4502
  130MOL    H8649364   2.246   0.528   5.037  0.9598  1.2397  0.2016
  130MOL    H8749365   2.012   0.540   4.976 -1.1460 -2.7428 -0.7520
  130MOL    H8849366   1.781   0.551   5.075 -3.4843  0.0787  0.9636
  130MOL    H8949367   1.830   0.710   5.033  2.9392  0.0245  0.1973
  130MOL    H9049368   1.733   0.768   5.286 -0.4846  0.8851 -0.2178
  130MOL    H9149369   1.629   0.700   5.168  0.6347  0.7194 -0.3906
  130MOL    H9249370   1.797   0.517   5.343 -1.0478 -0.5234  1.6227
  130MOL    H9349371   1.643   0.476   5.272  2.0155 -1.5271  2.1394
  130MOL    H9449372   1.673   0.645   5.515 -0.3212  1.7273 -0.9781
  130MOL    H9549373   1.532   0.643   5.423 -0.8834 -1.1401  0.1228
  130MOL    H9649374   1.596   0.492   5.502  2.6842  0.9063  1.4863
  130MOL    C9749375   2.004   0.382   5.125 -0.4275 -0.2915  0.7931
  130MOL    C9849376   2.116   0.281   5.089  1.0197 -0.4599  0.2342
  130MOL    O9949377   2.091   0.156   5.147 -0.5599  0.1763 -0.3850
  130MOL   C10049378   2.176   0.130   5.260 -0.6298  0.3790 -0.1941
  130MOL   C10149379   2.129   0.006   5.326 -0.2474 -0.5662 -0.3220
  130MOL   C10249380   2.134   7.698   5.220  0.0036 -0.9534 -1.1366
  130MOL   C10349381   2.119   7.567   5.293  0.4009 -0.1649 -0.3282
  130MOL   H10449382   1.906   0.363   5.081  0.0686  0.2354 -0.5400
  130MOL   H10549383   1.993   0.368   5.233  1.3976  1.0978  1.1832
  130MOL   H10649384   2.207   0.324   5.130  0.5634  1.1630 -0.4144
  130MOL   H10749385   2.166   0.214   5.330 -0.1664 -2.3012  3.2061
  130MOL   H10849386   2.282   0.124   5.234 -0.9606  2.2504 -2.0927
  130MOL   H10949387   2.029   0.016   5.368  0.4751 -0.2548  1.3883
  130MOL   H11049388   2.200   7.783   5.405  0.7431 -1.0004 -1.3340
  130MOL   H11149389   2.226   7.707   5.162  1.2438 -1.7277  0.6360
  130MOL   H11249390   2.057   7.706   5.144 -0.9408  1.1377  0.0088
  130MOL   H11349391   2.041   7.562   5.370  0.0591  0.0528 -0.6587
  130MOL   H11449392   2.100   7.490   5.218  0.3259 -1.7748  1.3137
  130MOL   H11549393   2.210   7.538   5.346  0.7609  1.3390 -0.1012
  130MOL   C11649394   2.132   0.255   4.934  1.2105  0.0100  0.0444
  130MOL   C11749395   2.265   0.176   4.911 -0.0492 -0.5585  0.0533
  130MOL   O11849396   2.240   0.123   4.786 -0.7300 -0.3500 -0.2749
  130MOL   C11949397   2.238   7.780   4.781 -0.2123 -0.3843  0.3570
  130MOL   C12049398   2.217   7.742   4.632 -0.1560 -0.2303 -0.1757
  130MOL   C12149399   2.191   7.592   4.629  0.0899 -0.0006 -0.0910
  130MOL   C12249400   2.139   7.536   4.488 -0.2807  0.1231 -0.2253
  130MOL   H12349401   2.046   0.196   4.903  0.2384 -0.4419  3.4178
  130MOL   H12449402   2.127   0.352   4.884 -0.3804 -0.2936 -0.3893
  130MOL   H12549403   2.282   0.107   4.994  0.4558  0.0364  0.4495
  130MOL   H12649404   2.158   7.747   4.847  0.6550 -0.4734  1.3751
  130MOL   H12749405   2.332   7.745   4.824 -0.2490 -0.0949  0.6783
  130MOL   H12849406   2.296   7.769   4.562  1.6154 -3.1904  0.5574
  130MOL   H12949407   2.128   7.796   4.600 -0.7269 -1.3637 -0.5271
  130MOL   H13049408   2.282   7.539   4.657  0.5889 -0.9506 -3.2675
  130MOL   H13149409   2.107   7.566   4.694  1.2654 -1.6173  0.8106
  130MOL   H13249410   2.060   7.603   4.456 -0.0867 -0.5229 -2.0827
  130MOL   H13349411   2.104   7.435   4.512 -0.6778  0.3698  0.2358
  130MOL   H13449412   2.215   7.523   4.411 -1.0188 -1.9388 -0.6512
  130MOL   C13549413   2.390   0.269   4.890  0.2593  0.4801  0.1009
  130MOL   C13649414   2.524   0.188   4.865  0.0423  0.0098 -0.3430
  130MOL   O13749415   2.617   0.271   4.796  0.2406  0.2538 -0.5175
  130MOL   C13849416   2.583   0.287   4.660  0.1979 -0.8618  0.5104
  130MOL   C13949417   2.715   0.344   4.605  0.7794 -0.4098  0.2983
  130MOL   C14049418   2.735   0.358   4.447  1.3777  0.1677  0.0944
  130MOL   C14149419   2.859   0.445   4.393 -0.2964  0.5444  0.7379
  130MOL   H14249420   2.392   0.332   4.979 -1.4063  0.7403 -0.0277
  130MOL   H14349421   2.377   0.343   4.812 -0.1511  0.7035  0.3840
  130MOL   H14449422   2.495   0.103   4.804 -1.2012  0.3291 -0.2095
  130MOL   H14549423   2.498   0.352   4.637  0.3795 -1.0048 -0.6028
  130MOL   H14649424   2.556   0.193   4.611 -4.6231  0.5024  0.2490
  130MOL   H14749425   2.799   0.284   4.639  0.7713 -1.5255 -1.5675
  130MOL   H14849426   2.744   0.446   4.628  1.7929 -0.6815  0.2306
  130MOL   H14949427   2.740   0.257   4.406  1.6440 -0.1636  0.9176
  130MOL   H15049428   2.644   0.406   4.412  0.5207 -2.2583 -1.1442
  130MOL   H15149429   2.859   0.546   4.433 -0.9973  1.8278 -2.4256
  130MOL   H15249430   2.952   0.400   4.427 -0.5857 -1.2093 -0.7020
  130MOL   H15349431   2.855   0.438   4.285  1.2627 -0.4778  0.7332
  130MOL   C15449432   2.587   0.128   4.997 -0.7626 -0.0782 -0.7032
  130MOL   C15549433   2.728   0.061   4.981  0.1331  0.0053  0.7965
  130MOL   O15649434   2.721   7.741   4.912 -0.4646 -0.1784  0.4305
  130MOL   C15749435   2.758   7.749   4.774  0.4174 -0.5075 -0.0139
  130MOL   C15849436   2.731   7.613   4.709 -0.0796 -0.2429 -0.7079
  130MOL   C15949437   2.816   7.498   4.762  0.8025 -0.1856  0.1771
  130MOL   C16049438   2.964   7.528   4.749  0.1769 -0.3327 -0.4657
  130MOL   H16149439   2.517   0.063   5.050  0.8822 -1.3696 -0.0991
  130MOL   H16249440   2.607   0.217   5.057  1.3399 -0.0339 -1.4485
  130MOL   H16349441   2.789   0.137   4.932 -0.4624 -0.4395 -0.6337
  130MOL   H16449442   2.691   0.018   4.725  0.9462 -1.1034 -1.6063
  130MOL   H16549443   2.860   7.786   4.777 -0.0517  0.7502  1.2330
  130MOL   H16649444   2.752   7.634   4.604  0.3405  0.8583 -0.4123
  130MOL   H16749445   2.624   7.590   4.711 -0.6457  2.1069 -2.1676
  130MOL   H16849446   2.786   7.491   4.867  0.1630 -0.7869 -0.0413
  130MOL   H16949447   2.786   7.409   4.707  1.0701 -2.2843  3.2961
  130MOL   H17049448   3.002   7.564   4.654  1.2605  0.1837  0.1554
  130MOL   H17149449   2.988   7.613   4.814  2.0775 -1.4585  0.3441
  130MOL   H17249450   3.024   7.439   4.764 -0.7661 -0.9623 -0.3950
  130MOL   C17349451   2.781   0.019   5.113  0.1582  0.7410 -0.7531
  130MOL   C17449452   2.916   7.746   5.108  0.6695  0.1695  0.5017
  130MOL   O17549453   3.021   0.043   5.105  0.1115 -0.0841  0.7163
  130MOL   C17649454   3.107   0.046   4.988 -0.4015  0.0217  0.4772
  130MOL   C17749455   3.196   0.170   5.005 -0.4361 -0.0821 -0.5607
  130MOL   C17849456   3.303   0.188   4.904 -0.0152  0.3573 -0.4760
  130MOL   C17949457   3.362   0.329   4.918 -0.1507  0.0506  0.4001
  130MOL   H18049458   2.712   7.757   5.168  0.3672  1.2063  0.0599
  130MOL   H18149459   2.783   0.106   5.179 -2.2131 -0.0022  0.3285
  130MOL   H18249460   2.927   7.678   5.023 -0.2829  2.8501 -1.8234
  130MOL   H18349461   3.070   0.045   4.885 -0.9834 -2.9801  0.6652
  130MOL   H18449462   3.179   7.767   4.996  0.1305  0.2461 -1.6832
  130MOL   H18549463   3.251   0.160   5.099  0.5807 -0.0349 -1.1471
  130MOL   H18649464   3.129   0.256   5.008 -1.0147 -0.5527  0.2558
  130MOL   H18749465   3.370   0.102   4.911 -1.3266 -0.6125  0.4377
  130MOL   H18849466   3.265   0.182   4.802  1.7466  0.2950 -1.1451
  130MOL   H18949467   3.283   0.394   4.880 -0.2136  0.3914  1.1083
  130MOL   H19049468   3.389   0.345   5.022 -0.0624  0.4704  0.3131
  130MOL   H19149469   3.445   0.349   4.850 -1.6868  0.3563 -1.4527
  130MOL   C19249470   2.941   7.666   5.240  0.2171 -0.0202 -0.1278
  130MOL   C19349471   3.066   7.569   5.246 -0.1781 -0.4400 -0.2297
  130MOL   O19449472   3.061   7.514   5.378  0.3372  0.3450 -0.3684
  130MOL   C19549473   3.160   7.570   5.468 -0.4309 -0.3059 -0.5944
  130MOL   C19649474   3.140   7.501   5.611 -0.3443 -0.0157  0.1162
  130MOL   C19749475   3.239   7.550   5.716  0.6996  0.2270  0.4137
  130MOL   C19849476   3.232   7.479   5.846 -0.0085 -0.7890  0.2572
  130MOL   H19949477   2.858   7.595   5.246 -0.6449  1.0059  0.2433
  130MOL   H20049478   2.951   7.733   5.325  0.2332  0.9571 -0.8833
  130MOL   H20149479   3.159   7.621   5.224  0.0929 -1.6654 -2.0762
  130MOL   H20249480   3.153   7.677   5.453 -5.6491 -0.3594  0.4726
  130MOL   H20349481   3.260   7.539   5.436 -1.2863 -1.7858 -1.8798
  130MOL   H20449482   3.040   7.532   5.641  0.8905  1.4175  2.9291
  130MOL   H20549483   3.137   7.392   5.605  1.8530 -0.0319 -1.4427
  130MOL   H20649484   3.227   7.658   5.730  1.6094  0.7006 -2.1297
  130MOL   H20749485   3.338   7.526   5.676  1.5457  0.2461  2.4399
  130MOL   H20849486   3.225   7.370   5.844 -2.6230 -0.6770  1.2736
  130MOL   H20949487   3.317   7.500   5.911 -2.6999  0.1837  3.6144
  130MOL   H21049488   3.142   7.497   5.904 -2.4358  0.2936 -3.6129
  130MOL   C21149489   3.047   7.448   5.153 -0.1027 -0.6133  0.5146
  130MOL   C21249490   3.132   7.325   5.184 -0.2658  0.3332  0.9227
  130MOL   O21349491   3.090   7.225   5.088  0.0634 -0.2723 -0.3186
  130MOL   C21449492   2.998   7.134   5.149  0.2277  0.0136  0.3441
  130MOL   C21549493   2.930   7.073   5.034 -0.1913  0.5353  0.7321
  130MOL   C21649494   2.842   7.184   4.963 -0.2918  0.0191  0.1157
  130MOL   C21749495   2.773   7.114   4.852 -0.2682 -0.3016 -0.2638
  130MOL   H21849496   3.069   7.471   5.049  0.5676  0.2050  0.8275
  130MOL   H21949497   2.940   7.432   5.146  0.1963 -1.9179 -1.3394
  130MOL   H22049498   3.113   7.286   5.284  0.2932 -0.9000  0.5608
  130MOL   H22149499   3.055   7.063   5.209  2.6903  0.7424 -1.0618
  130MOL   H22249500   2.920   7.174   5.214 -0.4823 -1.2407  0.2970
  130MOL   H22349501   2.996   7.029   4.959  1.2337  0.7106  1.8591
  130MOL   H22449502   2.864   6.993   5.065 -0.7685  0.8437  0.3119
  130MOL   H22549503   2.905   7.261   4.919 -1.1236  1.0701  0.7634
  130MOL   H22649504   2.774   7.239   5.027 -0.2512 -1.1929  1.2266
  130MOL   H22749505   2.688   7.060   4.895 -0.4528 -0.3644 -0.6980
  130MOL   H22849506   2.837   7.047   4.794 -0.9425  0.1885 -1.6233
  130MOL   H22949507   2.745   7.195   4.784  0.2939 -0.7202 -1.0109
  130MOL   C23049508   3.286   7.355   5.166  0.1542 -0.3632  0.3455
  130MOL   C23149509   3.368   7.234   5.201  0.3420 -0.7862 -0.3124
  130MOL   O23249510   3.366   7.148   5.090  0.2715 -0.1076  1.0641
  130MOL   C23349511   3.378   7.009   5.115 -0.8505 -0.2533  0.3297
  130MOL   C23449512   3.422   6.941   4.985  0.5404  0.1474  0.6476
  130MOL   C23549513   3.323   6.973   4.864  0.0657  0.1291  0.8545
  130MOL   C23649514   3.378   6.894   4.739 -0.4569  0.3394 -0.6353
  130MOL   H23749515   3.309   7.442   5.228 -1.4282  1.1541 -1.1375
  130MOL   H23849516   3.300   7.378   5.060 -1.4550 -0.0766  0.1870
  130MOL   H23949517   3.325   7.189   5.290  0.4835 -0.0544  0.1300
  130MOL   H24049518   3.452   6.981   5.190 -0.9440 -0.2740  0.4143
  130MOL   H24149519   3.279   6.984   5.154 -0.1487 -1.4843  1.3731
  130MOL   H24249520   3.525   6.970   4.962  0.3666 -0.5544 -1.0938
  130MOL   H24349521   3.426   6.834   5.005  1.1001  0.3298  1.5317
  130MOL   H24449522   3.320   7.080   4.845  0.9872  0.6441  3.5097
  130MOL   H24549523   3.225   6.942   4.898  0.2217 -2.5192 -0.9517
  130MOL   H24649524   3.346   6.790   4.742  0.0631  0.2209  1.0359
  130MOL   H24749525   3.485   6.912   4.729 -0.2023 -0.6771  0.2325
  130MOL   H24849526   3.328   6.939   4.653  0.0735  0.1695 -1.0360
  130MOL   C24949527   3.518   7.269   5.220  0.2384 -0.0471 -0.1922
  130MOL   C25049528   3.553   7.352   5.348 -0.3511  0.4561  0.2221
  130MOL   O25149529   3.692   7.376   5.348  0.0156  0.4797 -0.6186
  130MOL   C25249530   3.744   7.474   5.266 -0.2284 -0.5607 -0.0620
  130MOL   C25349531   3.897   7.490   5.311 -0.0617  0.1351 -0.4352
  130MOL   C25449532   3.956   7.618   5.256 -0.3141  0.0522  0.3229
  130MOL   C25549533   4.103   7.633   5.273  1.2417 -0.5752 -0.4789
  130MOL   H25649534   3.560   7.332   5.142  0.5744 -0.2269 -0.1583
  130MOL   H25749535   3.577   7.179   5.237  0.2863  0.3455  1.8769
  130MOL   H25849536   3.502   7.449   5.349 -0.7661  0.2499 -0.5783
  130MOL   H25949537   3.700   7.572   5.283  0.7085 -0.5743  2.6351
  130MOL   H26049538   3.751   7.461   5.158  1.5245 -0.1558 -0.0105
  130MOL   H26149539   3.882   7.487   5.419 -3.1071 -2.7819 -0.8402
  130MOL   H26249540   3.957   7.401   5.295 -1.1175 -0.5226 -0.7703
  130MOL   H26349541   3.938   7.617   5.149  0.9416 -2.3876  0.1098
  130MOL   H26449542   3.890   7.694   5.299  0.3872  0.1276  1.2790
  130MOL   H26549543   4.132   7.733   5.241  0.3120 -0.8183 -2.1371
  130MOL   H26649544   4.161   7.556   5.222  1.9333 -0.0226 -0.5329
  130MOL   H26749545   4.133   7.630   5.378 -0.2756 -0.3998 -0.0256
  130MOL   C26849546   3.520   7.285   5.479 -0.1121 -0.3179 -0.0965
  130MOL   C26949547   3.597   7.335   5.602  0.1132  0.4244  0.0176
  130MOL   O27049548   3.552   7.465   5.639 -0.0216  0.7254  0.1352
  130MOL   C27149549   3.645   7.578   5.608 -0.2873  0.2098 -0.1334
  130MOL   C27249550   3.586   7.707   5.655  0.0688 -0.1074  0.1022
  130MOL   C27349551   3.570   7.719   5.809 -0.6003 -0.6276 -0.4599
  130MOL   C27449552   3.527   0.055   5.859 -0.0380  0.1655 -0.5642
  130MOL   H27549553   3.412   7.271   5.492 -0.2071 -0.6704 -1.1377
  130MOL   H27649554   3.540   7.178   5.474  0.3803 -0.1882 -0.9527
  130MOL   H27749555   3.705   7.324   5.588  0.2035 -0.5060  1.3598
  130MOL   H27849556   3.733   7.553   5.667 -1.0031 -2.3843 -0.0968
  130MOL   H27949557   3.674   7.576   5.503 -1.1051  0.5166 -0.3679
  130MOL   H28049558   3.654   7.782   5.615 -1.1484  1.4965  0.9897
  130MOL   H28149559   3.490   7.723   5.607  0.2295 -0.4956 -0.3533
  130MOL   H28249560   3.663   7.687   5.856 -0.2757 -0.3512 -0.9108
  130MOL   H28349561   3.501   7.647   5.852  0.3424 -1.3626 -0.1642
  130MOL   H28449562   3.439   0.096   5.810 -0.2161  2.2488  1.4059
  130MOL   H28549563   3.602   0.133   5.844  0.0724  0.0603 -0.5576
  130MOL   H28649564   3.508   0.047   5.966  1.9260 -0.7694 -0.2572
  130MOL   C28749565   3.568   7.246   5.724  0.3206 -0.7227  0.7745
  130MOL   C28849566   3.672   7.271   5.835  0.5333  0.8846 -0.1587
  130MOL   O28949567   3.784   7.203   5.787 -0.3919 -0.0189  0.6774
  130MOL   C29049568   3.910   7.225   5.845 -0.2438 -0.4442 -0.5121
  130MOL   C29149569   4.024   7.186   5.747 -0.3740 -0.5107 -0.2833
  130MOL   C29249570   4.042   7.287   5.632 -0.0015 -0.2702 -0.1546
  130MOL   C29349571   4.153   7.246   5.534 -0.2464 -0.0006  0.4512
  130MOL   H29449572   3.579   7.139   5.704 -2.1577 -0.8503 -0.0963
  130MOL   H29549573   3.468   7.270   5.760 -0.1056 -1.9191  0.4252
  130MOL   H29649574   3.690   7.378   5.838  2.2765  0.5803  2.6089
  130MOL   H29749575   3.915   7.332   5.865  1.1906 -0.2383 -1.8835
  130MOL   H29849576   3.916   7.164   5.935 -1.9872 -2.3665 -1.6528
  130MOL   H29949577   4.017   7.086   5.703 -2.0978 -2.1542  3.4811
  130MOL   H30049578   4.120   7.170   5.797 -0.2365 -3.2683 -1.3493
  130MOL   H30149579   4.063   7.384   5.677 -3.8945  0.7006 -0.2759
  130MOL   H30249580   3.952   7.306   5.574  0.3270 -0.3966 -0.7110
  130MOL   H30349581   4.251   7.227   5.580  0.4541  2.8036  0.2021
  130MOL   H30449582   4.130   7.149   5.489 -1.7380  1.3787 -1.8009
  130MOL   H30549583   4.176   7.323   5.461  1.8442 -1.7452 -0.8216
  130MOL   C30649584   3.626   7.221   5.975  0.0324 -0.4118  0.4833
  130MOL   C30749585   3.688   7.290   6.102  0.1861 -0.5062 -0.5101
  130MOL   O30849586   3.646   7.218   6.218 -0.7022 -0.2505  0.3132
  130MOL   C30949587   3.737   7.118   6.266 -0.0769 -0.7975  0.0181
  130MOL   C31049588   3.696   7.092   6.415  0.7967 -0.2726  0.0014
  130MOL   C31149589   3.746   7.204   6.514 -0.5779 -0.5119  0.2033
  130MOL   C31249590   3.705   7.176   6.655 -0.3520 -0.2225  0.4834
  130MOL   H31349591   3.518   7.227   5.989  0.0635  0.9058  0.2278
  130MOL   H31449592   3.642   7.114   5.981 -2.0925 -0.7528  0.5278
  130MOL   H31549593   3.796   7.299   6.097  0.1604 -0.2615 -0.6256
  130MOL   H31649594   3.842   7.141   6.251 -0.1675 -0.4406 -0.0821
  130MOL   H31749595   3.721   7.033   6.201  0.4862 -1.0632  0.2332
  130MOL   H31849596   3.744   7.006   6.462  2.2789  0.6762  0.2739
  130MOL   H31949597   3.588   7.079   6.420  0.7105  0.2021 -0.6494
  130MOL   H32049598   3.854   7.219   6.510 -0.9285  1.8601 -1.5203
  130MOL   H32149599   3.714   7.301   6.475 -0.7315 -0.5726  0.1763
  130MOL   H32249600   3.600   7.151   6.647  0.2229 -2.6459  0.1290
  130MOL   H32349601   3.724   7.256   6.727  0.6116  0.2785 -0.3194
  130MOL   H32449602   3.765   7.091   6.689  1.8265  0.8597 -0.5184
  130MOL   C32549603   3.636   7.435   6.118 -0.5323 -0.3501 -0.5315
  130MOL   C32649604   3.705   7.521   6.230  0.5102 -0.5928 -0.1186
  130MOL   O32749605   3.846   7.518   6.191  0.1269  0.1778 -0.8541
  130MOL   C32849606   3.939   7.456   6.280  0.1192  0.2712  0.2958
  130MOL   C32949607   4.075   7.473   6.215  0.2899  0.2351 -0.1148
  130MOL   C33049608   4.105   7.359   6.123 -0.2932 -1.0146 -0.5146
  130MOL   C33149609   4.248   7.373   6.061  0.8549  0.6517  0.2161
  130MOL   H33249610   3.528   7.441   6.127 -0.3877 -0.2218  1.3660
  130MOL   H33349611   3.648   7.489   6.025 -4.3640 -2.3484 -2.2793
  130MOL   H33449612   3.688   7.458   6.317  3.2058 -1.6399 -0.2907
  130MOL   H33549613   3.914   7.351   6.297 -1.1222  0.6793  1.0586
  130MOL   H33649614   3.939   7.509   6.376 -0.0520 -1.2043  1.1348
  130MOL   H33749615   4.089   7.572   6.171 -0.7809  0.6439  0.4274
  130MOL   H33849616   4.147   7.479   6.297 -0.1974 -0.1840  0.3526
  130MOL   H33949617   4.021   7.356   6.053 -1.5552 -0.8848  0.9691
  130MOL   H34049618   4.095   7.270   6.185 -1.0733  0.3729  1.3637
  130MOL   H34149619   4.242   7.454   5.989 -1.0344  3.4522  3.4059
  130MOL   H34249620   4.287   7.284   6.011 -0.1162  2.0872 -3.2621
  130MOL   H34349621   4.322   7.394   6.139 -0.7809  0.8836  1.7350
  130MOL   C34449622   3.661   7.671   6.252 -0.2255 -0.2326 -0.2052
  130MOL   C34549623   3.543   7.701   6.346 -0.3445  0.1391  0.6592
  130MOL   O34649624   3.463   7.582   6.355 -0.3182 -0.0595  0.5624
  130MOL   C34749625   3.472   7.495   6.470 -0.7660  0.2067 -0.2945
  130MOL   C34849626   3.390   7.374   6.440 -0.5451  0.5147 -0.4221
  130MOL   C34949627   3.346   7.295   6.556 -0.5965 -0.0806  0.0362
  130MOL   C35049628   3.308   7.145   6.513  0.3457  0.0052 -0.2168
  130MOL   H35149629   3.741   7.718   6.310  1.0034 -2.6182  0.0985
  130MOL   H35249630   3.653   7.728   6.159 -2.5725 -1.8860 -1.0676
  130MOL   H35349631   3.599   7.725   6.437  0.3044  0.9524  0.0537
  130MOL   H35449632   3.428   7.546   6.556 -2.8368 -0.7620 -0.7319
  130MOL   H35549633   3.576   7.470   6.490 -0.2218  0.9314 -2.2103
  130MOL   H35649634   3.443   7.301   6.378 -0.4132 -0.5886  0.9500
  130MOL   H35749635   3.300   7.400   6.385 -1.1077 -1.3250 -0.4142
  130MOL   H35849636   3.426   7.290   6.629 -1.2192  3.1263  1.0192
  130MOL   H35949637   3.255   7.338   6.598 -0.9040 -0.0765 -0.6352
  130MOL   H36049638   3.260   7.140   6.415  1.0631  1.0190 -0.6244
  130MOL   H36149639   3.249   7.093   6.588 -0.2477  0.8231 -0.1051
  130MOL   H36249640   3.397   7.083   6.506 -0.6879 -1.5548  0.3765
  130MOL   C36349641   3.453   0.014   6.294 -0.4583 -0.5092  0.5102
  130MOL   C36449642   3.359   0.062   6.400 -0.2406 -0.6682 -0.1193
  130MOL   O36549643   3.289   0.176   6.358 -0.3017  0.0553  0.0186
  130MOL   C36649644   3.175   0.144   6.276 -1.3593  0.0534 -0.1922
  130MOL   C36749645   3.086   0.272   6.262 -0.1673  0.1565 -0.3382
  130MOL   C36849646   2.946   0.241   6.214  0.0980 -0.4121  0.0633
  130MOL   C36949647   2.850   0.368   6.229  0.1766 -0.4781  0.4249
  130MOL   H37049648   3.403   7.791   6.200  0.9293 -1.4077  0.0017
  130MOL   H37149649   3.516   0.098   6.264 -0.0821 -0.6693  0.8471
  130MOL   H37249650   3.420   0.087   6.487  0.2820 -0.8789 -0.4290
  130MOL   H37349651   3.114   0.071   6.328 -0.9543 -1.1535 -1.3828
  130MOL   H37449652   3.200   0.100   6.179  1.2798 -0.4664  0.6840
  130MOL   H37549653   3.129   0.352   6.203  2.6399 -0.7320  0.4375
  130MOL   H37649654   3.068   0.311   6.362 -1.1995  0.1029 -0.4970
  130MOL   H37749655   2.896   0.163   6.271 -0.9245 -0.5021 -0.9131
  130MOL   H37849656   2.948   0.219   6.107  0.5677  2.4580 -0.5802
  130MOL   H37949657   2.747   0.343   6.205 -0.2864 -0.1266  2.0010
  130MOL   H38049658   2.850   0.398   6.334 -2.8798 -0.1191  0.3566
  130MOL   H38149659   2.897   0.447   6.170  0.0753 -1.1631 -0.5683
  130MOL   H38249660   3.288   7.784   6.424  0.8491 -1.4954  0.4053
   7.80164   7.80164   7.80164
