Control file title. For DL_FIELD 4.10
49590
    1MOL     C1    1   5.955   1.247   1.420 -0.5292  0.0112  0.0458
    1MOL     C2    2   6.080   1.262   1.515 -0.1014 -0.0269 -0.1450
    1MOL     N3    3   6.166   1.139   1.516 -0.0307 -0.0743 -0.1869
    1MOL     C4    4   6.173   1.045   1.618  0.2654 -0.5072 -0.0060
    1MOL     C5    5   6.267   0.944   1.589 -0.3707  0.3094  0.1068
    1MOL     C6    6   6.299   0.846   1.685 -1.1149 -0.2412  0.4121
    1MOL     C7    7   6.223   0.844   1.803 -0.3863  0.3890 -0.2110
    1MOL     C8    8   6.130   0.943   1.833  0.4835  0.4720 -1.1590
    1MOL     C9    9   6.101   1.046   1.741 -0.2950 -0.3284  0.5568
    1MOL    C10   10   6.320   0.983   1.455  0.4153  0.9293  0.0764
    1MOL    C11   11   6.243   1.092   1.409 -0.4211 -0.4736  0.1143
    1MOL    C12   12   6.268   1.147   1.275 -0.2763  0.2740 -0.4445
    1MOL    C13   13   6.373   1.094   1.200  0.3583  0.1754  0.0121
    1MOL    C14   14   6.449   0.989   1.245  0.3592  0.2145 -0.2748
    1MOL    C15   15   6.430   0.940   1.377  0.6027  0.6861  0.4363
    1MOL    H16   16   5.978   1.261   1.315 -0.3238 -1.7355 -0.1513
    1MOL    H17   17   5.893   1.334   1.445 -0.9215  0.1395 -1.3211
    1MOL    H18   18   6.046   1.269   1.618 -0.7329  0.8847 -0.4036
    1MOL    H19   19   6.381   0.777   1.671  0.2877  1.1022  1.9241
    1MOL    H20   20   6.239   0.776   1.885  0.5854  2.5061  1.4139
    1MOL    H21   21   6.077   0.948   1.927  2.4129  1.1595 -0.0771
    1MOL    H22   22   6.030   1.125   1.760 -0.0233  0.0212  0.1230
    1MOL    H23   23   6.215   1.236   1.244 -0.0128  0.1995 -1.1148
    1MOL    H24   24   6.391   1.134   1.101 -0.0852  3.1139  1.0739
    1MOL    H25   25   6.525   0.939   1.186 -0.3564 -0.0461 -0.9745
    1MOL    H26   26   6.496   0.862   1.412  1.5795  1.3169  0.0204
    1MOL    H27   27   5.908   1.149   1.430 -0.0220 -0.2586 -0.2098
    1MOL    C28   28   6.166   1.392   1.490  0.4898 -0.7201  0.1132
    1MOL    C29   29   6.285   1.397   1.577 -0.0921 -0.0643 -0.0985
    1MOL    N30   30   6.417   1.367   1.512 -0.6288  0.6553 -0.3107
    1MOL    C31   31   6.509   1.273   1.561  0.0014 -0.2636 -0.4748
    1MOL    C32   32   6.624   1.275   1.471 -0.1616  0.1563 -0.7069
    1MOL    C33   33   6.730   1.189   1.508 -0.0963 -1.0188 -0.4592
    1MOL    C34   34   6.716   1.101   1.619  0.2946  0.1376 -0.3081
    1MOL    C35   35   6.601   1.099   1.695 -0.0365  0.1559  0.7677
    1MOL    C36   36   6.503   1.186   1.676  0.3015  0.4360  0.4841
    1MOL    C37   37   6.597   1.359   1.365  0.3190 -1.0262 -0.1349
    1MOL    C38   38   6.474   1.420   1.398  0.0107  0.0668  0.0202
    1MOL    C39   39   6.425   1.524   1.307 -0.3961  0.5096  0.2962
    1MOL    C40   40   6.496   1.564   1.193  0.0987 -0.3585 -0.5699
    1MOL    C41   41   6.608   1.492   1.159 -0.1022 -0.1341  0.1778
    1MOL    C42   42   6.662   1.395   1.243  0.2457  0.2487  0.6156
    1MOL    H43   43   6.193   1.390   1.384  0.5936 -0.2764  0.1299
    1MOL    H44   44   6.102   1.480   1.490  3.2705  1.3699  0.0938
    1MOL    H45   45   6.273   1.329   1.661 -1.0238 -1.3655 -1.2620
    1MOL    H46   46   6.817   1.199   1.444 -0.8975  1.8912 -1.1844
    1MOL    H47   47   6.793   1.028   1.638 -1.3639 -1.2554  1.2589
    1MOL    H48   48   6.588   1.026   1.774 -2.0390 -0.1250  0.2052
    1MOL    H49   49   6.411   1.179   1.732 -0.8172  2.3391 -1.0354
    1MOL    H50   50   6.330   1.571   1.324  0.1697  2.1701 -1.0027
    1MOL    H51   51   6.475   1.639   1.119  1.0441  1.5296  1.0199
    1MOL    H52   52   6.665   1.525   1.073 -1.2522  2.7568  0.4667
    1MOL    H53   53   6.755   1.346   1.220  0.1181  1.3832 -2.4214
    1MOL    C54   54   6.285   1.543   1.635 -0.0987 -0.3673  0.1917
    1MOL    C55   55   6.176   1.571   1.744  0.7046  0.0150  0.4110
    1MOL    N56   56   6.168   1.465   1.850  0.0614  0.1504  0.1261
    1MOL    C57   57   6.057   1.386   1.889  0.5746  0.1597  0.8568
    1MOL    C58   58   6.093   1.293   1.988 -0.8634 -0.5956  0.6307
    1MOL    C59   59   5.998   1.197   2.036  0.5749  0.0308  0.3124
    1MOL    C60   60   5.861   1.200   1.990 -0.2664  0.6241 -0.3332
    1MOL    C61   61   5.828   1.294   1.890 -1.2878  0.3279  1.2164
    1MOL    C62   62   5.919   1.390   1.838  0.1645 -0.0029  0.2569
    1MOL    C63   63   6.228   1.327   2.023  0.4574  0.4008  0.3827
    1MOL    C64   64   6.276   1.426   1.927 -0.1310  0.2049  0.2626
    1MOL    C65   65   6.409   1.467   1.932 -0.2411 -0.6949  0.9306
    1MOL    C66   66   6.499   1.403   2.027  0.1998  0.2357  0.1870
    1MOL    C67   67   6.451   1.303   2.112 -0.3510 -0.9055 -0.3781
    1MOL    C68   68   6.318   1.272   2.111 -0.0887 -0.4731 -0.7012
    1MOL    H69   69   6.380   1.568   1.683  0.7387 -0.3612 -1.4229
    1MOL    H70   70   6.278   1.614   1.552 -1.0016  0.0792  0.6487
    1MOL    H71   71   6.084   1.566   1.686  0.1923  2.2619  1.0130
    1MOL    H72   72   6.027   1.126   2.112  0.0318 -0.7480 -0.2031
    1MOL    H73   73   5.779   1.138   2.023 -0.6630  0.6894 -1.1777
    1MOL    H74   74   5.727   1.277   1.855 -2.2069  0.3141  3.7678
    1MOL    H75   75   5.878   1.462   1.770  0.6628 -0.6947 -0.7894
    1MOL    H76   76   6.453   1.538   1.864  0.7105  1.5611  3.8402
    1MOL    H77   77   6.606   1.417   2.037  0.1747 -0.4604  1.4896
    1MOL    H78   78   6.509   1.240   2.177  1.4446  0.9169 -0.1534
    1MOL    H79   79   6.278   1.198   2.179 -2.1462  0.8227 -0.4383
    1MOL    C80   80   6.174   1.714   1.799  0.0366  0.4858  0.3955
    1MOL    C81   81   6.184   1.844   1.711 -0.1394 -0.0490  0.4427
    1MOL    N82   82   6.105   1.838   1.588 -0.1613  0.0175  0.0761
    1MOL    C83   83   6.151   1.876   1.464  0.5031 -0.4733  0.2530
    1MOL    C84   84   6.052   1.859   1.364 -0.1819  0.1172 -0.5820
    1MOL    C85   85   6.080   1.905   1.231 -0.9430  0.3770  0.8939
    1MOL    C86   86   6.204   1.954   1.197  0.1704 -0.1807 -0.4115
    1MOL    C87   87   6.307   1.955   1.294 -0.4952 -0.4418 -0.1649
    1MOL    C88   88   6.276   1.923   1.427 -0.0741 -0.7024 -0.1211
    1MOL    C89   89   5.934   1.812   1.435 -0.1599  0.2639 -0.3156
    1MOL    C90   90   5.975   1.795   1.572 -0.0952  0.4946  1.1502
    1MOL    C91   91   5.878   1.754   1.673  0.1983 -0.1645 -0.6455
    1MOL    C92   92   5.744   1.734   1.628 -0.7133  0.3301  0.1928
    1MOL    C93   93   5.713   1.743   1.497 -1.2432 -0.1199  0.7900
    1MOL    C94   94   5.802   1.785   1.400  0.5056  0.1523  0.2757
    1MOL    H95   95   6.088   1.704   1.865 -1.5282 -1.2032 -1.7905
    1MOL    H96   96   6.260   1.709   1.866 -1.7501 -1.6007  2.6298
    1MOL    H97   97   6.289   1.856   1.683 -0.3332  2.2334  0.5675
    1MOL    H98   98   6.000   1.890   1.161 -1.0691  1.6731  0.7428
    1MOL    H99   99   6.229   1.985   1.097 -1.2899 -0.4760 -0.8858
    1MOL   H100  100   6.404   1.991   1.263 -0.7171  0.5608  0.2850
    1MOL   H101  101   6.361   1.929   1.492  0.5629 -0.9128 -0.9316
    1MOL   H102  102   5.892   1.750   1.780 -3.1684 -0.4544 -0.1662
    1MOL   H103  103   5.666   1.689   1.688 -0.4867 -1.3829 -0.7701
    1MOL   H104  104   5.612   1.718   1.469 -0.0484 -2.4878 -1.5814
    1MOL   H105  105   5.781   1.781   1.294 -0.9905  1.8935  0.4897
    1MOL   C106  106   6.152   1.969   1.785  0.5059  0.4536 -0.5639
    1MOL   C107  107   6.252   2.006   1.895 -0.1898  0.4161  0.3319
    1MOL   N108  108   6.384   2.014   1.834  0.2557  0.2085 -0.0705
    1MOL   C109  109   6.493   1.930   1.863 -0.3678 -0.4891  0.4236
    1MOL   C110  110   6.603   1.955   1.776 -0.1599  0.2673 -0.4868
    1MOL   C111  111   6.720   1.872   1.785  0.5500 -0.5809  0.8050
    1MOL   C112  112   6.719   1.768   1.879  0.8239  0.6306  0.0531
    1MOL   C113  113   6.616   1.755   1.972  0.5802 -0.2477 -0.2783
    1MOL   C114  114   6.499   1.831   1.965 -0.6464 -0.1197  0.7463
    1MOL   C115  115   6.560   2.056   1.685 -0.1625 -0.1168 -0.2278
    1MOL   C116  116   6.426   2.090   1.722 -0.3152 -0.1729 -0.2701
    1MOL   C117  117   6.356   2.186   1.653 -0.0232  0.5564 -0.2982
    1MOL   C118  118   6.422   2.263   1.556  0.0708 -0.7813  0.4275
    1MOL   C119  119   6.554   2.222   1.511 -0.6272 -0.1658 -0.3145
    1MOL   C120  120   6.627   2.125   1.581 -0.2711  0.9488 -1.2410
    1MOL   H121  121   6.126   2.049   1.717 -2.0890 -0.3888 -0.6074
    1MOL   H122  122   6.055   1.956   1.834  1.0888 -0.6208  0.3332
    1MOL   H123  123   6.255   1.925   1.969 -0.0003  0.5181  0.4383
    1MOL   H124  124   6.800   1.881   1.714  0.4480 -2.8988  0.3711
    1MOL   H125  125   6.807   1.705   1.884 -0.4999 -1.3027 -0.5039
    1MOL   H126  126   6.616   1.678   2.048 -0.9160  1.1736  1.2032
    1MOL   H127  127   6.426   1.818   2.043 -0.6748  0.2107  0.7717
    1MOL   H128  128   6.261   2.225   1.689  0.0380 -0.1421  0.6588
    1MOL   H129  129   6.379   2.354   1.517 -0.6862 -0.3842  2.1557
    1MOL   H130  130   6.602   2.277   1.432 -1.4327  0.2267 -0.5457
    1MOL   H131  131   6.725   2.097   1.546  0.8141  0.1770  2.2711
    1MOL   C132  132   6.217   2.138   1.967  0.1889 -0.3794 -0.7048
    1MOL   C133  133   6.082   2.161   2.033  0.0138  0.0478  0.1174
    1MOL   N134  134   6.039   2.045   2.111 -0.1255  0.1232 -0.8110
    1MOL   C135  135   5.927   1.963   2.084  1.0837  0.8375  0.3711
    1MOL   C136  136   5.927   1.851   2.173  0.0242 -0.3333 -0.4681
    1MOL   C137  137   5.827   1.752   2.147 -0.5884 -0.1575  0.1248
    1MOL   C138  138   5.727   1.770   2.047  0.3715 -1.3644 -0.1361
    1MOL   C139  139   5.715   1.890   1.984  0.1246 -0.0320  0.0192
    1MOL   C140  140   5.828   1.979   1.990 -0.4237 -0.1714  0.4133
    1MOL   C141  141   6.042   1.867   2.257 -0.8528 -0.4833  0.5833
    1MOL   C142  142   6.103   1.998   2.224 -0.4082  0.2905  0.2828
    1MOL   C143  143   6.218   2.036   2.288  0.0909 -0.4579  0.7300
    1MOL   C144  144   6.263   1.958   2.396  0.4741  0.5175  0.3787
    1MOL   C145  145   6.204   1.836   2.435 -0.7014 -0.0350  0.2394
    1MOL   C146  146   6.093   1.793   2.364 -0.0353 -0.2311  0.6192
    1MOL   H147  147   6.300   2.158   2.035 -0.2491  0.0637 -0.2928
    1MOL   H148  148   6.230   2.212   1.888  1.1456 -0.8716 -1.0135
    1MOL   H149  149   6.007   2.163   1.955 -0.2539 -1.4813  0.3155
    1MOL   H150  150   5.843   1.655   2.191  1.3791  0.1005  0.0209
    1MOL   H151  151   5.657   1.690   2.025  2.0088 -2.5309 -1.1938
    1MOL   H152  152   5.640   1.906   1.908  0.8184 -0.7326 -0.8264
    1MOL   H153  153   5.824   2.067   1.928 -1.2962 -0.9692 -0.6896
    1MOL   H154  154   6.255   2.131   2.252 -1.2470  0.0620  0.7114
    1MOL   H155  155   6.355   1.988   2.445  0.5094 -0.2380  0.7802
    1MOL   H156  156   6.238   1.785   2.524  0.8051  0.6382  0.0701
    1MOL   H157  157   6.037   1.709   2.402  0.0182 -0.4959  0.1206
    1MOL   C158  158   6.070   2.296   2.111  0.4110 -0.8838  0.8985
    1MOL   C159  159   5.973   2.404   2.052  0.0079 -1.0056  0.1220
    1MOL   N160  160   5.838   2.348   2.034 -0.0425  0.4246 -0.0374
    1MOL   C161  161   5.781   2.316   1.912 -0.1115 -0.0869  0.9077
    1MOL   C162  162   5.653   2.272   1.943  0.5111  0.3293  0.1203
    1MOL   C163  163   5.570   2.236   1.833 -0.3048 -0.0361  0.2669
    1MOL   C164  164   5.627   2.224   1.702 -0.2953  0.5604 -0.4712
    1MOL   C165  165   5.758   2.259   1.674  0.3081 -0.8325 -0.1885
    1MOL   C166  166   5.833   2.314   1.784 -0.7285  0.4408 -0.0403
    1MOL   C167  167   5.626   2.269   2.082 -0.3807  0.5588  0.2772
    1MOL   C168  168   5.754   2.300   2.135  0.0234 -0.1060 -0.0843
    1MOL   C169  169   5.777   2.285   2.279 -0.0963 -0.1179  0.1108
    1MOL   C170  170   5.667   2.260   2.362  0.0682 -0.1739 -0.8704
    1MOL   C171  171   5.539   2.227   2.308  0.0209  0.0287 -1.3113
    1MOL   C172  172   5.518   2.227   2.165  1.0455 -0.3893  0.4632
    1MOL   H173  173   6.026   2.270   2.207  1.5094 -1.1800  1.3307
    1MOL   H174  174   6.170   2.339   2.122  0.1312  0.0407 -0.0541
    1MOL   H175  175   6.014   2.436   1.956 -2.0112 -0.0210 -0.4260
    1MOL   H176  176   5.467   2.213   1.853  0.3528 -2.7213  0.8319
    1MOL   H177  177   5.562   2.188   1.623 -0.2110 -2.6567  0.8272
    1MOL   H178  178   5.790   2.248   1.571  2.2562  1.6245  0.1095
    1MOL   H179  179   5.934   2.345   1.762 -0.5806  0.3839  0.5384
    1MOL   H180  180   5.874   2.296   2.325 -1.1110 -0.3897  2.4185
    1MOL   H181  181   5.681   2.266   2.469  0.1577 -1.2244 -0.8188
    1MOL   H182  182   5.452   2.220   2.372  0.0740  0.3131 -1.2091
    1MOL   H183  183   5.429   2.195   2.113 -0.9211  1.6923  2.4431
    1MOL   C184  184   5.957   2.532   2.136  0.7915  0.2993 -0.1882
    1MOL   C185  185   6.073   2.628   2.149  0.2826 -0.1251  0.1427
    1MOL   N186  186   6.146   2.636   2.018  0.4151 -0.1884 -0.9518
    1MOL   C187  187   6.274   2.579   2.000  0.2826 -0.7890  0.5491
    1MOL   C188  188   6.306   2.584   1.859  0.6226 -0.0994 -1.1787
    1MOL   C189  189   6.416   2.517   1.812  0.8408 -0.4835 -0.4748
    1MOL   C190  190   6.505   2.449   1.897  0.1504  0.2358 -0.5377
    1MOL   C191  191   6.479   2.442   2.034  0.3355  0.3510 -0.5993
    1MOL   C192  192   6.364   2.518   2.083  0.0903  0.4882 -0.6736
    1MOL   C193  193   6.203   2.653   1.791  0.1123  0.7671  0.5654
    1MOL   C194  194   6.102   2.677   1.891  0.6212  0.2106 -0.6398
    1MOL   C195  195   5.978   2.738   1.852  0.0403 -0.6807 -0.1090
    1MOL   C196  196   5.957   2.770   1.718  0.2527 -0.0516 -0.4641
    1MOL   C197  197   6.058   2.752   1.621 -0.1956 -0.5571 -0.9922
    1MOL   C198  198   6.170   2.688   1.660 -0.2466 -0.1561  0.2688
    1MOL   H199  199   5.876   2.588   2.089  0.1746 -0.0997  0.3848
    1MOL   H200  200   5.915   2.506   2.234  2.1098 -0.5984  0.1420
    1MOL   H201  201   6.142   2.596   2.228  1.8954  0.9166 -0.8272
    1MOL   H202  202   6.440   2.532   1.708  0.3288 -0.6713 -0.6223
    1MOL   H203  203   6.591   2.397   1.859  0.6801  1.9303 -1.7147
    1MOL   H204  204   6.529   2.376   2.104  1.4172  0.8212 -0.9235
    1MOL   H205  205   6.336   2.519   2.187  0.8901 -0.5466 -0.4479
    1MOL   H206  206   5.902   2.756   1.927 -1.2496 -1.0631 -1.3077
    1MOL   H207  207   5.874   2.826   1.677 -1.9590 -0.7721  2.8926
    1MOL   H208  208   6.045   2.783   1.519  0.7252 -0.1511 -0.9881
    1MOL   H209  209   6.252   2.666   1.593  1.6320  1.7387  1.8750
    1MOL   C210  210   6.028   2.771   2.198 -0.3792 -0.6894  0.4361
    1MOL   C211  211   5.975   2.781   2.343 -0.1604 -0.4278  0.4007
    1MOL   N212  212   6.055   2.739   2.458 -0.5404 -0.2813  0.3623
    1MOL   C213  213   6.012   2.649   2.554 -0.3073 -0.2016  0.1073
    1MOL   C214  214   6.106   2.627   2.653 -0.3422  0.3352  0.6785
    1MOL   C215  215   6.084   2.535   2.755  0.6875  0.0403 -0.7323
    1MOL   C216  216   5.964   2.458   2.759 -0.1097  0.5242  0.1417
    1MOL   C217  217   5.861   2.492   2.663  0.1654 -0.0074 -0.0559
    1MOL   C218  218   5.887   2.586   2.562  0.4180  0.0264  0.3606
    1MOL   C219  219   6.208   2.721   2.624 -0.3635 -0.4209 -0.8162
    1MOL   C220  220   6.175   2.789   2.503 -0.0290 -0.6936 -0.0564
    1MOL   C221  221   6.247   2.900   2.459  0.1450 -0.4614  0.2705
    1MOL   C222  222   6.362   2.937   2.532 -0.1117  0.5734 -0.1918
    1MOL   C223  223   6.410   2.860   2.638 -0.5135 -0.1883 -0.5113
    1MOL   C224  224   6.325   2.761   2.693 -0.2731  0.6692 -0.2493
    1MOL   H225  225   6.103   2.847   2.179  0.4979 -1.4093  0.9628
    1MOL   H226  226   5.959   2.807   2.122  0.0592 -0.2969  0.2242
    1MOL   H227  227   5.881   2.726   2.337 -0.6964  0.5919 -0.8287
    1MOL   H228  228   6.157   2.530   2.835 -1.2753 -1.7430  1.0174
    1MOL   H229  229   5.939   2.392   2.840  0.5950 -2.3659 -1.9193
    1MOL   H230  230   5.771   2.432   2.669  1.1924 -1.4477  1.2683
    1MOL   H231  231   5.815   2.612   2.486  1.0526  0.7496 -0.0136
    1MOL   H232  232   6.222   2.956   2.371 -1.1222 -1.3713  0.0299
    1MOL   H233  233   6.415   3.027   2.504  0.2985 -0.0641 -1.5129
    1MOL   H234  234   6.503   2.887   2.685 -1.1807  0.8217  0.2547
    1MOL   H235  235   6.337   2.703   2.784  0.9835 -1.4657 -1.7475
    1MOL   C236  236   5.924   2.925   2.374 -0.4644  0.0282 -0.1423
    1MOL   C237  237   5.778   2.964   2.326 -0.0031  0.2735 -0.2170
    1MOL   N238  238   5.682   2.868   2.377 -0.1471  0.4679 -0.3036
    1MOL   C239  239   5.613   2.772   2.309 -0.0902  0.2725  0.0625
    1MOL   C240  240   5.529   2.700   2.403  0.0532 -0.4421 -0.2464
    1MOL   C241  241   5.456   2.588   2.359 -0.7830 -0.1482  0.6339
    1MOL   C242  242   5.454   2.557   2.224 -0.5933 -0.0294 -0.6938
    1MOL   C243  243   5.533   2.625   2.130 -0.1122 -0.3842  0.6274
    1MOL   C244  244   5.611   2.733   2.168 -0.4934 -0.7792 -0.3257
    1MOL   C245  245   5.544   2.763   2.526  0.3897  0.0795 -0.2082
    1MOL   C246  246   5.643   2.858   2.512 -0.5643 -0.3418 -0.2675
    1MOL   C247  247   5.686   2.933   2.623  0.3505 -0.7308  0.3801
    1MOL   C248  248   5.632   2.917   2.746  0.8788  0.3060  0.2270
    1MOL   C249  249   5.540   2.814   2.764  0.5942 -0.4624 -0.2001
    1MOL   C250  250   5.495   2.739   2.655 -0.2485  0.2011 -0.3972
    1MOL   H251  251   5.921   2.931   2.483  0.8082 -0.4173 -0.0697
    1MOL   H252  252   5.995   2.996   2.332  0.7895 -1.5575 -0.7566
    1MOL   H253  253   5.758   2.950   2.220  1.0004 -0.4453 -0.3140
    1MOL   H254  254   5.389   2.534   2.424 -2.5892  1.1923 -0.0883
    1MOL   H255  255   5.384   2.479   2.199 -1.7914  0.4215  1.1786
    1MOL   H256  256   5.522   2.594   2.027  0.7405  0.4563  0.2645
    1MOL   H257  257   5.674   2.782   2.096  0.6412 -0.9628  0.5076
    1MOL   H258  258   5.758   3.014   2.619 -1.3775  0.8648  0.6921
    1MOL   H259  259   5.665   2.982   2.825  2.9343  1.2071 -1.3230
    1MOL   H260  260   5.491   2.795   2.858  0.7843  0.3299  0.0592
    1MOL   H261  261   5.407   2.678   2.669  1.6977 -2.2641  1.6599
    1MOL   C262  262   5.744   3.112   2.353  1.0388 -0.4612  0.3864
    1MOL   C263  263   5.594   3.150   2.365  0.0925 -0.1577 -0.2674
    1MOL   N264  264   5.582   3.284   2.432 -0.3208 -0.4014  0.7364
    1MOL   C265  265   5.497   3.311   2.541  0.0775  0.1105  0.1693
    1MOL   C266  266   5.517   3.446   2.580 -0.4000 -0.3412 -0.0623
    1MOL   C267  267   5.443   3.494   2.697 -0.1725  0.0897 -0.1241
    1MOL   C268  268   5.365   3.408   2.775 -0.0933  0.1085  0.1522
    1MOL   C269  269   5.348   3.278   2.733 -0.1571  0.7121  0.1560
    1MOL   C270  270   5.413   3.229   2.619  0.2694 -0.6707 -0.1166
    1MOL   C271  271   5.605   3.505   2.484  0.2030 -0.1393  0.6998
    1MOL   C272  272   5.635   3.403   2.387  1.2828 -0.4488  0.0323
    1MOL   C273  273   5.695   3.439   2.263 -0.2516 -0.2223 -0.0658
    1MOL   C274  274   5.732   3.577   2.238 -0.3301 -0.1082 -0.3810
    1MOL   C275  275   5.703   3.673   2.339  0.3384 -0.1845 -0.2502
    1MOL   C276  276   5.649   3.638   2.467  0.2694  0.8303  0.6946
    1MOL   H277  277   5.786   3.153   2.445  1.0244  0.9609 -0.2292
    1MOL   H278  278   5.786   3.176   2.276  0.7648  0.1267  0.7246
    1MOL   H279  279   5.555   3.091   2.448  2.4131 -0.9467  0.2844
    1MOL   H280  280   5.452   3.599   2.721 -1.0551  1.0929 -3.8120
    1MOL   H281  281   5.303   3.437   2.859 -1.8719 -2.8759 -0.0600
    1MOL   H282  282   5.285   3.216   2.795 -0.9463 -1.3431 -2.6061
    1MOL   H283  283   5.397   3.128   2.585 -0.7149 -1.3060  2.1623
    1MOL   H284  284   5.713   3.364   2.187  0.5781 -0.4382  0.3360
    1MOL   H285  285   5.776   3.600   2.141  0.8108 -1.3522 -0.1793
    1MOL   H286  286   5.720   3.777   2.314  1.5373 -0.6138 -1.2687
    1MOL   H287  287   5.623   3.713   2.540  0.5980  0.7493  0.8938
    1MOL   C288  288   5.517   3.144   2.234  0.6143 -0.5065  0.0796
    1MOL   C289  289   5.359   3.139   2.238  0.0338  0.6925  0.0940
    1MOL   N290  290   5.301   3.169   2.109  0.7615 -0.3702 -1.2138
    1MOL   C291  291   5.239   3.291   2.075  0.7726 -0.0150  0.0266
    1MOL   C292  292   5.165   3.270   1.959  0.0766 -0.0214  0.1643
    1MOL   C293  293   5.086   3.376   1.916  0.8363 -0.6865  0.0714
    1MOL   C294  294   5.086   3.499   1.985  0.2649  0.4453  0.6903
    1MOL   C295  295   5.160   3.519   2.096  0.0384  0.0810 -0.1054
    1MOL   C296  296   5.229   3.412   2.152 -0.8386  0.0173 -0.1597
    1MOL   C297  297   5.191   3.134   1.915  0.3361  0.3409 -0.0723
    1MOL   C298  298   5.278   3.072   2.012  0.1723  0.4955  0.0507
    1MOL   C299  299   5.323   2.941   1.989 -0.3051 -0.0923 -0.6702
    1MOL   C300  300   5.280   2.862   1.876 -0.2283 -0.6778  0.0186
    1MOL   C301  301   5.183   2.923   1.789  0.5299  0.3777 -0.0885
    1MOL   C302  302   5.146   3.053   1.812  0.5794 -0.0041  0.5269
    1MOL   H303  303   5.536   3.238   2.182  0.0434 -0.1087  0.5833
    1MOL   H304  304   5.548   3.061   2.171 -3.4690 -1.8199 -0.3447
    1MOL   H305  305   5.316   3.223   2.293  1.2995  1.4601 -0.0624
    1MOL   H306  306   5.020   3.371   1.830  0.9692 -2.0607  0.0502
    1MOL   H307  307   5.033   3.584   1.947  0.2006  0.0353 -0.1422
    1MOL   H308  308   5.158   3.621   2.133 -0.3196  0.3936 -0.9821
    1MOL   H309  309   5.302   3.420   2.230  0.1775 -4.8315 -0.4548
    1MOL   H310  310   5.402   2.897   2.048  0.3395 -1.2719 -2.3726
    1MOL   H311  311   5.320   2.764   1.860 -0.0123 -0.7900  1.1957
    1MOL   H312  312   5.143   2.887   1.695 -1.1406  1.4802  0.1766
    1MOL   H313  313   5.080   3.104   1.742 -1.1434 -1.1057  1.3034
    1MOL   C314  314   5.312   3.012   2.316 -0.1103 -0.0305 -0.1045
    1MOL   C315  315   5.159   2.982   2.323 -0.2046  0.3248 -0.5909
    1MOL   N316  316   5.135   2.854   2.392  0.5781  0.0583 -0.3511
    1MOL   C317  317   5.100   2.742   2.311 -0.0859  0.3874 -0.2798
    1MOL   C318  318   5.060   2.640   2.401 -0.2305 -0.9276 -0.2993
    1MOL   C319  319   4.998   2.528   2.345 -0.5728  0.4055 -0.0722
    1MOL   C320  320   4.988   2.510   2.208  0.5211  0.8626 -0.4720
    1MOL   C321  321   5.044   2.604   2.122  0.4275  0.3616 -0.4221
    1MOL   C322  322   5.094   2.723   2.174 -0.5064 -0.2512  0.5021
    1MOL   C323  323   5.089   2.679   2.532  0.6220 -0.7900  0.3741
    1MOL   C324  324   5.141   2.816   2.525 -0.0872 -0.1536  0.5697
    1MOL   C325  325   5.193   2.885   2.633  0.2309 -0.2185  0.0283
    1MOL   C326  326   5.176   2.821   2.758  0.7499 -0.1940  0.1942
    1MOL   C327  327   5.142   2.681   2.765  0.5868 -0.2812  0.2886
    1MOL   C328  328   5.090   2.618   2.654  0.0638 -0.2831 -0.7060
    1MOL   H329  329   5.362   2.924   2.277 -0.6590  0.2241 -1.4193
    1MOL   H330  330   5.358   3.029   2.413 -0.5883  1.1937 -0.0827
    1MOL   H331  331   5.130   2.976   2.218  1.4856  0.1675 -1.0722
    1MOL   H332  332   4.961   2.449   2.408  2.0047 -2.5546 -2.1257
    1MOL   H333  333   4.949   2.415   2.173 -0.4714  2.0189 -2.6122
    1MOL   H334  334   5.028   2.583   2.017 -0.1083 -0.0887 -0.2517
    1MOL   H335  335   5.142   2.792   2.106  1.9538  0.9306  3.3338
    1MOL   H336  336   5.224   2.988   2.630 -1.8305  0.4074 -2.5422
    1MOL   H337  337   5.200   2.881   2.844 -1.6794 -0.6484  1.2203
    1MOL   H338  338   5.135   2.629   2.859 -2.6622 -0.8048 -0.1681
    1MOL   H339  339   5.067   2.513   2.667 -2.6367  0.3225 -0.3877
    1MOL   C340  340   5.074   3.096   2.380  0.4042 -0.8641 -0.0845
    1MOL   C341  341   4.929   3.077   2.423  0.2079  0.2351 -0.9852
    1MOL   N342  342   4.862   3.183   2.503  0.2531  0.0633 -0.5718
    1MOL   C343  343   4.836   3.178   2.643  0.1224 -0.1699  0.5397
    1MOL   C344  344   4.752   3.291   2.678 -0.0016  0.0307 -0.2105
    1MOL   C345  345   4.701   3.295   2.812 -0.6979  0.0546  0.0467
    1MOL   C346  346   4.729   3.194   2.904  0.3182 -0.0848  0.2524
    1MOL   C347  347   4.811   3.083   2.864 -0.0832 -0.5333 -1.0226
    1MOL   C348  348   4.875   3.084   2.739  0.0162  0.3604 -0.3735
    1MOL   C349  349   4.728   3.365   2.557  0.1997  0.1784 -0.4923
    1MOL   C350  350   4.804   3.304   2.456 -0.3084 -0.1568  0.4506
    1MOL   C351  351   4.813   3.368   2.328 -0.0787 -0.7895  0.1328
    1MOL   C352  352   4.742   3.487   2.300  0.4353  0.5888  0.6713
    1MOL   C353  353   4.672   3.546   2.396  0.0273  0.1397  0.5931
    1MOL   C354  354   4.661   3.484   2.522  0.1353 -0.3141  0.0602
    1MOL   H355  355   5.123   3.144   2.466 -0.9883 -0.3460  0.4221
    1MOL   H356  356   5.081   3.182   2.314 -1.4960 -1.8160 -1.5586
    1MOL   H357  357   4.938   2.997   2.496 -0.6649  2.4193  1.6127
    1MOL   H358  358   4.634   3.375   2.840  0.0859  0.9009 -0.4434
    1MOL   H359  359   4.696   3.186   3.006 -1.9089  1.9139 -0.2847
    1MOL   H360  360   4.840   3.002   2.930  2.0903  0.9025 -0.1644
    1MOL   H361  361   4.937   3.001   2.709 -2.7603 -2.7306  2.1214
    1MOL   H362  362   4.871   3.317   2.252  1.4385  1.4459 -0.2620
    1MOL   H363  363   4.745   3.538   2.204  1.0296 -0.6569  0.0169
    1MOL   H364  364   4.617   3.635   2.371  1.3375  1.0242  0.8078
    1MOL   H365  365   4.591   3.530   2.591  0.4646 -2.8660  2.1581
    1MOL   C366  366   4.834   3.022   2.314 -0.4534 -0.2138  0.6916
    1MOL   C367  367   4.705   2.965   2.372 -0.0458  0.5824  0.2101
    1MOL   N368  368   4.593   2.949   2.276  0.0215  0.1734 -0.1512
    1MOL   C369  369   4.470   3.010   2.291 -0.1267 -0.0950 -0.1382
    1MOL   C370  370   4.373   2.944   2.205  0.1010  0.5923 -0.0124
    1MOL   C371  371   4.240   2.988   2.217  0.8168 -0.1645 -0.1516
    1MOL   C372  372   4.212   3.098   2.299 -0.4322  0.0047 -0.3895
    1MOL   C373  373   4.311   3.172   2.373 -0.6035 -0.4842 -0.0314
    1MOL   C374  374   4.441   3.121   2.378 -0.4140 -0.3135 -0.2221
    1MOL   C375  375   4.444   2.847   2.129  0.8192 -0.0207  0.3698
    1MOL   C376  376   4.581   2.857   2.174  0.4174 -0.3891 -0.2593
    1MOL   C377  377   4.678   2.770   2.118  0.2014 -0.5240  0.3802
    1MOL   C378  378   4.635   2.672   2.028 -0.2890  0.2166 -0.3269
    1MOL   C379  379   4.500   2.657   1.985 -0.5263 -0.4777  0.2047
    1MOL   C380  380   4.403   2.757   2.030 -0.1319  0.3167 -0.8862
    1MOL   H381  381   4.801   3.098   2.243 -1.1430 -0.0358  1.1944
    1MOL   H382  382   4.885   2.942   2.262  0.5355  0.5107  0.5326
    1MOL   H383  383   4.663   3.033   2.446 -3.1874 -0.7970 -0.2343
    1MOL   H384  384   4.168   2.944   2.149  2.8913 -1.8921 -1.2948
    1MOL   H385  385   4.112   3.137   2.305 -0.2958  0.4183 -0.7656
    1MOL   H386  386   4.289   3.260   2.431  2.8171  0.8772 -0.7194
    1MOL   H387  387   4.514   3.167   2.442 -0.1798 -0.5403 -0.3262
    1MOL   H388  388   4.783   2.770   2.143  0.5049 -1.5171 -0.8490
    1MOL   H389  389   4.710   2.610   1.981  0.2031  2.6017 -2.7814
    1MOL   H390  390   4.465   2.586   1.911  1.9644 -0.9204 -0.5889
    1MOL   H391  391   4.299   2.751   2.001 -0.8690  2.2889  1.2446
    1MOL   C392  392   4.731   2.831   2.442  0.2769 -0.4037  0.1959
    1MOL   C393  393   4.609   2.774   2.524 -0.4972 -0.4166  0.4757
    1MOL   N394  394   4.645   2.637   2.558  0.1237 -0.3778  0.2807
    1MOL   C395  395   4.623   2.522   2.477 -0.3436 -0.1169 -0.6767
    1MOL   C396  396   4.668   2.406   2.542 -0.1964 -0.5430  0.3670
    1MOL   C397  397   4.632   2.282   2.484 -1.3124  0.0772 -0.2007
    1MOL   C398  398   4.579   2.274   2.354  0.2923 -0.8378  0.0964
    1MOL   C399  399   4.544   2.393   2.287 -0.0746  0.4184 -0.4740
    1MOL   C400  400   4.558   2.518   2.353  0.0807 -0.0150  0.0141
    1MOL   C401  401   4.738   2.449   2.655 -0.9348 -0.5125  0.4616
    1MOL   C402  402   4.730   2.594   2.658 -0.5764 -0.2017 -0.1871
    1MOL   C403  403   4.775   2.667   2.775  0.1773  0.5773  0.2421
    1MOL   C404  404   4.853   2.596   2.866  0.2855  1.2503 -0.9018
    1MOL   C405  405   4.865   2.454   2.859  0.1833  0.5536 -0.0675
    1MOL   C406  406   4.810   2.381   2.750  0.1495  0.4459 -0.3590
    1MOL   H407  407   4.774   2.751   2.382  2.3451 -0.3279  1.5094
    1MOL   H408  408   4.821   2.841   2.504  1.9095  0.0540 -2.1644
    1MOL   H409  409   4.534   2.771   2.445  0.3724 -0.7746 -0.3468
    1MOL   H410  410   4.652   2.188   2.534 -1.9281 -0.3854 -0.8110
    1MOL   H411  411   4.557   2.177   2.312 -0.4975 -0.1030 -1.2449
    1MOL   H412  412   4.508   2.388   2.185  0.9925 -2.4927 -0.7803
    1MOL   H413  413   4.515   2.608   2.312  0.3768  0.5661  0.9618
    1MOL   H414  414   4.768   2.775   2.777 -1.5712  0.4720  1.4099
    1MOL   H415  415   4.886   2.650   2.954  0.6075  1.0029 -0.8707
    1MOL   H416  416   4.916   2.404   2.940 -3.0514  1.0929  2.4231
    1MOL   H417  417   4.830   2.275   2.742 -1.0072  0.0632  1.4249
    1MOL   C418  418   4.559   2.874   2.628 -0.5394 -0.0737  0.3190
    1MOL   C419  419   4.460   2.801   2.731 -0.0199 -0.0697 -0.0756
    1MOL   N420  420   4.437   2.885   2.847 -0.5551  0.2362  0.0915
    1MOL   C421  421   4.491   2.864   2.973  0.3566 -0.1104  0.6363
    1MOL   C422  422   4.447   2.962   3.062 -0.0784  0.3542  0.4086
    1MOL   C423  423   4.500   2.965   3.188  0.1238 -0.1115  0.7276
    1MOL   C424  424   4.596   2.873   3.227 -0.5007  0.1671 -0.0430
    1MOL   C425  425   4.629   2.766   3.150 -0.5317  0.5997  0.3343
    1MOL   C426  426   4.572   2.761   3.022  0.0254 -0.4497 -0.0262
    1MOL   C427  427   4.360   3.049   2.983  0.0436 -0.4128  0.7903
    1MOL   C428  428   4.368   3.004   2.849  0.5245  0.1171  0.1138
    1MOL   C429  429   4.303   3.073   2.742  0.2351 -0.7359 -0.2679
    1MOL   C430  430   4.250   3.200   2.767  0.1216  0.6233 -0.0651
    1MOL   C431  431   4.235   3.242   2.898  0.2198  0.3312  0.2759
    1MOL   C432  432   4.285   3.163   3.004 -0.6448 -0.2324  0.1916
    1MOL   H433  433   4.626   2.925   2.696  0.2764 -1.1343  0.3323
    1MOL   H434  434   4.508   2.955   2.577  0.4964 -0.2849 -1.0635
    1MOL   H435  435   4.501   2.707   2.768 -0.4055  0.4258  1.6639
    1MOL   H436  436   4.470   3.045   3.254 -2.0629  1.1690 -1.7357
    1MOL   H437  437   4.648   2.896   3.319  0.2951 -1.4531 -0.0915
    1MOL   H438  438   4.693   2.683   3.173 -0.0742  1.1510  1.0907
    1MOL   H439  439   4.598   2.672   2.967  0.0533 -0.6289  0.2766
    1MOL   H440  440   4.312   3.040   2.640 -1.5517  1.5997 -1.2210
    1MOL   H441  441   4.211   3.266   2.690 -1.2020  1.0723  0.9759
    1MOL   H442  442   4.180   3.334   2.915  0.3479  0.7037 -1.2409
    1MOL   H443  443   4.270   3.203   3.103 -1.6127  2.2451 -0.9112
    1MOL   C444  444   4.337   2.745   2.661  0.5276 -0.5161 -0.0862
    1MOL   C445  445   4.245   2.663   2.756  0.5838 -0.3083 -0.0173
    1MOL   N446  446   4.104   2.685   2.733 -0.1429  0.4385  0.1464
    1MOL   C447  447   4.020   2.760   2.814 -0.1775 -0.1776 -0.1263
    1MOL   C448  448   3.890   2.757   2.763 -0.0884  0.2872  0.3995
    1MOL   C449  449   3.791   2.822   2.836 -0.1834 -0.1452 -0.1566
    1MOL   C450  450   3.828   2.900   2.947 -0.1239 -0.6784  0.1452
    1MOL   C451  451   3.963   2.919   2.986  0.5577 -0.1731  0.3166
    1MOL   C452  452   4.058   2.845   2.921  0.6631 -0.4756 -0.0853
    1MOL   C453  453   3.895   2.694   2.636  0.1023 -0.2005  0.1084
    1MOL   C454  454   4.031   2.646   2.620  0.2462  0.2459  0.2743
    1MOL   C455  455   4.071   2.577   2.505 -0.7620  0.1499 -0.2430
    1MOL   C456  456   3.978   2.568   2.397  0.6736 -0.5208  0.2860
    1MOL   C457  457   3.852   2.629   2.408 -0.2561 -0.1328 -0.6929
    1MOL   C458  458   3.815   2.689   2.523 -0.3216  0.4854 -0.1569
    1MOL   H459  459   4.278   2.824   2.613  0.8749 -0.2826 -0.1354
    1MOL   H460  460   4.373   2.685   2.578 -1.0076 -0.9127 -0.4881
    1MOL   H461  461   4.276   2.689   2.858  2.0983  0.7497 -0.7303
    1MOL   H462  462   3.686   2.829   2.810 -0.8218 -0.1442  2.2948
    1MOL   H463  463   3.752   2.961   2.992  0.7595 -0.3952  1.2908
    1MOL   H464  464   3.993   2.994   3.058 -3.3700  3.8598 -1.9817
    1MOL   H465  465   4.161   2.853   2.953  0.1425  1.2368  1.2114
    1MOL   H466  466   4.166   2.526   2.496 -0.3852  0.6904  0.5325
    1MOL   H467  467   3.989   2.520   2.301 -0.4520  2.0598 -1.1981
    1MOL   H468  468   3.782   2.627   2.325  0.3645 -0.0095 -1.2213
    1MOL   H469  469   3.715   2.728   2.518  0.5500  2.8217  0.2539
    1MOL   C470  470   4.278   2.512   2.758 -0.7040  0.5113 -0.0390
    1MOL   C471  471   4.208   2.425   2.864 -0.0443  0.1995  0.4416
    1MOL   N472  472   4.171   2.291   2.812  0.2624 -0.1097 -0.1434
    1MOL   C473  473   4.044   2.258   2.764  0.0590 -0.0594  0.1927
    1MOL   C474  474   4.038   2.114   2.739 -0.5480  0.4640 -0.7648
    1MOL   C475  475   3.913   2.056   2.720  0.2787  0.3315 -0.3317
    1MOL   C476  476   3.801   2.139   2.735  0.6777 -0.3778  0.4011
    1MOL   C477  477   3.809   2.271   2.764 -0.1084 -0.0067 -0.2332
    1MOL   C478  478   3.925   2.336   2.775  0.2478  0.2727  0.0141
    1MOL   C479  479   4.174   2.064   2.744  0.5681  0.2062  0.4199
    1MOL   C480  480   4.255   2.177   2.790  0.8767  0.0099 -0.4932
    1MOL   C481  481   4.392   2.159   2.802 -0.4191  0.3968  0.3481
    1MOL   C482  482   4.450   2.034   2.770 -0.0449 -0.8084  0.6045
    1MOL   C483  483   4.372   1.923   2.734  0.0887  0.2903  0.5005
    1MOL   C484  484   4.235   1.941   2.715 -0.2295  0.1998  0.0624
    1MOL   H485  485   4.282   2.460   2.662  3.2432 -2.1322  1.4014
    1MOL   H486  486   4.382   2.492   2.783 -0.7566 -0.6554 -0.7075
    1MOL   H487  487   4.109   2.467   2.881  0.0166  0.5275 -0.0306
    1MOL   H488  488   3.903   1.952   2.693  0.8181 -0.2368  1.5934
    1MOL   H489  489   3.702   2.096   2.724  0.8312 -0.3210 -1.3890
    1MOL   H490  490   3.719   2.330   2.777  0.5633  1.4434 -1.8862
    1MOL   H491  491   3.930   2.440   2.802 -0.0597  0.1494  0.5595
    1MOL   H492  492   4.451   2.246   2.825  0.7403 -0.3394  0.1599
    1MOL   H493  493   4.558   2.037   2.775  0.0105  1.2315 -0.8826
    1MOL   H494  494   4.412   1.824   2.719 -1.8613 -0.4886  0.2835
    1MOL   H495  495   4.169   1.862   2.682  0.0321  0.8760 -2.1902
    1MOL   C496  496   4.286   2.419   2.998 -0.3698  0.1853  0.6107
    1MOL   C497  497   4.213   2.379   3.128 -0.6803 -0.0834 -0.5856
    1MOL   N498  498   4.102   2.468   3.172  0.5819 -0.1308  0.3856
    1MOL   C499  499   3.963   2.451   3.170  0.1617  0.4710 -0.0572
    1MOL   C500  500   3.899   2.566   3.228  0.8323  0.1924  0.2265
    1MOL   C501  501   3.758   2.571   3.226  0.5991  0.0662  0.5429
    1MOL   C502  502   3.684   2.459   3.181 -0.6926  0.7681  0.3518
    1MOL   C503  503   3.746   2.340   3.133 -0.7048 -0.5724 -1.1433
    1MOL   C504  504   3.887   2.345   3.120  0.8830  0.5621  0.1642
    1MOL   C505  505   4.005   2.650   3.269  0.4429  0.3053 -0.3956
    1MOL   C506  506   4.127   2.591   3.232  0.5875 -0.1623 -0.8391
    1MOL   C507  507   4.254   2.655   3.256 -0.6088  0.2091  0.1136
    1MOL   C508  508   4.257   2.780   3.325  0.0176 -0.0561 -0.2165
    1MOL   C509  509   4.132   2.833   3.360  0.7106  0.3899  0.1221
    1MOL   C510  510   4.010   2.771   3.336 -0.0137 -0.0700  1.1328
    1MOL   H511  511   4.371   2.351   2.995 -0.6514 -0.1894  1.0632
    1MOL   H512  512   4.325   2.518   3.021 -1.2908  0.5227  0.7344
    1MOL   H513  513   4.271   2.373   3.220 -1.3177  1.7062 -0.0312
    1MOL   H514  514   3.715   2.668   3.248 -0.6402 -0.8475  2.2306
    1MOL   H515  515   3.576   2.464   3.185 -0.7391  0.9254 -1.0399
    1MOL   H516  516   3.694   2.259   3.085  2.3195 -2.4015 -1.4799
    1MOL   H517  517   3.930   2.261   3.067 -1.6755 -0.8157  0.1825
    1MOL   H518  518   4.347   2.605   3.233 -1.6045 -1.6500  0.0227
    1MOL   H519  519   4.347   2.830   3.358 -0.9341  0.6876  1.2925
    1MOL   H520  520   4.131   2.930   3.406 -1.7673 -0.1468  1.2637
    1MOL   H521  521   3.918   2.818   3.368  0.6123  0.6398  1.9323
    1MOL   H522  522   4.168   2.281   3.114 -0.7175  0.0975 -1.7969
    2MOL     C1  523   7.943   6.374   7.561  0.0351 -0.3276  0.1717
    2MOL     C2  524   7.857   6.275   7.489  0.0494  0.3315  0.3060
    2MOL     N3  525   7.932   6.198   7.397  0.3781  0.4772  0.2285
    2MOL     C4  526   7.907   6.195   7.262 -0.0840 -0.5477  0.3556
    2MOL     C5  527   7.988   6.088   7.199  0.0596 -0.0686 -0.1574
    2MOL     C6  528   7.975   6.070   7.062  0.1516  0.5151 -0.2766
    2MOL     C7  529   7.906   6.158   6.981  0.1088 -0.0707  0.5848
    2MOL     C8  530   7.826   6.261   7.039  0.5522  0.2206  0.0611
    2MOL     C9  531   7.824   6.277   7.180 -0.2204 -0.6736 -0.3083
    2MOL    C10  532   8.060   6.025   7.301  0.2902  0.1209 -0.1108
    2MOL    C11  533   8.018   6.090   7.427  0.2875 -0.3705  0.0530
    2MOL    C12  534   8.069   6.040   7.544 -0.3405 -0.1784  0.4994
    2MOL    C13  535   8.164   5.938   7.544  0.4562  0.2213  0.1134
    2MOL    C14  536   8.204   5.873   7.430 -0.1145 -0.6703  0.3938
    2MOL    C15  537   8.150   5.918   7.308  0.3515 -0.6486 -0.7501
    2MOL    H16  538   8.029   6.420   7.512  0.6759  1.9932  3.2885
    2MOL    H17  539   7.985   6.326   7.650  2.8872 -0.2048 -1.0487
    2MOL    H18  540   7.796   6.340   7.427  1.8429  1.7146 -0.0348
    2MOL    H19  541   8.010   5.972   7.034  0.4371  0.6345 -0.3427
    2MOL    H20  542   7.906   6.139   6.875 -0.7924 -0.1693  0.5964
    2MOL    H21  543   7.754   6.312   6.977 -0.2484 -1.2625 -0.2716
    2MOL    H22  544   7.767   6.353   7.231  1.2562  2.2385 -2.8501
    2MOL    H23  545   8.037   6.081   7.639  0.4235 -0.0642  0.7063
    2MOL    H24  546   8.195   5.905   7.642 -0.4736 -1.7365 -0.2288
    2MOL    H25  547   0.049   5.794   7.430  0.6198 -0.0073  0.9402
    2MOL    H26  548   8.174   5.857   7.222  0.6462 -2.2200  0.4291
    2MOL    H27  549   7.892   6.452   7.618 -0.4734  0.1979 -0.9956
    2MOL    C28  550   7.758   6.199   7.577 -0.3271  0.1560 -0.0486
    2MOL    C29  551   7.682   6.080   7.514  0.2936 -0.1291  0.6896
    2MOL    N30  552   7.657   5.972   7.602  0.1138 -0.4588  0.3283
    2MOL    C31  553   7.646   5.838   7.554 -0.4120  0.2401  0.1938
    2MOL    C32  554   7.613   5.755   7.660  0.0898 -0.1618  0.5865
    2MOL    C33  555   7.616   5.614   7.636 -0.1858 -0.8263 -0.1823
    2MOL    C34  556   7.651   5.563   7.507  0.8768  0.4650 -0.4004
    2MOL    C35  557   7.682   5.649   7.403 -0.1289  0.1128  0.0692
    2MOL    C36  558   7.680   5.788   7.426 -0.1173  0.6097 -0.0154
    2MOL    C37  559   7.586   5.835   7.772  0.1953  0.3141 -0.5766
    2MOL    C38  560   7.609   5.968   7.739  0.8290 -0.2806  0.3563
    2MOL    C39  561   7.582   6.075   7.834 -0.1471 -0.1509 -0.9924
    2MOL    C40  562   7.543   6.041   7.966 -0.0857  0.6015  0.1250
    2MOL    C41  563   7.527   5.906   8.004  0.2329 -0.4126  0.1291
    2MOL    C42  564   7.546   5.807   7.904 -0.1810 -0.0830  0.0161
    2MOL    H43  565   7.815   6.155   7.659 -0.4310 -0.2884 -0.2150
    2MOL    H44  566   7.701   6.282   7.618  0.5494  1.7491 -1.9588
    2MOL    H45  567   7.755   6.041   7.444  0.7471 -1.6349  1.9733
    2MOL    H46  568   7.590   5.533   7.703 -1.6401 -0.3285 -0.1200
    2MOL    H47  569   7.652   5.456   7.491 -1.0548 -0.3256  3.9626
    2MOL    H48  570   7.700   5.610   7.304 -0.1278 -0.2623  0.2192
    2MOL    H49  571   7.692   5.854   7.342 -3.4794  3.4246  1.6194
    2MOL    H50  572   7.602   6.177   7.807  3.2255  0.1563  2.2175
    2MOL    H51  573   7.523   6.110   8.045 -0.2249  1.4701 -0.6638
    2MOL    H52  574   7.490   5.878   8.101  0.4371 -0.3591  0.2238
    2MOL    H53  575   7.539   5.700   7.918  0.1127  0.0288  1.0405
    2MOL    C54  576   7.560   6.129   7.424  0.1180  0.5447 -0.4341
    2MOL    C55  577   7.440   6.195   7.488  0.1330  0.1018 -0.0270
    2MOL    N56  578   7.454   6.329   7.556 -0.0511  0.2800 -0.2774
    2MOL    C57  579   7.386   6.363   7.676 -0.1060  0.5797 -0.1611
    2MOL    C58  580   7.425   6.499   7.709  0.9617  0.5161  0.2306
    2MOL    C59  581   7.384   6.541   7.833 -0.0429 -0.1507 -0.2365
    2MOL    C60  582   7.310   6.464   7.921  0.8256  0.5299  0.6886
    2MOL    C61  583   7.264   6.337   7.882 -0.1229 -0.1511  0.1525
    2MOL    C62  584   7.304   6.282   7.761 -0.4385 -0.9054  0.1940
    2MOL    C63  585   7.500   6.551   7.599  0.3820  1.0658  1.0939
    2MOL    C64  586   7.513   6.445   7.502  0.4320 -0.0660  0.7647
    2MOL    C65  587   7.580   6.476   7.380  0.3183 -0.7386  0.0422
    2MOL    C66  588   7.647   6.596   7.360 -0.4696 -0.4934  0.4184
    2MOL    C67  589   7.631   6.698   7.452  0.3656  0.5022 -0.1250
    2MOL    C68  590   7.553   6.681   7.565 -0.0315  0.2695 -0.4414
    2MOL    H69  591   7.603   6.195   7.348  0.4642  0.1965 -0.5405
    2MOL    H70  592   7.529   6.046   7.361  2.7680 -1.6647  1.0714
    2MOL    H71  593   7.418   6.121   7.565 -0.8487  0.0790 -0.3257
    2MOL    H72  594   7.403   6.637   7.879 -0.7375 -0.3884  0.5520
    2MOL    H73  595   7.281   6.516   8.011 -0.6167  0.0944  0.4840
    2MOL    H74  596   7.194   6.275   7.935  0.5054 -1.4441 -0.5278
    2MOL    H75  597   7.275   6.185   7.726  1.9472 -1.7720  0.5172
    2MOL    H76  598   7.578   6.404   7.299  3.3846  1.0619 -1.7335
    2MOL    H77  599   7.697   6.621   7.268  0.4446  0.9903  1.2903
    2MOL    H78  600   7.687   6.788   7.433 -0.1885  0.6244 -1.1909
    2MOL    H79  601   7.549   6.762   7.636 -0.6038  0.1863 -0.3743
    2MOL    C80  602   7.321   6.211   7.387 -0.0752  0.1480 -0.0697
    2MOL    C81  603   7.246   6.076   7.355 -0.7374 -0.4693  0.1212
    2MOL    N82  604   7.183   6.014   7.465  0.3076  0.0497  0.3056
    2MOL    C83  605   7.193   5.876   7.497  1.5065  0.4426 -0.3319
    2MOL    C84  606   7.128   5.841   7.617  0.1328  0.2704 -0.3703
    2MOL    C85  607   7.126   5.705   7.659  0.2148  0.1960  0.1004
    2MOL    C86  608   7.187   5.603   7.580  0.5364 -0.4659  0.6014
    2MOL    C87  609   7.239   5.635   7.456  0.0875  1.2432  0.7116
    2MOL    C88  610   7.245   5.770   7.413 -0.2809 -0.2387 -0.9094
    2MOL    C89  611   7.071   5.963   7.664  1.2515  0.0755  0.1179
    2MOL    C90  612   7.101   6.066   7.571  0.6734 -0.1223  0.5469
    2MOL    C91  613   7.049   6.193   7.582  0.2075  0.0617 -0.0308
    2MOL    C92  614   6.974   6.226   7.699 -0.0896  0.0546 -0.1547
    2MOL    C93  615   6.952   6.130   7.795  0.1561  0.1416 -0.3809
    2MOL    C94  616   6.994   5.998   7.776 -0.4068 -0.7735 -1.2242
    2MOL    H95  617   7.242   6.275   7.424  0.1098 -0.6391  1.7347
    2MOL    H96  618   7.348   6.265   7.296  0.4977  1.2736  0.7540
    2MOL    H97  619   7.319   6.012   7.307 -0.1927  1.5474 -1.8119
    2MOL    H98  620   7.080   5.684   7.754  2.4292 -0.5070  1.0497
    2MOL    H99  621   7.196   5.498   7.605 -0.0785 -0.9200 -1.0297
    2MOL   H100  622   7.282   5.557   7.393 -2.2215  1.2609 -0.9647
    2MOL   H101  623   7.297   5.801   7.324  1.6758 -1.7191 -0.3090
    2MOL   H102  624   7.075   6.271   7.512  2.3407  0.5226  1.2217
    2MOL   H103  625   6.948   6.328   7.721  1.2975  0.4533 -0.3299
    2MOL   H104  626   6.899   6.150   7.887 -0.4414 -0.5544 -0.5715
    2MOL   H105  627   6.978   5.913   7.840  0.0206 -2.4414 -3.2502
    2MOL   C106  628   7.131   6.101   7.254  0.4035  0.0662  0.1525
    2MOL   C107  629   7.172   6.112   7.104  0.2944  0.8590 -0.3154
    2MOL   N108  630   7.225   5.985   7.044 -0.3802  0.2189 -0.6914
    2MOL   C109  631   7.359   5.960   6.996  0.4456 -0.3209  0.6087
    2MOL   C110  632   7.362   5.834   6.932 -0.4019 -1.3657 -0.1501
    2MOL   C111  633   7.485   5.796   6.861  0.2198 -0.6001 -0.5055
    2MOL   C112  634   7.589   5.886   6.846 -0.1476 -0.0757  0.2541
    2MOL   C113  635   7.585   6.008   6.908  0.7186  0.0922 -0.4395
    2MOL   C114  636   7.467   6.051   6.979 -0.1058  0.7971 -0.1211
    2MOL   C115  637   7.240   5.769   6.952 -0.1684 -0.2179  0.4063
    2MOL   C116  638   7.156   5.864   7.022 -0.5014  0.0012 -0.1264
    2MOL   C117  639   7.026   5.827   7.059 -0.2778 -0.8110 -0.0910
    2MOL   C118  640   6.971   5.707   7.020 -0.9418  0.0714  0.1095
    2MOL   C119  641   7.047   5.610   6.954 -0.1798 -0.5730 -0.3266
    2MOL   C120  642   7.182   5.639   6.919  0.0269 -0.0419  0.1291
    2MOL   H121  643   7.061   6.018   7.254  0.8762 -0.3372  0.3514
    2MOL   H122  644   7.074   6.185   7.293  0.1794 -0.1909  0.3769
    2MOL   H123  645   7.255   6.182   7.090  0.3010  1.0629  0.7223
    2MOL   H124  646   7.494   5.702   6.810 -0.8468 -1.3069  0.5696
    2MOL   H125  647   7.669   5.848   6.784 -0.2703 -0.0700  0.0903
    2MOL   H126  648   7.669   6.074   6.891 -0.7506  1.9419 -0.6631
    2MOL   H127  649   7.466   6.151   7.018  0.6327  0.8910 -0.3295
    2MOL   H128  650   6.960   5.898   7.106  1.1606  1.7028 -1.6992
    2MOL   H129  651   6.866   5.694   7.040 -1.1319 -0.5182 -1.2185
    2MOL   H130  652   6.997   5.519   6.922 -0.4933 -1.4472  2.5235
    2MOL   H131  653   7.243   5.564   6.871  0.2129 -0.0011  0.3010
    2MOL   C132  654   7.056   6.173   7.009  0.2575 -0.1932  0.5150
    2MOL   C133  655   7.008   6.312   7.050 -0.3429  0.5755 -0.4971
    2MOL   N134  656   7.113   6.407   7.083 -0.5035 -0.0771 -0.3022
    2MOL   C135  657   7.124   6.475   7.203 -0.5850  0.3716  0.0097
    2MOL   C136  658   7.245   6.551   7.200  0.6252  0.3284 -0.4972
    2MOL   C137  659   7.287   6.617   7.314  0.2011  0.1091  0.1816
    2MOL   C138  660   7.207   6.623   7.427 -0.4610 -0.2747 -0.2946
    2MOL   C139  661   7.081   6.550   7.428 -0.4883 -0.9803 -0.0675
    2MOL   C140  662   7.039   6.474   7.317 -0.2131 -0.3035  0.7926
    2MOL   C141  663   7.298   6.537   7.067 -0.5796  0.5337  0.1854
    2MOL   C142  664   7.209   6.451   6.993 -0.5638  0.0709 -0.5175
    2MOL   C143  665   7.235   6.424   6.854  0.3695  1.0379 -0.5230
    2MOL   C144  666   7.336   6.487   6.786  0.5061  0.2369  0.1323
    2MOL   C145  667   7.421   6.578   6.853  0.0041 -0.6026  0.3999
    2MOL   C146  668   7.402   6.599   6.995  0.2207  0.0471 -0.0269
    2MOL   H147  669   7.113   6.175   6.916  0.4751 -2.2251  0.5853
    2MOL   H148  670   6.973   6.107   6.986  1.8324 -2.8327  2.1266
    2MOL   H149  671   6.954   6.302   7.145  0.1213  0.9408 -0.1911
    2MOL   H150  672   7.386   6.661   7.312  0.2819 -0.0976 -0.5704
    2MOL   H151  673   7.241   6.671   7.518 -3.3015  0.6038  0.3426
    2MOL   H152  674   7.027   6.547   7.522  3.0581  1.6774  2.1712
    2MOL   H153  675   6.946   6.419   7.325 -1.5800  1.9102  0.6474
    2MOL   H154  676   7.171   6.356   6.800  0.6057  0.7440 -0.4345
    2MOL   H155  677   7.351   6.471   6.680  0.8244 -2.4318  0.5429
    2MOL   H156  678   7.495   6.634   6.799  2.3426 -0.8112  3.2567
    2MOL   H157  679   7.460   6.675   7.045 -1.6437  1.7178 -0.3420
    2MOL   C158  680   6.908   6.377   6.951  0.1659  0.1070  0.4979
    2MOL   C159  681   6.775   6.298   6.932  0.0211 -0.3772 -0.4061
    2MOL   N160  682   6.721   6.232   7.059  0.3471 -0.2010  0.1902
    2MOL   C161  683   6.685   6.094   7.066  0.2251 -0.4328  0.2696
    2MOL   C162  684   6.638   6.065   7.203 -0.4894 -0.6423 -0.7417
    2MOL   C163  685   6.610   5.930   7.235 -0.4219  0.7521  0.4912
    2MOL   C164  686   6.616   5.830   7.141  0.0712  0.3772  0.3843
    2MOL   C165  687   6.649   5.861   7.008 -0.1107 -1.0020  0.7867
    2MOL   C166  688   6.688   5.993   6.967  0.2586  0.2338  0.1941
    2MOL   C167  689   6.635   6.196   7.262  0.2927 -0.5457 -0.5355
    2MOL   C168  690   6.695   6.292   7.182  0.6902  0.5341 -0.2376
    2MOL   C169  691   6.709   6.425   7.228  0.1895 -0.3145 -0.4840
    2MOL   C170  692   6.675   6.462   7.357 -0.0074  0.3323 -0.7858
    2MOL   C171  693   6.604   6.371   7.432 -0.1691 -0.4221 -0.3192
    2MOL   C172  694   6.589   6.240   7.392 -0.3284 -1.0619  0.6007
    2MOL   H173  695   6.883   6.481   6.971 -0.0115  0.2542 -0.4471
    2MOL   H174  696   6.966   6.378   6.859 -1.7852  1.3936 -0.7589
    2MOL   H175  697   6.804   6.213   6.870  2.0601  0.2092 -0.2966
    2MOL   H176  698   6.584   5.894   7.334  1.0373 -2.2880 -0.1528
    2MOL   H177  699   6.583   5.731   7.167  2.6318 -0.7835 -0.5727
    2MOL   H178  700   6.643   5.783   6.934  1.4719 -0.3792 -0.0387
    2MOL   H179  701   6.721   6.022   6.868 -2.5002 -1.5627 -1.3203
    2MOL   H180  702   6.758   6.503   7.171  0.7774 -0.4070 -0.1066
    2MOL   H181  703   6.667   6.564   7.392 -0.6399 -0.2415  0.8157
    2MOL   H182  704   6.561   6.410   7.523 -1.9021 -0.9719 -0.8818
    2MOL   H183  705   6.547   6.173   7.465 -0.2553 -2.6246 -0.7602
    2MOL   C184  706   6.654   6.378   6.874 -0.1666 -0.1484  0.3067
    2MOL   C185  707   6.671   6.524   6.813 -0.3071  0.3067  0.7378
    2MOL   N186  708   6.793   6.555   6.735  0.1703  0.6947  0.5166
    2MOL   C187  709   6.883   6.659   6.756 -0.2492  0.3894  0.3375
    2MOL   C188  710   6.972   6.670   6.640 -0.2295  0.7608 -0.2110
    2MOL   C189  711   7.076   6.771   6.639 -0.4384  0.9509  0.0158
    2MOL   C190  712   7.085   6.859   6.754 -0.0766  1.0134  0.1355
    2MOL   C191  713   7.007   6.836   6.866 -0.0331  0.9286 -0.3941
    2MOL   C192  714   6.904   6.745   6.865  0.1519 -0.0402 -0.1272
    2MOL   C193  715   6.933   6.557   6.557  0.2961 -0.3956  0.7304
    2MOL   C194  716   6.830   6.487   6.618  0.5784  0.8631  0.8465
    2MOL   C195  717   6.779   6.371   6.549  0.4238  0.5695 -0.5579
    2MOL   C196  718   6.841   6.326   6.427  0.1581  0.3375 -0.0404
    2MOL   C197  719   6.948   6.392   6.373 -0.2884 -0.3646 -0.2998
    2MOL   C198  720   6.989   6.509   6.437 -0.2649  0.9946 -0.2591
    2MOL   H199  721   6.623   6.313   6.793  0.0354  1.3647 -1.0012
    2MOL   H200  722   6.566   6.380   6.938 -0.3945  0.6216 -0.0341
    2MOL   H201  723   6.671   6.587   6.903 -1.0827  0.6958  0.4748
    2MOL   H202  724   7.146   6.788   6.559 -0.8244  1.8383 -0.1332
    2MOL   H203  725   7.158   6.938   6.758 -0.8076  1.6476  1.2873
    2MOL   H204  726   7.021   6.895   6.956  1.1286 -1.5636  1.0893
    2MOL   H205  727   6.841   6.734   6.952 -1.0803 -0.9442 -1.1199
    2MOL   H206  728   6.692   6.317   6.582  1.0811  0.0277  0.3231
    2MOL   H207  729   6.802   6.243   6.368  1.4676 -0.4438  0.1700
    2MOL   H208  730   6.997   6.371   6.279 -0.5699 -0.5322 -0.4107
    2MOL   H209  731   7.076   6.564   6.403  1.2238 -0.7024  0.7191
    2MOL   C210  732   6.538   6.560   6.733 -0.4357  0.6028  0.8447
    2MOL   C211  733   6.537   6.703   6.678 -0.3535 -0.5251 -0.4945
    2MOL   N212  734   6.447   6.711   6.562 -0.4629  0.1205  0.0593
    2MOL   C213  735   6.487   6.749   6.433  1.2606  0.6835 -0.0772
    2MOL   C214  736   6.378   6.741   6.342  0.2775 -0.1567 -0.4068
    2MOL   C215  737   6.398   6.776   6.208  0.1640 -0.0663  0.2803
    2MOL   C216  738   6.523   6.821   6.164 -0.8349 -0.0139  0.2046
    2MOL   C217  739   6.631   6.831   6.253 -0.1202 -0.0172 -0.6448
    2MOL   C218  740   6.610   6.792   6.385  0.0352 -0.0993 -0.7695
    2MOL   C219  741   6.271   6.679   6.413 -0.1871 -0.1720 -0.2427
    2MOL   C220  742   6.311   6.668   6.554 -0.6011  0.4317 -0.1443
    2MOL   C221  743   6.230   6.609   6.648  0.4565  0.0965  0.2625
    2MOL   C222  744   6.106   6.545   6.609 -0.1246  0.1826 -0.4941
    2MOL   C223  745   6.064   6.551   6.473  1.0484  0.0784 -0.0353
    2MOL   C224  746   6.148   6.623   6.384 -0.1291 -1.1540  0.0798
    2MOL   H225  747   6.547   6.489   6.651  1.7229  1.8606 -0.0556
    2MOL   H226  748   6.450   6.550   6.797 -0.8593  0.8573  0.3020
    2MOL   H227  749   6.640   6.724   6.650  1.0226 -3.4807  2.1072
    2MOL   H228  750   6.314   6.763   6.140  1.0138  0.1219 -0.8198
    2MOL   H229  751   6.539   6.844   6.059 -2.5607  1.6153  0.2748
    2MOL   H230  752   6.730   6.857   6.217  1.6021 -2.2621  2.2719
    2MOL   H231  753   6.700   6.795   6.446 -0.2449 -1.2756 -0.3008
    2MOL   H232  754   6.247   6.610   6.755  0.3055  2.1758  0.2815
    2MOL   H233  755   6.048   6.486   6.678  1.6308  0.5671  1.3605
    2MOL   H234  756   5.971   6.498   6.459  2.5451 -2.8645  0.7389
    2MOL   H235  757   6.113   6.628   6.281  0.4996  0.4135 -0.0661
    2MOL   C236  758   6.510   6.812   6.787 -0.9326 -0.7243  0.0395
    2MOL   C237  759   6.530   6.961   6.736  0.2942 -0.5700 -0.3604
    2MOL   N238  760   6.469   7.059   6.838  0.2489 -0.7251  0.3214
    2MOL   C239  761   6.365   7.149   6.817  0.1614 -0.3446 -0.4788
    2MOL   C240  762   6.339   7.219   6.938  0.2595 -0.0818 -0.8394
    2MOL   C241  763   6.243   7.320   6.937  0.5306 -0.2020  0.5567
    2MOL   C242  764   6.177   7.356   6.819  0.0881 -0.0790 -0.7170
    2MOL   C243  765   6.213   7.295   6.697  0.1744 -0.0795  0.4854
    2MOL   C244  766   6.298   7.181   6.697 -0.0702  0.1488 -0.1400
    2MOL   C245  767   6.431   7.166   7.038  0.2827  0.3056  0.7841
    2MOL   C246  768   6.512   7.073   6.969 -0.3304 -0.5193 -1.2028
    2MOL   C247  769   6.617   7.004   7.038 -0.4225 -0.1328  0.5865
    2MOL   C248  770   6.646   7.030   7.174 -0.2212  0.3929 -0.3208
    2MOL   C249  771   6.565   7.121   7.239  1.0873 -0.1009  0.2143
    2MOL   C250  772   6.464   7.193   7.168 -0.5779  0.2084  0.5495
    2MOL   H251  773   6.406   6.796   6.813 -1.4338 -0.7031 -1.8536
    2MOL   H252  774   6.584   6.787   6.863 -0.5977 -1.3697 -0.4936
    2MOL   H253  775   6.479   6.971   6.641  0.4738 -0.5892 -0.4599
    2MOL   H254  776   6.232   7.366   7.034  0.8404  1.1392 -0.0402
    2MOL   H255  777   6.100   7.432   6.820 -0.2385 -0.3998  2.0757
    2MOL   H256  778   6.163   7.323   6.606  0.3688 -0.1621  0.3531
    2MOL   H257  779   6.329   7.130   6.607 -0.1590 -1.3139  0.6434
    2MOL   H258  780   6.677   6.930   6.988  0.2565 -0.2896  1.6153
    2MOL   H259  781   6.725   6.977   7.224 -0.5244  2.2258  2.2327
    2MOL   H260  782   6.573   7.143   7.344 -0.8850  0.5341  0.2574
    2MOL   H261  783   6.404   7.270   7.213 -1.1860  0.5293 -0.7883
    2MOL   C262  784   6.678   6.993   6.700  0.4615  0.7216  0.6447
    2MOL   C263  785   6.735   7.141   6.706 -0.5993  0.2988 -0.8858
    2MOL   N264  786   6.877   7.147   6.686 -0.1207  0.2291  0.0922
    2MOL   C265  787   6.972   7.196   6.781 -0.0318 -0.1427 -0.3464
    2MOL   C266  788   7.099   7.211   6.711 -0.3614  0.2813  0.1381
    2MOL   C267  789   7.208   7.256   6.793 -0.1601 -0.0467 -0.4451
    2MOL   C268  790   7.193   7.288   6.929 -0.4109 -0.1887  0.3943
    2MOL   C269  791   7.068   7.274   6.996  0.0985  0.5062  0.7219
    2MOL   C270  792   6.960   7.235   6.919 -0.1222  0.2310 -0.1164
    2MOL   C271  793   7.076   7.168   6.580 -0.4920  0.4472  0.1061
    2MOL   C272  794   6.943   7.126   6.566 -0.3053 -0.4051  0.0078
    2MOL   C273  795   6.906   7.063   6.447  0.2006 -0.1960 -0.8295
    2MOL   C274  796   6.988   7.047   6.337 -0.6444 -0.7645  0.3830
    2MOL   C275  797   7.120   7.098   6.346 -0.1119 -0.2063 -0.1760
    2MOL   C276  798   7.159   7.159   6.464  0.3151  0.1558 -0.8109
    2MOL   H277  799   6.746   6.934   6.761 -0.7232 -0.4357  0.8744
    2MOL   H278  800   6.692   6.948   6.602 -0.2224  2.0640 -0.0932
    2MOL   H279  801   6.705   7.171   6.806 -1.2878  0.9164 -1.2693
    2MOL   H280  802   7.300   7.274   6.740 -0.3678  2.7848  0.1134
    2MOL   H281  803   7.272   7.334   6.986 -0.2286  0.5835 -0.4655
    2MOL   H282  804   7.069   7.307   7.099 -1.0835 -2.1276  1.6407
    2MOL   H283  805   6.864   7.230   6.968  0.4141  0.2112  0.9487
    2MOL   H284  806   6.806   7.023   6.438 -1.1593  2.7206  0.4561
    2MOL   H285  807   6.966   7.006   6.239 -1.5883 -0.0756  0.2934
    2MOL   H286  808   7.187   7.094   6.262 -0.2395 -1.2817 -0.2390
    2MOL   H287  809   7.263   7.188   6.471  0.0101  0.9903  0.2599
    2MOL   C288  810   6.666   7.229   6.599 -0.1557 -0.6975 -0.6135
    2MOL   C289  811   6.690   7.379   6.618 -0.5384 -0.4421 -0.8107
    2MOL   N290  812   6.683   7.460   6.493 -0.4906  0.1468 -0.3454
    2MOL   C291  813   6.791   7.519   6.424  0.1209  0.7590 -0.7878
    2MOL   C292  814   6.737   7.592   6.309 -0.2719 -0.2476 -0.6039
    2MOL   C293  815   6.826   7.670   6.230 -0.2311  0.4611 -0.1354
    2MOL   C294  816   6.966   7.670   6.248  0.1531 -0.2999  0.1958
    2MOL   C295  817   7.018   7.589   6.351 -0.2173 -0.4034  0.2700
    2MOL   C296  818   6.934   7.518   6.441  0.0824  0.1018  0.3643
    2MOL   C297  819   6.599   7.561   6.299  0.1917  0.5240 -0.3148
    2MOL   C298  820   6.567   7.493   6.420 -0.1317  0.4699 -0.5051
    2MOL   C299  821   6.431   7.457   6.450 -0.4117  0.6759 -0.1588
    2MOL   C300  822   6.331   7.482   6.354 -0.2364 -0.0372  0.8501
    2MOL   C301  823   6.364   7.541   6.230  0.0715  0.0792 -0.5104
    2MOL   C302  824   6.494   7.595   6.207  0.9077  0.2013 -0.0982
    2MOL   H303  825   6.685   7.190   6.499 -0.8572  0.7131 -1.3169
    2MOL   H304  826   6.560   7.202   6.593  0.0850 -1.2866 -2.5723
    2MOL   H305  827   6.793   7.382   6.654 -0.5837 -0.3297 -0.6908
    2MOL   H306  828   6.778   7.705   6.140  0.0576  0.9849 -0.0887
    2MOL   H307  829   7.026   7.725   6.177 -1.1789  0.1775 -0.5786
    2MOL   H308  830   7.124   7.578   6.372 -0.5787  0.6753  2.8497
    2MOL   H309  831   6.981   7.460   6.519 -1.3559 -1.7093 -0.0674
    2MOL   H310  832   6.410   7.404   6.541 -2.0271  0.0793 -0.8462
    2MOL   H311  833   6.234   7.436   6.361  0.0870 -0.8692 -0.0092
    2MOL   H312  834   6.288   7.553   6.154  0.8889 -1.4799 -1.6137
    2MOL   H313  835   6.515   7.653   6.118 -1.8124 -0.9706 -1.5875
    2MOL   C314  836   6.606   7.435   6.744 -0.1763 -0.9778  0.2746
    2MOL   C315  837   6.580   7.589   6.751  0.1680 -0.1665  0.5327
    2MOL   N316  838   6.480   7.617   6.859 -0.4800  0.7535 -0.1050
    2MOL   C317  839   6.350   7.670   6.842 -0.3075 -0.2205  0.3005
    2MOL   C318  840   6.298   7.694   6.972 -0.4234 -0.7262 -0.3724
    2MOL   C319  841   6.177   7.760   6.983  0.5848 -0.0298  0.9249
    2MOL   C320  842   6.100   7.798   6.868 -0.4568 -0.6023  0.1451
    2MOL   C321  843   6.159   7.769   6.741 -0.1189  0.9151 -0.7028
    2MOL   C322  844   6.281   7.703   6.730  0.1094  0.5103  0.3890
    2MOL   C323  845   6.387   7.642   7.067 -0.7206  0.0691  0.9304
    2MOL   C324  846   6.498   7.592   6.994  0.2611 -1.0248  0.0517
    2MOL   C325  847   6.609   7.528   7.061  0.6782  0.7069  0.1888
    2MOL   C326  848   6.609   7.521   7.201  0.1371 -0.0680 -0.6011
    2MOL   C327  849   6.503   7.573   7.277  0.1760  0.5073 -0.5798
    2MOL   C328  850   6.393   7.630   7.211  0.2462  0.5889 -0.0556
    2MOL   H329  851   6.506   7.393   6.738 -0.6856 -0.0592  1.9246
    2MOL   H330  852   6.636   7.379   6.833 -0.2955 -0.5278  0.6018
    2MOL   H331  853   6.525   7.613   6.660 -1.6734 -0.3490  1.5602
    2MOL   H332  854   6.140   7.782   7.082 -1.4620 -0.5718  0.3161
    2MOL   H333  855   6.005   7.846   6.886 -0.9559 -0.8607 -1.6748
    2MOL   H334  856   6.110   7.794   6.647  0.8220  1.2798 -1.1007
    2MOL   H335  857   6.318   7.678   6.632 -0.0673  0.3792  0.3554
    2MOL   H336  858   6.697   7.500   7.005  0.5706  1.2799 -0.2725
    2MOL   H337  859   6.696   7.475   7.247  0.3191 -0.3557 -1.2242
    2MOL   H338  860   6.507   7.573   7.385  0.8780 -1.4483 -0.5910
    2MOL   H339  861   6.301   7.650   7.264  0.3243  2.7793 -0.7046
    2MOL   C340  862   6.698   7.681   6.761 -0.1832  0.3424 -0.4100
    2MOL   C341  863   6.671   7.830   6.724  0.7863 -0.6691  0.5794
    2MOL   N342  864   6.774   7.913   6.780 -0.0844  0.1341 -0.1557
    2MOL   C343  865   6.747   8.014   6.874 -0.3322 -0.7364  0.2640
    2MOL   C344  866   6.869   8.089   6.897  1.2044  0.8018  1.2771
    2MOL   C345  867   6.868   8.195   6.991  0.3318  0.7104  0.3493
    2MOL   C346  868   6.754   8.221   7.068  0.0150 -0.1635 -0.0470
    2MOL   C347  869   6.635   8.145   7.039  0.0797 -0.3061  0.0162
    2MOL   C348  870   6.633   8.040   6.947 -0.5559  0.1141  0.6257
    2MOL   C349  871   6.965   8.033   6.802  0.6497  0.1759  0.0204
    2MOL   C350  872   6.900   7.924   6.739 -0.1341 -0.3340 -0.5901
    2MOL   C351  873   6.974   7.854   6.640 -0.1299 -0.0700 -0.4160
    2MOL   C352  874   7.105   7.894   6.608 -0.0568  0.2488 -0.4983
    2MOL   C353  875   7.165   8.002   6.674  0.6803  0.2319  1.0160
    2MOL   C354  876   7.093   8.070   6.773 -0.2460  0.1092  0.1643
    2MOL   H355  877   6.744   7.667   6.858  0.6693 -0.8939 -0.9772
    2MOL   H356  878   6.772   7.630   6.699 -1.5328 -0.6922 -1.2127
    2MOL   H357  879   6.575   7.851   6.772 -1.9600 -2.6570 -3.6903
    2MOL   H358  880   6.957   0.028   7.005  0.5162  0.4318  0.3824
    2MOL   H359  881   6.742   0.081   7.131  0.6839  1.1262 -1.6703
    2MOL   H360  882   6.548   8.179   7.095  0.5111  0.7636  0.0326
    2MOL   H361  883   6.540   7.988   6.936 -1.3425  1.8092 -1.1295
    2MOL   H362  884   6.932   7.773   6.583 -1.3120 -0.7100  1.3286
    2MOL   H363  885   7.171   7.835   6.546 -0.6546 -1.6803  0.6426
    2MOL   H364  886   7.264   8.031   6.640  0.3540  1.1128  0.8271
    2MOL   H365  887   7.137   8.156   6.821  0.1313  0.6437 -1.0983
    2MOL   C366  888   6.648   7.854   6.564  1.0904  0.7674 -0.5409
    2MOL   C367  889   6.545   7.955   6.521  0.4765  0.0655  0.4154
    2MOL   N368  890   6.566   8.088   6.577  0.0953  0.3313 -0.3609
    2MOL   C369  891   6.482   8.156   6.661 -0.0311 -0.6044 -0.0216
    2MOL   C370  892   6.516   0.067   6.669  0.3874  0.5033  1.0569
    2MOL   C371  893   6.423   0.153   6.739 -0.4806 -0.3603  0.8851
    2MOL   C372  894   6.307   0.108   6.798 -0.4068  0.1118 -0.0644
    2MOL   C373  895   6.275   8.195   6.794  0.1239  0.6184  0.0501
    2MOL   C374  896   6.360   8.109   6.720  0.3212 -0.2516  0.5890
    2MOL   C375  897   6.640   0.075   6.596 -0.7783 -0.3283 -0.3103
    2MOL   C376  898   6.668   8.177   6.547 -0.3142  0.8816 -0.0193
    2MOL   C377  899   6.781   8.155   6.460  0.4116  0.2588  0.6274
    2MOL   C378  900   6.876   0.027   6.440  0.1679 -0.0879  0.5071
    2MOL   C379  901   6.851   0.158   6.493  0.1917  1.0409  1.2317
    2MOL   C380  902   6.734   0.176   6.577 -0.4406 -0.3802  0.4371
    2MOL   H381  903   6.740   7.879   6.511  1.9486 -0.6989  0.2421
    2MOL   H382  904   6.619   7.756   6.528 -0.5191  0.8092  0.5764
    2MOL   H383  905   6.463   7.904   6.571  1.1527 -1.2407  0.2411
    2MOL   H384  906   6.432   0.261   6.739 -0.9496 -0.3181  0.5094
    2MOL   H385  907   6.241   0.180   6.845  0.4623  1.3065 -0.6320
    2MOL   H386  908   6.185   8.158   6.840  0.2911 -1.0741 -0.9265
    2MOL   H387  909   6.322   8.008   6.719 -0.8794  0.1954 -0.7642
    2MOL   H388  910   6.805   8.063   6.408  2.1708  0.3915  1.1672
    2MOL   H389  911   6.958   0.001   6.374  0.5415 -0.1801  1.0024
    2MOL   H390  912   6.925   0.235   6.473  0.4766  0.2064 -1.1128
    2MOL   H391  913   6.709   0.275   6.612 -0.3356  0.1360 -0.9197
    2MOL   C392  914   6.514   7.955   6.368  0.1565 -0.5279  0.0697
    2MOL   C393  915   6.438   8.070   6.305  0.3085  0.0321  0.3060
    2MOL   N394  916   6.456   8.076   6.162 -0.0173 -0.2509  0.3780
    2MOL   C395  917   6.521   8.180   6.095 -0.1605  0.4235 -0.1243
    2MOL   C396  918   6.497   8.170   5.952  0.2327 -0.2771 -0.4120
    2MOL   C397  919   6.552   0.045   5.868  0.3954  0.0243  0.3231
    2MOL   C398  920   6.626   0.152   5.923  0.1316 -0.4076 -0.2063
    2MOL   C399  921   6.641   0.165   6.066  0.0537 -0.2833  0.4266
    2MOL   C400  922   6.593   0.062   6.148 -0.2374 -0.0748  0.0217
    2MOL   C401  923   6.428   8.043   5.942  0.1177  0.6110 -0.7897
    2MOL   C402  924   6.397   7.990   6.068  1.0634 -0.4308  0.0212
    2MOL   C403  925   6.321   7.872   6.083  0.3795 -0.0856  0.1491
    2MOL   C404  926   6.270   7.808   5.968  0.9797 -0.0397 -1.2075
    2MOL   C405  927   6.298   7.852   5.840  0.2437  0.1676 -0.5476
    2MOL   C406  928   6.385   7.962   5.827  0.3493 -0.5974 -0.0088
    2MOL   H407  929   6.609   7.946   6.315  0.2212 -1.1620  0.2888
    2MOL   H408  930   6.458   7.867   6.335  2.7482 -2.7605  1.4079
    2MOL   H409  931   6.490   8.157   6.344  1.3605 -0.6040  0.3383
    2MOL   H410  932   6.535   0.040   5.761 -0.4601 -1.0515  0.5035
    2MOL   H411  933   6.676   0.225   5.860  0.3114  1.1793  1.7085
    2MOL   H412  934   6.692   0.245   6.119 -0.5872  1.3491 -1.3607
    2MOL   H413  935   6.617   0.061   6.254  3.2694  3.7071 -0.6136
    2MOL   H414  936   6.297   7.841   6.183 -0.3196  0.9502  0.3156
    2MOL   H415  937   6.207   7.721   5.979  1.3884 -0.1234  0.7753
    2MOL   H416  938   6.265   7.801   5.751 -2.3408  2.5352 -1.0346
    2MOL   H417  939   6.415   8.010   5.735 -1.2893  1.3359  0.4278
    2MOL   C418  940   6.289   8.080   6.351  0.2134 -1.0398  0.4672
    2MOL   C419  941   6.200   8.190   6.279 -0.2260  0.2839 -0.0152
    2MOL   N420  942   6.064   8.164   6.296 -0.0044 -0.2064 -0.5296
    2MOL   C421  943   5.975   8.119   6.194 -0.2112  0.6464 -0.5261
    2MOL   C422  944   5.848   8.087   6.249 -1.1650  0.3786  0.4163
    2MOL   C423  945   5.752   8.033   6.167 -0.6830  0.5437 -0.7471
    2MOL   C424  946   5.772   8.006   6.027 -0.7316 -0.0401  0.2495
    2MOL   C425  947   5.896   8.039   5.972 -0.5746  0.3383  0.4507
    2MOL   C426  948   5.997   8.093   6.054  0.9944 -0.3128 -0.4303
    2MOL   C427  949   5.854   8.121   6.382  0.1593  0.3698 -0.1809
    2MOL   C428  950   5.985   8.163   6.413  1.0667  0.0322 -0.4213
    2MOL   C429  951   6.024   8.192   6.548 -0.2914 -0.1540  0.4925
    2MOL   C430  952   5.935   8.171   6.650 -0.0034 -0.1439  0.2327
    2MOL   C431  953   5.805   8.130   6.625 -0.6531 -0.7125 -0.1388
    2MOL   C432  954   5.769   8.113   6.494 -0.2917  0.1624  0.0242
    2MOL   H433  955   6.250   7.978   6.344 -1.3621 -0.3572 -0.8284
    2MOL   H434  956   6.283   8.093   6.459  2.0941  2.9240  0.1617
    2MOL   H435  957   6.226   8.185   6.173  0.1889  1.3650  0.0290
    2MOL   H436  958   5.658   8.008   6.214  1.0283  0.6239  2.8881
    2MOL   H437  959   5.686   7.967   5.974 -0.6328 -0.0578  0.1031
    2MOL   H438  960   5.916   8.016   5.868  0.9018 -1.3832  1.0887
    2MOL   H439  961   6.097   8.104   6.013  1.0727 -0.2170 -0.2170
    2MOL   H440  962   6.123   8.220   6.580  0.0626 -1.4213  0.5178
    2MOL   H441  963   5.967   8.196   6.750  0.2047 -0.8081  0.3347
    2MOL   H442  964   5.746   8.115   6.714 -2.5114 -3.9617 -1.8067
    2MOL   H443  965   5.666   8.086   6.477  0.4832 -1.0206 -3.0345
    2MOL   C444  966   6.245   0.103   6.319  0.1816 -0.2654 -0.5087
    2MOL   C445  967   6.177   0.226   6.253 -0.2266 -0.2915  0.8426
    2MOL   N446  968   6.049   0.258   6.307  0.5380 -0.4202  0.4256
    2MOL   C447  969   5.930   0.265   6.233 -0.3386 -0.3296 -0.0550
    2MOL   C448  970   5.825   0.318   6.312  0.9653 -0.1629 -0.5329
    2MOL   C449  971   5.713   0.365   6.246  0.8760 -0.2310  1.0010
    2MOL   C450  972   5.697   0.345   6.109  0.1119 -0.0785  0.0054
    2MOL   C451  973   5.796   0.288   6.034 -0.0381  0.7366 -0.5797
    2MOL   C452  974   5.909   0.242   6.100 -0.1988  0.3769 -0.6405
    2MOL   C453  975   5.877   0.318   6.449 -0.0381 -0.2502 -0.0400
    2MOL   C454  976   6.017   0.286   6.438 -0.2616 -0.1727 -0.3061
    2MOL   C455  977   6.093   0.288   6.558 -0.6364 -0.2053  0.5063
    2MOL   C456  978   6.038   0.322   6.682  0.6058 -0.3313  0.0460
    2MOL   C457  979   5.902   0.357   6.694  0.2503 -0.2294 -0.1769
    2MOL   C458  980   5.825   0.350   6.578 -0.0413 -0.6949 -0.1844
    2MOL   H459  981   6.249   0.109   6.427  1.3169  1.4672 -0.6095
    2MOL   H460  982   6.353   0.108   6.300  0.9423  0.1123  3.4354
    2MOL   H461  983   6.172   0.199   6.148  0.5713 -0.4414  0.8441
    2MOL   H462  984   5.640   0.422   6.301 -1.9359 -1.7791 -1.0233
    2MOL   H463  985   5.605   0.377   6.064  0.4511 -0.6694 -1.1239
    2MOL   H464  986   5.791   0.269   5.928  1.0680 -1.0332 -0.3401
    2MOL   H465  987   5.992   0.200   6.044  0.8796  0.8276  0.5916
    2MOL   H466  988   6.200   0.272   6.560 -0.6169 -0.0091  1.9898
    2MOL   H467  989   6.109   0.317   6.763  0.3494 -0.1043  0.2868
    2MOL   H468  990   5.852   0.383   6.786 -1.6579 -2.0213 -0.6731
    2MOL   H469  991   5.721   0.374   6.593 -0.4476 -2.4627 -0.1181
    2MOL   C470  992   6.271   0.345   6.256  0.2705 -0.0470 -0.0443
    2MOL   C471  993   6.231   0.466   6.171 -0.6856 -0.0610 -0.9948
    2MOL   N472  994   6.299   0.593   6.210 -0.0017  0.0879 -0.6446
    2MOL   C473  995   6.245   0.695   6.285  0.6873  0.2156  0.4485
    2MOL   C474  996   6.340   0.797   6.307  0.2584 -0.0121 -0.6010
    2MOL   C475  997   6.304   0.911   6.381  0.3089 -0.1612 -0.4161
    2MOL   C476  998   6.171   0.918   6.429  0.6114  0.2547 -0.8787
    2MOL   C477  999   6.086   0.807   6.427 -0.2227  0.5454 -0.1695
    2MOL   C478 1000   6.123   0.703   6.347  0.4071  0.6970 -0.6984
    2MOL   C479 1001   6.462   0.746   6.255 -0.2786  0.0732 -0.0942
    2MOL   C480 1002   6.436   0.614   6.200 -0.3391 -0.0776  0.1481
    2MOL   C481 1003   6.546   0.533   6.150  0.4085  0.5822 -0.1532
    2MOL   C482 1004   6.677   0.583   6.161 -0.0905 -0.4718 -0.6876
    2MOL   C483 1005   6.701   0.710   6.217  0.0410  0.3483  0.0889
    2MOL   C484 1006   6.599   0.791   6.256 -0.2556  0.4663  0.0827
    2MOL   H485 1007   6.267   0.381   6.359 -0.5981 -0.5794  0.1134
    2MOL   H486 1008   6.374   0.316   6.237  0.3860 -1.6313  2.6470
    2MOL   H487 1009   6.126   0.474   6.198 -0.2537  0.7710  0.4972
    2MOL   H488 1010   6.380   0.986   6.401 -0.4911  0.7100 -0.6259
    2MOL   H489 1011   6.137   1.000   6.490  1.1972 -1.4919  1.8997
    2MOL   H490 1012   5.989   0.819   6.474 -0.1370  1.8344 -0.3133
    2MOL   H491 1013   6.049   0.625   6.336  0.3613  0.3990  1.5098
    2MOL   H492 1014   6.527   0.436   6.106  0.5986  0.7081 -0.5090
    2MOL   H493 1015   6.761   0.520   6.135  1.2035 -0.4069  2.9782
    2MOL   H494 1016   6.798   0.755   6.232  0.5983 -0.8434  0.0526
    2MOL   H495 1017   6.617   0.892   6.292  1.7469  0.5301 -1.0317
    2MOL   C496 1018   6.227   0.436   6.022 -0.3494  0.1149  0.0297
    2MOL   C497 1019   6.225   0.562   5.929  0.0383 -0.2836  0.0916
    2MOL   N498 1020   6.224   0.529   5.789  0.7941  0.7198  0.5961
    2MOL   C499 1021   6.112   0.498   5.708  0.8348 -0.2355  0.3517
    2MOL   C500 1022   6.153   0.477   5.577  0.7652  0.4169  0.6116
    2MOL   C501 1023   6.060   0.443   5.480  0.2638 -0.3479  0.5021
    2MOL   C502 1024   5.927   0.441   5.506 -0.2993  0.4531 -0.2797
    2MOL   C503 1025   5.877   0.460   5.637 -0.1772 -0.3677 -0.0990
    2MOL   C504 1026   5.968   0.481   5.743 -0.2244  0.3254 -0.2614
    2MOL   C505 1027   6.296   0.507   5.572  0.0956 -0.1300  0.4878
    2MOL   C506 1028   6.337   0.542   5.703  0.0866  0.1866  0.2329
    2MOL   C507 1029   6.464   0.591   5.732 -0.0298 -0.2678  0.2596
    2MOL   C508 1030   6.558   0.595   5.625 -0.4405 -0.1050 -0.2409
    2MOL   C509 1031   6.522   0.569   5.489  0.7466  0.4160  0.3890
    2MOL   C510 1032   6.391   0.518   5.469  0.0562 -0.0429 -0.2396
    2MOL   H511 1033   6.318   0.379   6.001 -0.3211  0.7576 -1.7107
    2MOL   H512 1034   6.138   0.378   5.995  0.2646 -1.0214  0.3924
    2MOL   H513 1035   6.314   0.622   5.945 -0.3391 -0.0172  1.2694
    2MOL   H514 1036   6.096   0.435   5.379  0.9624 -1.8320  0.8623
    2MOL   H515 1037   5.851   0.439   5.429  0.4771 -0.2077 -1.0460
    2MOL   H516 1038   5.772   0.451   5.663 -0.1976  1.3146  0.4587
    2MOL   H517 1039   5.922   0.492   5.840  1.4782 -0.5037  0.6494
    2MOL   H518 1040   6.500   0.623   5.829  0.9403  2.1195 -0.8502
    2MOL   H519 1041   6.660   0.627   5.643 -0.8870  2.4048 -1.9175
    2MOL   H520 1042   6.594   0.574   5.408  2.0386  1.6506  1.5865
    2MOL   H521 1043   6.360   0.497   5.368 -2.8195 -1.5824  0.8925
    2MOL   H522 1044   6.141   0.630   5.944 -0.2495 -0.7068  0.4111
    3MOL     C1 1045   1.283   2.005   2.147  0.3845  0.2325 -0.3473
    3MOL     C2 1046   1.288   2.074   2.284  0.3184  0.2273 -0.2478
    3MOL     N3 1047   1.158   2.113   2.344  0.2154 -0.4282  0.4820
    3MOL     C4 1048   1.137   2.239   2.400 -0.3791  0.2012 -0.5518
    3MOL     C5 1049   1.010   2.234   2.469 -0.0429 -0.6421  0.2315
    3MOL     C6 1050   0.967   2.353   2.540 -0.0907  0.6298  0.7056
    3MOL     C7 1051   1.043   2.467   2.541 -0.1661 -0.0366 -0.5070
    3MOL     C8 1052   1.169   2.466   2.477  0.0252 -0.3126 -0.0692
    3MOL     C9 1053   1.214   2.356   2.407 -0.1908  0.4445  0.0191
    3MOL    C10 1054   0.953   2.106   2.443  0.4704 -0.4936  0.2347
    3MOL    C11 1055   1.045   2.035   2.367 -0.8863 -0.3165 -0.2035
    3MOL    C12 1056   1.027   1.899   2.341  0.0603 -0.1937 -0.4703
    3MOL    C13 1057   0.910   1.839   2.381 -0.8692 -0.4933 -0.5992
    3MOL    C14 1058   0.817   1.906   2.454 -0.6050  0.1453  0.4987
    3MOL    C15 1059   0.836   2.041   2.489  0.4487 -0.5019  0.0347
    3MOL    H16 1060   1.199   2.035   2.084  0.7822  3.8410  0.7566
    3MOL    H17 1061   1.280   1.896   2.155  1.0503  0.1715 -0.8492
    3MOL    H18 1062   1.327   2.173   2.264 -0.3980  0.3380 -1.1057
    3MOL    H19 1063   0.883   2.345   2.609 -0.4365  0.7788  0.3065
    3MOL    H20 1064   1.005   2.557   2.585 -1.7744 -0.2515 -1.4207
    3MOL    H21 1065   1.231   2.555   2.481  1.8740 -1.5865  0.1214
    3MOL    H22 1066   1.309   2.364   2.356 -0.9012  2.8722 -1.0069
    3MOL    H23 1067   1.097   1.855   2.271  0.0288 -0.3726 -0.3884
    3MOL    H24 1068   0.895   1.735   2.354  1.4110 -1.1140  0.4462
    3MOL    H25 1069   0.724   1.860   2.482 -1.1851  1.3462  0.5649
    3MOL    H26 1070   0.758   2.102   2.532  1.3320  1.0556 -0.5568
    3MOL    H27 1071   1.374   2.034   2.095  0.3213  0.5928 -0.2552
    3MOL    C28 1072   1.365   1.995   2.393 -0.2808  0.8494  0.1014
    3MOL    C29 1073   1.516   1.968   2.370  0.9324  0.1008  0.3763
    3MOL    N30 1074   1.588   2.090   2.323  0.2429  0.6114 -0.0588
    3MOL    C31 1075   1.656   2.103   2.205 -0.0295  0.1102 -1.0159
    3MOL    C32 1076   1.710   2.233   2.191  0.0875  0.5322 -0.2772
    3MOL    C33 1077   1.776   2.266   2.066  0.3259  0.2033 -0.7695
    3MOL    C34 1078   1.796   2.166   1.969  0.3211  1.8280  0.2453
    3MOL    C35 1079   1.763   2.031   1.998 -0.4028  0.0759 -0.1013
    3MOL    C36 1080   1.690   2.004   2.110  0.4813 -0.1760 -0.2373
    3MOL    C37 1081   1.661   2.304   2.298 -0.0660 -0.5885  0.2895
    3MOL    C38 1082   1.585   2.215   2.380 -0.0419  0.5894 -0.6752
    3MOL    C39 1083   1.527   2.252   2.499 -0.1723 -0.0913  0.2202
    3MOL    C40 1084   1.541   2.389   2.543  0.0696 -0.0649 -0.3686
    3MOL    C41 1085   1.600   2.483   2.460 -0.8159  0.1084 -0.9792
    3MOL    C42 1086   1.664   2.439   2.337 -0.2784 -0.3346 -0.6541
    3MOL    H43 1087   1.341   2.025   2.495  1.2568  0.7166  0.5167
    3MOL    H44 1088   1.327   1.893   2.395  1.6760  0.0910 -0.5773
    3MOL    H45 1089   1.523   1.890   2.294  1.0837  0.5588 -0.0834
    3MOL    H46 1090   1.814   2.367   2.057 -1.0647  0.8694  0.5718
    3MOL    H47 1091   1.848   2.195   1.878  2.3058  0.5447  0.9355
    3MOL    H48 1092   1.775   1.950   1.928 -0.4593  1.6714 -2.0143
    3MOL    H49 1093   1.652   1.904   2.119 -0.8966  0.3682  0.1212
    3MOL    H50 1094   1.460   2.189   2.556 -0.0442  0.1412  0.6262
    3MOL    H51 1095   1.495   2.430   2.631 -1.3508 -1.3142 -0.5043
    3MOL    H52 1096   1.596   2.589   2.478  2.2152 -0.2821  2.5943
    3MOL    H53 1097   1.727   2.501   2.274  0.4980 -0.7292 -0.2702
    3MOL    C54 1098   1.578   1.905   2.502 -0.0343 -0.5672 -0.5494
    3MOL    C55 1099   1.730   1.863   2.502  0.7633 -0.0362 -0.2257
    3MOL    N56 1100   1.823   1.974   2.487  0.2462  0.6368 -0.1214
    3MOL    C57 1101   1.927   1.981   2.391  0.0250  0.2646  0.0548
    3MOL    C58 1102   1.990   2.112   2.398  0.0235 -0.5239 -0.0998
    3MOL    C59 1103   2.089   2.142   2.305 -0.1768  0.5867  0.0930
    3MOL    C60 1104   2.138   2.044   2.220  0.7825 -0.6413 -0.8376
    3MOL    C61 1105   2.092   1.913   2.220  0.7961 -0.2407 -0.0416
    3MOL    C62 1106   1.982   1.878   2.304 -0.5854  0.3189  0.4175
    3MOL    C63 1107   1.914   2.184   2.504 -0.7239  0.3227 -0.4578
    3MOL    C64 1108   1.832   2.088   2.570 -0.1154  0.2290  0.4547
    3MOL    C65 1109   1.769   2.121   2.690 -0.0033 -0.2883 -0.4662
    3MOL    C66 1110   1.770   2.255   2.741 -0.8527 -0.7117  0.0646
    3MOL    C67 1111   1.845   2.351   2.665  0.0917 -0.1327  0.9231
    3MOL    C68 1112   1.911   2.317   2.551  0.0269  0.0909  1.0358
    3MOL    H69 1113   1.573   1.991   2.569 -0.8214  0.2165 -1.6059
    3MOL    H70 1114   1.521   1.818   2.535 -2.1909  1.7462  1.9991
    3MOL    H71 1115   1.745   1.806   2.410  1.2992  0.1197 -0.2412
    3MOL    H72 1116   2.131   2.241   2.303  0.7829  0.1608 -1.4260
    3MOL    H73 1117   2.226   2.068   2.162  0.0653 -1.5357 -2.3150
    3MOL    H74 1118   2.141   1.837   2.161 -0.4994 -1.2481  0.1470
    3MOL    H75 1119   1.935   1.782   2.291  0.1262 -0.1451  1.2000
    3MOL    H76 1120   1.725   2.048   2.757  0.2321  0.6083  0.6830
    3MOL    H77 1121   1.717   2.284   2.831 -1.6434  0.7168 -0.8271
    3MOL    H78 1122   1.836   2.455   2.692  0.9022 -0.3751  2.1660
    3MOL    H79 1123   1.970   2.387   2.493  0.0089 -0.0944  0.7914
    3MOL    C80 1124   1.763   1.769   2.619 -1.0288 -0.2844 -0.0115
    3MOL    C81 1125   1.688   1.630   2.634  0.2118  0.0110  0.4572
    3MOL    N82 1126   1.751   1.515   2.567  0.4802 -0.2895  0.5609
    3MOL    C83 1127   1.685   1.409   2.494  0.5179  0.1159  0.2429
    3MOL    C84 1128   1.783   1.315   2.443  0.5177 -0.2297 -0.3092
    3MOL    C85 1129   1.727   1.210   2.366 -0.6968 -0.2816 -0.3716
    3MOL    C86 1130   1.587   1.194   2.328 -0.0274 -0.0540  0.0878
    3MOL    C87 1131   1.496   1.288   2.372  0.6265  0.5199  0.2355
    3MOL    C88 1132   1.546   1.388   2.460 -0.1868  0.1955  0.4657
    3MOL    C89 1133   1.910   1.363   2.495 -0.7575 -0.3387 -0.0712
    3MOL    C90 1134   1.887   1.478   2.575 -0.5374 -0.2965  0.8222
    3MOL    C91 1135   2.002   1.534   2.655  0.8323 -0.9177  0.2739
    3MOL    C92 1136   2.131   1.488   2.632 -0.4426 -0.8557 -0.4422
    3MOL    C93 1137   2.151   1.377   2.547 -0.5100  0.3758 -0.3795
    3MOL    C94 1138   2.040   1.307   2.491 -0.3207 -0.1404 -0.6111
    3MOL    H95 1139   1.871   1.752   2.619 -0.6996  1.6969  0.6694
    3MOL    H96 1140   1.747   1.821   2.714  1.3727  0.8024 -0.1641
    3MOL    H97 1141   1.585   1.640   2.599  0.6922 -3.2316 -2.2067
    3MOL    H98 1142   1.801   1.141   2.327 -1.9412 -1.7992 -0.1279
    3MOL    H99 1143   1.555   1.120   2.256 -2.0837  1.9702 -1.1450
    3MOL   H100 1144   1.394   1.295   2.338  1.0872  2.2335 -0.8098
    3MOL   H101 1145   1.484   1.473   2.481 -0.1811 -0.2983  2.5617
    3MOL   H102 1146   1.977   1.616   2.720 -1.7795 -1.0237 -0.5488
    3MOL   H103 1147   2.214   1.531   2.686 -1.3198  1.8702 -1.1568
    3MOL   H104 1148   2.255   1.348   2.532 -1.0780 -2.4581  0.7185
    3MOL   H105 1149   2.051   1.212   2.441  0.4231  0.7645 -2.1820
    3MOL   C106 1150   1.685   1.590   2.782  0.1058 -0.2073 -0.0142
    3MOL   C107 1151   1.588   1.671   2.872 -0.5441  0.0357 -0.6689
    3MOL   N108 1152   1.463   1.706   2.818  0.0936  0.5140 -0.3892
    3MOL   C109 1153   1.411   1.840   2.817 -0.5157  0.0698 -0.6945
    3MOL   C110 1154   1.288   1.837   2.739 -0.5719 -0.4586  0.7054
    3MOL   C111 1155   1.223   1.961   2.721  0.6671  0.1213  0.6163
    3MOL   C112 1156   1.275   2.083   2.773 -0.1200 -0.6476 -0.6687
    3MOL   C113 1157   1.393   2.081   2.852  0.7646 -0.2520 -0.5970
    3MOL   C114 1158   1.461   1.963   2.866 -0.5030  0.3505  0.0062
    3MOL   C115 1159   1.260   1.703   2.706  0.1822  0.4099 -0.6595
    3MOL   C116 1160   1.362   1.622   2.760  0.0172  0.0998  0.3464
    3MOL   C117 1161   1.363   1.484   2.743  0.6972 -0.3729 -0.2760
    3MOL   C118 1162   1.250   1.420   2.694  0.9840  0.7621 -0.3350
    3MOL   C119 1163   1.146   1.496   2.638 -0.5807  0.6052 -0.6141
    3MOL   C120 1164   1.158   1.637   2.640 -0.0386  0.2090 -0.0649
    3MOL   H121 1165   1.640   1.491   2.786  1.1108 -0.6298  0.9256
    3MOL   H122 1166   1.784   1.566   2.820 -1.3689 -0.6326  3.8332
    3MOL   H123 1167   1.638   1.768   2.884  0.4349 -0.4739 -0.6250
    3MOL   H124 1168   1.138   1.950   2.655  0.6705 -0.6178  0.7237
    3MOL   H125 1169   1.227   2.178   2.759  0.1145 -0.5451 -0.7740
    3MOL   H126 1170   1.430   2.176   2.887  1.4351 -0.0380 -1.8729
    3MOL   H127 1171   1.559   1.972   2.911 -1.5408  0.5301  2.3170
    3MOL   H128 1172   1.450   1.427   2.773  0.9372  1.4483  2.6998
    3MOL   H129 1173   1.245   1.313   2.687  2.3057  0.8481 -3.1236
    3MOL   H130 1174   1.064   1.449   2.586 -0.7153  0.6060 -0.4002
    3MOL   H131 1175   1.081   1.700   2.597 -1.9900 -3.1576 -1.6731
    3MOL   C132 1176   1.574   1.591   3.011 -0.1722  0.4550 -0.2101
    3MOL   C133 1177   1.699   1.592   3.099  0.4474  0.2688 -0.0641
    3MOL   N134 1178   1.764   1.723   3.106  0.1505 -0.6121  0.0350
    3MOL   C135 1179   1.902   1.744   3.090 -0.3229 -0.0065  0.7911
    3MOL   C136 1180   1.934   1.885   3.086  0.7655 -0.5820 -0.3052
    3MOL   C137 1181   2.070   1.927   3.059 -0.3223 -0.4651 -0.6881
    3MOL   C138 1182   2.170   1.829   3.048 -0.1766  0.1129  0.6471
    3MOL   C139 1183   2.132   1.692   3.047  0.0542  0.2654  0.6187
    3MOL   C140 1184   2.000   1.642   3.069 -1.3087  0.1980 -0.1349
    3MOL   C141 1185   1.805   1.951   3.108  0.1774 -0.1496 -0.3664
    3MOL   C142 1186   1.706   1.853   3.138  0.2117 -0.5933 -0.9811
    3MOL   C143 1187   1.578   1.898   3.189 -0.7772  0.5422  0.6042
    3MOL   C144 1188   1.560   2.034   3.215  0.4298  0.4975 -0.0618
    3MOL   C145 1189   1.655   2.133   3.188  0.0533 -0.5787  0.7663
    3MOL   C146 1190   1.775   2.093   3.124 -0.6575 -0.3865  0.2251
    3MOL   H147 1191   1.495   1.641   3.066  0.5481  0.1834  1.0847
    3MOL   H148 1192   1.523   1.495   3.001 -1.6495  0.8603  3.0326
    3MOL   H149 1193   1.767   1.522   3.049  1.3901  2.1279 -1.4334
    3MOL   H150 1194   2.099   2.031   3.052  0.5855 -0.6259  0.4826
    3MOL   H151 1195   2.273   1.860   3.035 -0.4699  0.4295 -1.0137
    3MOL   H152 1196   2.214   1.624   3.032  1.9826  2.8676 -1.1478
    3MOL   H153 1197   1.991   1.535   3.076  3.0052 -0.1355  1.5661
    3MOL   H154 1198   1.495   1.838   3.223 -1.0964 -0.4119 -1.7178
    3MOL   H155 1199   1.463   2.063   3.256  0.5161 -0.5775  0.9235
    3MOL   H156 1200   1.622   2.234   3.204  2.3703  0.2019  0.7708
    3MOL   H157 1201   1.854   2.165   3.106  0.7612 -1.4758  1.8745
    3MOL   C158 1202   1.681   1.528   3.239 -0.2157 -0.9806  0.0185
    3MOL   C159 1203   1.642   1.375   3.229 -0.7419  0.0959 -0.0853
    3MOL   N160 1204   1.750   1.290   3.174  0.0563 -0.2916  0.1116
    3MOL   C161 1205   1.744   1.232   3.051  0.2615  0.0426  0.2746
    3MOL   C162 1206   1.862   1.159   3.032 -0.0177  0.3912  0.7008
    3MOL   C163 1207   1.888   1.104   2.906  0.4413  0.4960 -0.2319
    3MOL   C164 1208   1.809   1.132   2.800  0.9702 -0.1205  0.1185
    3MOL   C165 1209   1.684   1.196   2.813 -0.6446  0.0177 -0.2667
    3MOL   C166 1210   1.652   1.239   2.945 -0.1626  0.2747 -0.2148
    3MOL   C167 1211   1.939   1.159   3.153 -0.1929 -0.1018 -0.8930
    3MOL   C168 1212   1.868   1.252   3.242  0.9247  0.6756  0.6074
    3MOL   C169 1213   1.911   1.272   3.372  0.1240  0.5906  0.3278
    3MOL   C170 1214   2.028   1.214   3.419  0.3135 -0.4845  0.0738
    3MOL   C171 1215   2.098   1.121   3.335 -0.2205 -0.1633  0.3585
    3MOL   C172 1216   2.052   1.095   3.202 -0.6609  0.1313 -0.0193
    3MOL   H173 1217   1.777   1.519   3.291  0.7253  0.5815 -1.3793
    3MOL   H174 1218   1.611   1.581   3.303  0.4783 -1.8697  1.5401
    3MOL   H175 1219   1.556   1.373   3.162  0.0745  2.1859 -1.2470
    3MOL   H176 1220   1.982   1.050   2.900  0.5159  0.7874 -1.9667
    3MOL   H177 1221   1.847   1.102   2.704  0.8875  3.7760 -1.2382
    3MOL   H178 1222   1.627   1.221   2.725  0.7784  2.9828 -0.3937
    3MOL   H179 1223   1.559   1.293   2.956  0.4712  1.0404  1.6047
    3MOL   H180 1224   1.866   1.353   3.428  1.1977  1.7282 -0.4247
    3MOL   H181 1225   2.060   1.247   3.517 -4.6235  1.0181  1.3239
    3MOL   H182 1226   2.186   1.077   3.380 -1.4233 -1.7699  1.1580
    3MOL   H183 1227   2.102   1.033   3.130  0.6724  0.4898  0.5832
    3MOL   C184 1228   1.581   1.314   3.354  0.3953  0.2185  0.1372
    3MOL   C185 1229   1.444   1.370   3.394 -1.1341 -0.2603 -0.0596
    3MOL   N186 1230   1.352   1.397   3.284  0.0597 -0.7326  0.9347
    3MOL   C187 1231   1.293   1.526   3.260 -0.2810  0.6697  0.3637
    3MOL   C188 1232   1.229   1.523   3.135 -0.2643 -0.4676 -0.0324
    3MOL   C189 1233   1.160   1.641   3.094  1.0979  0.1891 -0.2534
    3MOL   C190 1234   1.167   1.752   3.176  1.0329  0.3611  0.3554
    3MOL   C191 1235   1.227   1.755   3.300  0.3196  0.2326 -0.1323
    3MOL   C192 1236   1.288   1.636   3.346  0.1759 -0.0789  0.5764
    3MOL   C193 1237   1.232   1.391   3.091  0.3611 -1.0438  1.2816
    3MOL   C194 1238   1.302   1.311   3.179 -0.8435 -0.2462 -0.4226
    3MOL   C195 1239   1.318   1.174   3.162 -0.0644  0.3438 -0.4685
    3MOL   C196 1240   1.266   1.116   3.049 -0.3538  0.0634  0.0090
    3MOL   C197 1241   1.184   1.189   2.961 -1.0181 -0.1501 -0.4918
    3MOL   C198 1242   1.162   1.325   2.986  0.0995 -0.4353 -0.7971
    3MOL   H199 1243   1.559   1.208   3.346 -3.7168  1.0643 -1.0867
    3MOL   H200 1244   1.650   1.315   3.438  1.0697 -0.4199 -0.4106
    3MOL   H201 1245   1.476   1.468   3.430  0.3631 -1.0166  0.6944
    3MOL   H202 1246   1.101   1.643   3.004  0.8482  2.8526 -0.0743
    3MOL   H203 1247   1.107   1.836   3.143  0.5672 -0.0077  0.2552
    3MOL   H204 1248   1.241   1.845   3.358 -1.3101  0.3326  0.1205
    3MOL   H205 1249   1.344   1.631   3.439 -0.0584 -0.0886  0.7193
    3MOL   H206 1250   1.374   1.125   3.239 -0.7032 -0.3940 -0.4714
    3MOL   H207 1251   1.287   1.011   3.036  1.9668  0.5577 -0.4494
    3MOL   H208 1252   1.134   1.125   2.890  1.9158 -0.2402 -2.5828
    3MOL   H209 1253   1.089   1.384   2.932 -0.5745 -0.9542 -0.4644
    3MOL   C210 1254   1.377   1.301   3.508  0.1482  0.2990  0.0372
    3MOL   C211 1255   1.454   1.310   3.641 -0.6332  0.7022  0.1724
    3MOL   N212 1256   1.482   1.452   3.684  0.1434  0.5337  0.4119
    3MOL   C213 1257   1.607   1.508   3.690 -0.1538  0.6489 -0.3654
    3MOL   C214 1258   1.592   1.650   3.714  0.0494 -1.0164  0.0014
    3MOL   C215 1259   1.708   1.730   3.711  0.0772  0.3172 -0.4069
    3MOL   C216 1260   1.836   1.676   3.682 -0.9125  0.3533  0.2060
    3MOL   C217 1261   1.846   1.537   3.670  0.4237  0.0398 -0.0620
    3MOL   C218 1262   1.735   1.454   3.675  0.2695 -0.0973 -0.0165
    3MOL   C219 1263   1.449   1.678   3.725 -0.3637  0.4509 -0.5138
    3MOL   C220 1264   1.389   1.550   3.712 -0.1569  0.2126  0.8286
    3MOL   C221 1265   1.252   1.538   3.719 -0.4835 -0.2594  0.2748
    3MOL   C222 1266   1.168   1.646   3.736 -0.0525  0.1076  0.0299
    3MOL   C223 1267   1.227   1.775   3.759 -0.3589  0.0609  0.3233
    3MOL   C224 1268   1.365   1.788   3.751  0.1035  0.5128 -0.4630
    3MOL   H225 1269   1.274   1.331   3.530  0.3603 -0.0159  1.5400
    3MOL   H226 1270   1.365   1.198   3.474 -2.4204  0.4497  0.3659
    3MOL   H227 1271   1.549   1.264   3.611 -2.2144 -0.9513 -2.4423
    3MOL   H228 1272   1.706   1.836   3.726 -0.7880  0.1896  0.4306
    3MOL   H229 1273   1.924   1.738   3.683  0.6065 -1.7461  0.6383
    3MOL   H230 1274   1.946   1.496   3.669  0.1474 -0.6354 -1.9537
    3MOL   H231 1275   1.765   1.351   3.676  0.8125  0.0663  0.7176
    3MOL   H232 1276   1.212   1.441   3.696 -1.6826  0.1226  0.7314
    3MOL   H233 1277   1.061   1.631   3.728  0.3778 -4.1148  1.4017
    3MOL   H234 1278   1.164   1.860   3.776 -0.6817  0.3357 -1.9963
    3MOL   H235 1279   1.413   1.881   3.778  0.0712 -0.2943  2.6070
    3MOL   C236 1280   1.398   1.235   3.760  0.6902  0.1685 -0.0056
    3MOL   C237 1281   1.405   1.085   3.747  0.2189  0.8415 -0.3504
    3MOL   N238 1282   1.540   1.041   3.757 -0.5726  0.8327  1.1185
    3MOL   C239 1283   1.626   1.003   3.645 -0.2755  0.6284  0.5276
    3MOL   C240 1284   1.754   0.984   3.696 -0.3291  0.1215 -0.7996
    3MOL   C241 1285   1.854   0.956   3.606  0.0626 -0.3064 -0.0057
    3MOL   C242 1286   1.826   0.950   3.470 -0.0313 -0.2289 -0.5506
    3MOL   C243 1287   1.695   0.965   3.420  0.9499  0.1448 -0.0528
    3MOL   C244 1288   1.593   0.984   3.507  0.3977  0.0793  0.3175
    3MOL   C245 1289   1.752   1.008   3.840  0.1174 -0.0439 -0.1072
    3MOL   C246 1290   1.618   1.044   3.871  0.0858 -0.4647 -0.0303
    3MOL   C247 1291   1.588   1.067   4.009 -0.3778  0.2269  0.2168
    3MOL   C248 1292   1.687   1.061   4.111 -0.2522  0.0898 -0.7149
    3MOL   C249 1293   1.817   1.030   4.074  0.1350  1.1463  0.0772
    3MOL   C250 1294   1.848   1.013   3.937 -0.0211 -0.4291 -0.2531
    3MOL   H251 1295   1.438   1.280   3.850 -1.0043  3.0465 -0.6151
    3MOL   H252 1296   1.293   1.264   3.766  0.6583  0.2268 -0.7608
    3MOL   H253 1297   1.383   1.062   3.643 -1.1280 -0.1541  0.1405
    3MOL   H254 1298   1.950   0.946   3.655 -0.6203 -0.9452  1.2406
    3MOL   H255 1299   1.911   0.924   3.408 -0.9346 -4.4690 -0.1736
    3MOL   H256 1300   1.672   0.954   3.315 -1.9550  0.0149  0.5690
    3MOL   H257 1301   1.500   1.005   3.455  1.5198  2.3271 -0.8455
    3MOL   H258 1302   1.489   1.102   4.035 -1.0017 -0.5578 -1.0751
    3MOL   H259 1303   1.659   1.087   4.212  1.6502  3.5190 -0.9757
    3MOL   H260 1304   1.897   1.035   4.147 -0.3324  1.2994  0.5755
    3MOL   H261 1305   1.951   0.989   3.915  0.0770  3.0045 -4.0651
    3MOL   C262 1306   1.299   1.011   3.842  0.2891  0.1555  0.3226
    3MOL   C263 1307   1.154   1.029   3.813  0.2905  0.5830 -0.4705
    3MOL   N264 1308   1.125   1.023   3.668  0.6739  0.4884  0.0106
    3MOL   C265 1309   1.063   1.123   3.588  0.4123  0.0298  0.0089
    3MOL   C266 1310   1.092   1.095   3.455 -0.2115 -0.6784  0.2240
    3MOL   C267 1311   1.050   1.186   3.360  0.3572  0.1488  0.7663
    3MOL   C268 1312   0.987   1.305   3.392 -0.4894 -0.1724  0.2228
    3MOL   C269 1313   0.964   1.338   3.528  0.4378 -0.6495  0.7544
    3MOL   C270 1314   0.995   1.240   3.627 -0.3077 -0.6407  0.1582
    3MOL   C271 1315   1.159   0.969   3.453  0.0898 -0.1425  0.0370
    3MOL   C272 1316   1.167   0.923   3.582 -0.4483 -0.5194  0.3656
    3MOL   C273 1317   1.229   0.796   3.611 -0.0618  0.0261 -0.1556
    3MOL   C274 1318   1.278   0.721   3.502  0.2979 -0.2112 -0.5129
    3MOL   C275 1319   1.269   0.770   3.370  0.6076 -0.3489  0.2862
    3MOL   C276 1320   1.210   0.892   3.352 -0.5961 -0.3070  0.4481
    3MOL   H277 1321   1.339   0.910   3.851 -1.6454 -0.5744  0.8307
    3MOL   H278 1322   1.314   1.071   3.932  1.1675  0.5127 -0.0519
    3MOL   H279 1323   1.130   1.131   3.845  0.1071 -0.3650  2.6418
    3MOL   H280 1324   1.069   1.158   3.257  1.6301 -0.8321  1.2520
    3MOL   H281 1325   0.966   1.385   3.323  1.5823 -0.9381 -1.3389
    3MOL   H282 1326   0.900   1.422   3.552  1.3491  0.2979 -0.0758
    3MOL   H283 1327   0.977   1.256   3.732  1.6685 -0.2152  0.4473
    3MOL   H284 1328   1.238   0.752   3.709 -3.4247 -0.8838 -0.2025
    3MOL   H285 1329   1.323   0.623   3.511 -0.0614 -0.4962 -1.7578
    3MOL   H286 1330   1.305   0.708   3.289  1.7120 -0.0966  0.5707
    3MOL   H287 1331   1.200   0.932   3.252  0.3693  0.0333  0.4765
    3MOL   C288 1332   1.049   0.937   3.884  0.4066  0.3034  0.0899
    3MOL   C289 1333   1.038   0.950   4.040 -0.1018  0.2417 -0.0965
    3MOL   N290 1334   1.053   1.091   4.082  0.2474 -0.0261 -0.2428
    3MOL   C291 1335   1.163   1.135   4.158 -1.2217  0.1788  0.7830
    3MOL   C292 1336   1.180   1.279   4.145 -0.4268  0.5481 -0.1388
    3MOL   C293 1337   1.294   1.342   4.201 -0.2456 -0.2601 -0.5682
    3MOL   C294 1338   1.398   1.267   4.262 -0.8467  0.0255 -0.0018
    3MOL   C295 1339   1.376   1.131   4.285 -0.4028  0.2461  0.6615
    3MOL   C296 1340   1.258   1.066   4.233  0.0628 -0.0203 -0.1394
    3MOL   C297 1341   1.059   1.319   4.074 -0.4820  0.1036 -0.3480
    3MOL   C298 1342   0.980   1.206   4.048 -0.3842 -0.1472  0.4665
    3MOL   C299 1343   0.867   1.218   3.963 -0.1509 -0.0071 -0.4440
    3MOL   C300 1344   0.811   1.340   3.928  0.7615 -0.1163 -0.2189
    3MOL   C301 1345   0.884   1.455   3.970 -0.3350  0.0901 -0.3078
    3MOL   C302 1346   1.004   1.445   4.042  0.0919 -1.0833 -0.1738
    3MOL   H303 1347   0.948   0.958   3.848  0.6503  0.9014 -0.2514
    3MOL   H304 1348   1.079   0.837   3.854  1.4059  0.4872  0.4360
    3MOL   H305 1349   1.123   0.900   4.086 -0.9948 -1.9550 -0.7978
    3MOL   H306 1350   1.317   1.447   4.200 -0.5139 -0.1658  1.4472
    3MOL   H307 1351   1.474   1.319   4.318 -1.1318 -0.6807  1.0394
    3MOL   H308 1352   1.450   1.086   4.350 -1.0913 -2.3197 -0.2385
    3MOL   H309 1353   1.243   0.961   4.253  0.0862 -0.1710 -0.8899
    3MOL   H310 1354   0.816   1.133   3.922  1.7156 -1.4064  0.0577
    3MOL   H311 1355   0.711   1.356   3.890  1.2476  1.1285 -0.9715
    3MOL   H312 1356   0.849   1.555   3.947 -3.1971 -0.0324  3.0409
    3MOL   H313 1357   1.052   1.537   4.071  0.4560 -1.6571  1.0783
    3MOL   C314 1358   0.908   0.891   4.096 -0.0716  0.5432 -0.3416
    3MOL   C315 1359   0.881   0.742   4.079 -0.7196  0.0768 -0.1577
    3MOL   N316 1360   1.002   0.659   4.103 -0.0685 -0.7154  0.2147
    3MOL   C317 1361   1.066   0.576   4.013  0.7899 -0.3576  0.0918
    3MOL   C318 1362   1.172   0.511   4.085  0.2936 -0.2827  0.7901
    3MOL   C319 1363   1.253   0.416   4.016  0.0328  0.6300  0.1111
    3MOL   C320 1364   1.224   0.380   3.882  0.1391  0.4589 -0.0736
    3MOL   C321 1365   1.114   0.438   3.815  0.6509 -0.6863 -0.2362
    3MOL   C322 1366   1.039   0.537   3.879  0.7627 -0.2025 -0.0856
    3MOL   C323 1367   1.183   0.564   4.213  0.0559  0.5802 -0.0267
    3MOL   C324 1368   1.079   0.653   4.224 -0.2627 -0.1688 -0.6696
    3MOL   C325 1369   1.064   0.728   4.344 -0.0014 -0.8640 -0.6099
    3MOL   C326 1370   1.151   0.706   4.452 -0.4804 -0.1900 -0.2899
    3MOL   C327 1371   1.258   0.612   4.444  0.0839  0.9714 -0.6721
    3MOL   C328 1372   1.267   0.540   4.322  0.3971  0.7508 -0.1714
    3MOL   H329 1373   0.903   0.925   4.199  1.4785  2.7783 -0.9579
    3MOL   H330 1374   0.820   0.940   4.053 -0.1887  1.6901  1.1483
    3MOL   H331 1375   0.863   0.731   3.972 -2.1605 -1.3728  0.2214
    3MOL   H332 1376   1.336   0.368   4.066 -0.7904  0.5592  1.4326
    3MOL   H333 1377   1.269   0.297   3.829 -2.5702 -0.9086 -0.3230
    3MOL   H334 1378   1.100   0.420   3.709  1.9795  1.0213 -0.7052
    3MOL   H335 1379   0.965   0.586   3.817  0.4548 -2.2191 -1.3956
    3MOL   H336 1380   0.979   0.794   4.356  2.3665  1.5461  4.0802
    3MOL   H337 1381   1.124   0.743   4.550 -0.8497 -1.1072 -0.0355
    3MOL   H338 1382   1.330   0.593   4.522 -1.3313 -1.5513  0.0710
    3MOL   H339 1383   1.339   0.461   4.307  0.0253  0.2493  0.6184
    3MOL   C340 1384   0.762   0.695   4.164 -0.8060 -0.3062 -1.0181
    3MOL   C341 1385   0.618   0.731   4.115  0.0706 -0.1974  0.1361
    3MOL   N342 1386   0.610   0.769   3.969 -0.0963 -0.5321  0.2024
    3MOL   C343 1387   0.572   0.891   3.909 -0.6929  0.7796  0.0115
    3MOL   C344 1388   0.575   0.880   3.766 -0.6898  0.1470 -0.9702
    3MOL   C345 1389   0.542   0.986   3.691  0.7356 -0.5039  0.1249
    3MOL   C346 1390   0.497   1.109   3.749 -0.0523  0.5040 -0.0138
    3MOL   C347 1391   0.495   1.120   3.889  0.3084 -0.5334  0.2762
    3MOL   C348 1392   0.525   1.007   3.968  0.1905 -0.3785  0.2318
    3MOL   C349 1393   0.615   0.747   3.737 -0.1337  0.2768  0.1429
    3MOL   C350 1394   0.620   0.678   3.865 -0.0283  0.7463  0.3194
    3MOL   C351 1395   0.656   0.546   3.870 -0.1809  0.3743 -0.9656
    3MOL   C352 1396   0.684   0.475   3.758  0.3060 -0.5650  0.5371
    3MOL   C353 1397   0.687   0.535   3.632 -0.0257  0.0017  0.2329
    3MOL   C354 1398   0.644   0.672   3.622  0.5101  0.3788  0.2488
    3MOL   H355 1399   0.768   0.588   4.146  0.4127 -0.2798 -0.8314
    3MOL   H356 1400   0.781   0.715   4.270 -0.2344 -3.5934 -0.4532
    3MOL   H357 1401   0.594   0.829   4.157 -2.3357 -0.5264 -0.4354
    3MOL   H358 1402   0.547   0.972   3.584  1.5979  0.4615  0.0313
    3MOL   H359 1403   0.468   1.189   3.681 -1.0313 -0.0650 -0.2713
    3MOL   H360 1404   0.452   1.211   3.926 -0.2909 -0.2366 -1.1268
    3MOL   H361 1405   0.522   1.028   4.074 -1.6425  1.0709 -0.0690
    3MOL   H362 1406   0.672   0.498   3.966  3.2919 -0.2298 -1.8037
    3MOL   H363 1407   0.707   0.370   3.769  0.5585 -0.7866 -1.8331
    3MOL   H364 1408   0.714   0.483   3.541 -2.3208 -1.0876  0.1513
    3MOL   H365 1409   0.626   0.717   3.526  0.0590 -2.3953 -1.0028
    3MOL   C366 1410   0.505   0.634   4.151 -0.3074 -0.8802 -0.4288
    3MOL   C367 1411   0.438   0.675   4.285  0.4378 -0.4147 -0.1179
    3MOL   N368 1412   0.366   0.801   4.274  0.3585  0.0480 -0.5475
    3MOL   C369 1413   0.373   0.902   4.369 -0.1704 -0.0265  0.4663
    3MOL   C370 1414   0.304   1.016   4.327  0.1740 -0.9393  0.2316
    3MOL   C371 1415   0.308   1.132   4.412  0.0102  0.1376 -0.0845
    3MOL   C372 1416   0.372   1.130   4.535 -0.2986  0.0738  0.2027
    3MOL   C373 1417   0.442   1.017   4.579  0.3383 -0.5222 -0.2164
    3MOL   C374 1418   0.431   0.902   4.498  0.2140  0.0219  0.6302
    3MOL   C375 1419   0.234   0.975   4.202  0.1132  0.0942 -0.1104
    3MOL   C376 1420   0.273   0.843   4.176  0.2273 -0.3595  0.1978
    3MOL   C377 1421   0.220   0.777   4.063  0.4349  0.0718  0.9109
    3MOL   C378 1422   0.131   0.841   3.974 -0.8874 -0.4277  0.3231
    3MOL   C379 1423   0.109   0.977   3.995  1.1411  0.1254  0.4166
    3MOL   C380 1424   0.152   1.047   4.109 -0.3324  0.0412 -0.0865
    3MOL   H381 1425   0.429   0.630   4.073  0.7964  0.9132 -1.6459
    3MOL   H382 1426   0.543   0.533   4.157  0.3230 -0.5403  1.8389
    3MOL   H383 1427   0.525   0.685   4.349  0.3039 -1.3372  0.2176
    3MOL   H384 1428   0.266   1.226   4.378  0.5356  0.2871 -0.3367
    3MOL   H385 1429   0.376   1.225   4.587 -0.4843  1.4636 -2.2239
    3MOL   H386 1430   0.500   1.013   4.670 -2.1376  0.6110  1.4795
    3MOL   H387 1431   0.486   0.817   4.534  1.2271  0.1537 -0.5991
    3MOL   H388 1432   0.230   0.673   4.037 -0.6547 -0.0425  0.9419
    3MOL   H389 1433   0.092   0.797   3.883  1.1330  0.6246 -1.0920
    3MOL   H390 1434   0.051   1.036   3.925  1.3659 -0.9975 -0.7570
    3MOL   H391 1435   0.134   1.152   4.123 -0.8679  0.0488 -0.8167
    3MOL   C392 1436   0.358   0.561   4.344 -0.0500 -0.2462  0.8374
    3MOL   C393 1437   0.423   0.419   4.363  0.8162 -0.0072  0.2729
    3MOL   N394 1438   0.563   0.424   4.405 -0.8773 -0.3488 -0.6386
    3MOL   C395 1439   0.677   0.370   4.342  0.2386 -0.3737 -0.2314
    3MOL   C396 1440   0.790   0.417   4.414 -0.3830  0.6356 -0.1656
    3MOL   C397 1441   0.917   0.401   4.352  0.1872  0.6243  0.1228
    3MOL   C398 1442   0.928   0.341   4.228 -0.1210 -0.1049 -0.1221
    3MOL   C399 1443   0.812   0.290   4.162 -0.3037  0.2294 -0.4305
    3MOL   C400 1444   0.682   0.313   4.214 -0.4533 -0.2188  0.0161
    3MOL   C401 1445   0.744   0.474   4.533 -0.8008 -0.4853 -0.5635
    3MOL   C402 1446   0.600   0.471   4.530 -0.5522 -0.0561  0.0311
    3MOL   C403 1447   0.525   0.533   4.629 -0.1677  0.1284 -0.0959
    3MOL   C404 1448   0.591   0.583   4.743 -0.3013  0.0428 -0.0011
    3MOL   C405 1449   0.732   0.580   4.755  0.2883  0.4358  0.1991
    3MOL   C406 1450   0.805   0.528   4.648  0.5923 -0.6368  0.4138
    3MOL   H407 1451   0.315   0.597   4.438 -0.3442 -2.0534  1.4160
    3MOL   H408 1452   0.266   0.554   4.286  0.5195  2.3248 -0.4504
    3MOL   H409 1453   0.427   0.393   4.258 -0.7710  3.0529 -0.5904
    3MOL   H410 1454   1.009   0.446   4.388  0.7777 -0.7064  0.2961
    3MOL   H411 1455   1.025   0.332   4.183 -0.5782 -1.4589 -0.8622
    3MOL   H412 1456   0.842   0.234   4.074 -0.5366 -1.6921  0.6980
    3MOL   H413 1457   0.590   0.278   4.169  0.2873 -3.2160  0.6906
    3MOL   H414 1458   0.417   0.528   4.630 -0.2316  1.3670  1.6827
    3MOL   H415 1459   0.531   0.610   4.829  1.9611 -0.1755  1.6978
    3MOL   H416 1460   0.784   0.612   4.844 -1.0653  1.1706  0.7491
    3MOL   H417 1461   0.911   0.520   4.671  0.6611 -0.2911  0.2230
    3MOL   C418 1462   0.347   0.308   4.432 -0.0933 -0.8786 -0.1194
    3MOL   C419 1463   0.389   0.167   4.398  0.2118  0.3824  0.0133
    3MOL   N420 1464   0.364   0.084   4.515  0.9315  0.3994 -0.0478
    3MOL   C421 1465   0.453   0.069   4.619  0.4227 -0.4356  0.1480
    3MOL   C422 1466   0.404   8.210   4.723 -0.5627  0.0440  0.0533
    3MOL   C423 1467   0.487   8.181   4.830 -0.8980 -0.1751 -0.3651
    3MOL   C424 1468   0.616   0.006   4.833  0.1353  0.1900  0.0275
    3MOL   C425 1469   0.666   0.094   4.740 -0.5717 -0.2705 -0.3260
    3MOL   C426 1470   0.585   0.121   4.627 -0.2860  0.3343 -0.0535
    3MOL   C427 1471   0.272   8.182   4.688 -0.2751  0.0786 -1.1879
    3MOL   C428 1472   0.249   0.019   4.559 -0.7557 -1.0775  0.0068
    3MOL   C429 1473   0.125   0.000   4.502  0.2179  0.4179 -0.1796
    3MOL   C430 1474   0.019   8.160   4.571  0.1488 -0.2268 -0.1868
    3MOL   C431 1475   0.034   8.122   4.709  1.0818  0.4002  0.1308
    3MOL   C432 1476   0.161   8.130   4.758 -0.3108  0.8585 -0.3443
    3MOL   H433 1477   0.358   0.328   4.539  0.9327  0.1140 -0.4065
    3MOL   H434 1478   0.239   0.316   4.416  0.0085  1.3666  0.1405
    3MOL   H435 1479   0.495   0.187   4.385 -0.2425  2.8526 -0.1425
    3MOL   H436 1480   0.457   8.110   4.906 -1.9992 -1.2600 -1.8014
    3MOL   H437 1481   0.676   8.208   4.919 -0.4671  0.4505  0.5295
    3MOL   H438 1482   0.761   0.142   4.756 -0.3495 -0.7930 -0.0307
    3MOL   H439 1483   0.617   0.200   4.560 -2.9807  1.7814  0.2923
    3MOL   H440 1484   0.105   0.040   4.404  0.1926  1.3251  0.1917
    3MOL   H441 1485   8.153   8.139   4.521  1.4476 -4.5192 -0.9982
    3MOL   H442 1486   8.189   8.068   4.768  1.5001  1.1707  1.3816
    3MOL   H443 1487   0.169   8.090   4.858 -0.4901  2.8010  0.4662
    3MOL   C444 1488   0.326   0.114   4.264  0.2403 -0.4432 -0.1429
    3MOL   C445 1489   0.371   8.205   4.222 -0.4184  0.3321  0.1903
    3MOL   N446 1490   0.309   8.160   4.100  0.3191 -0.2022  0.4989
    3MOL   C447 1491   0.203   8.070   4.092  0.0057 -0.1867 -0.4473
    3MOL   C448 1492   0.158   8.065   3.957 -0.2909  0.0918  0.2297
    3MOL   C449 1493   0.048   7.977   3.926 -0.4714 -0.2045 -0.5751
    3MOL   C450 1494   8.213   7.899   4.024 -0.1467  1.0737 -0.3392
    3MOL   C451 1495   0.026   7.910   4.154  0.4765 -0.7228 -0.5565
    3MOL   C452 1496   0.131   7.999   4.187 -0.2069 -0.1805 -0.0203
    3MOL   C453 1497   0.235   8.161   3.880 -0.1927 -0.5712 -0.4598
    3MOL   C454 1498   0.322   8.219   3.972 -0.5791 -0.3957  0.0467
    3MOL   C455 1499   0.410   0.094   3.936  0.2307  0.9355 -0.0503
    3MOL   C456 1500   0.413   0.138   3.804  0.3967 -0.3033 -0.6796
    3MOL   C457 1501   0.319   0.087   3.708 -0.5049 -0.0464  0.1316
    3MOL   C458 1502   0.228   8.211   3.747  0.2681  0.8895  0.2563
    3MOL   H459 1503   0.217   0.122   4.261  0.1532 -1.8050 -1.4301
    3MOL   H460 1504   0.359   0.187   4.190 -1.1563  1.4664  1.0800
    3MOL   H461 1505   0.324   8.145   4.300  0.8938 -0.5167  0.3560
    3MOL   H462 1506   0.025   7.975   3.820 -1.9225 -1.0163 -0.2595
    3MOL   H463 1507   8.134   7.830   4.001  2.8123 -2.3069 -0.8159
    3MOL   H464 1508   8.209   7.855   4.236 -0.5140  0.9352  0.0213
    3MOL   H465 1509   0.165   8.013   4.288  1.6186 -1.9189 -0.3532
    3MOL   H466 1510   0.478   0.137   4.008 -1.4852  2.0569  0.9560
    3MOL   H467 1511   0.481   0.216   3.773  0.2234  0.1321  0.0341
    3MOL   H468 1512   0.310   0.145   3.618  1.5952  0.2327  0.0949
    3MOL   H469 1513   0.158   8.178   3.671  0.6063 -1.1546  0.8141
    3MOL   C470 1514   0.528   8.176   4.225 -0.7631 -0.8061 -0.1630
    3MOL   C471 1515   0.575   8.034   4.192  0.0646 -0.4432  0.4222
    3MOL   N472 1516   0.715   8.025   4.235 -0.1245  0.2263 -1.3024
    3MOL   C473 1517   0.824   8.028   4.147  0.5237  0.3462 -1.0276
    3MOL   C474 1518   0.944   8.015   4.225 -0.7372  0.0776  0.0606
    3MOL   C475 1519   1.066   8.009   4.156 -1.4079 -0.9005  0.0385
    3MOL   C476 1520   1.074   8.014   4.017  0.3189 -0.5042  0.8711
    3MOL   C477 1521   0.961   8.032   3.944 -0.1969  0.3491  1.1313
    3MOL   C478 1522   0.838   8.047   4.008  0.4392  0.5030  0.1718
    3MOL   C479 1523   0.902   8.010   4.361 -0.6456 -0.0227 -0.3368
    3MOL   C480 1524   0.761   8.009   4.367 -0.4670 -0.3604 -0.2148
    3MOL   C481 1525   0.696   8.002   4.494 -0.6513 -0.5452  0.2977
    3MOL   C482 1526   0.770   7.989   4.613 -0.0912 -0.3547  0.3747
    3MOL   C483 1527   0.910   7.990   4.605 -0.2445 -0.1087  0.1005
    3MOL   C484 1528   0.976   7.999   4.481  0.6721 -0.6746 -0.8579
    3MOL   H485 1529   0.591   0.013   4.163  0.6002 -0.8105  1.1860
    3MOL   H486 1530   0.557   8.194   4.329 -0.9621 -1.5493  0.0200
    3MOL   H487 1531   0.578   8.028   4.083 -0.3344 -4.1740  0.5508
    3MOL   H488 1532   1.159   7.992   4.208  0.5782  0.0001 -3.0425
    3MOL   H489 1533   1.171   8.017   3.970 -0.6370  1.1621 -1.0779
    3MOL   H490 1534   0.964   8.054   3.838 -1.3511 -1.0642  0.7837
    3MOL   H491 1535   0.746   8.047   3.952  0.6080  1.1763 -0.1150
    3MOL   H492 1536   0.590   8.020   4.489 -0.0518  2.6379 -3.2092
    3MOL   H493 1537   0.726   7.994   4.711 -2.1209 -0.0930 -0.5228
    3MOL   H494 1538   0.971   7.985   4.694  0.9871  0.2461 -0.7086
    3MOL   H495 1539   1.083   7.986   4.473  1.0855 -0.2633  2.9713
    3MOL   C496 1540   0.494   7.905   4.246  0.0382  0.5805 -0.0910
    3MOL   C497 1541   0.567   7.773   4.229 -0.1358 -0.3621  0.1676
    3MOL   N498 1542   0.489   7.661   4.286 -0.0381 -0.4372 -0.4686
    3MOL   C499 1543   0.444   7.551   4.206 -0.6017  0.0613  0.6357
    3MOL   C500 1544   0.376   7.452   4.284 -0.1771  0.0796 -0.5036
    3MOL   C501 1545   0.327   7.336   4.224  0.8714 -0.2727  0.9886
    3MOL   C502 1546   0.336   7.314   4.084 -0.9203  0.1168 -0.6092
    3MOL   C503 1547   0.410   7.404   4.007 -0.1719  0.2948  0.0230
    3MOL   C504 1548   0.461   7.523   4.067  0.1272  0.2834  0.4644
    3MOL   C505 1549   0.397   7.499   4.428 -0.4181 -1.0612 -0.0196
    3MOL   C506 1550   0.458   7.627   4.421  0.0335 -0.6538 -0.0722
    3MOL   C507 1551   0.476   7.707   4.533 -0.4009  0.1668 -0.2030
    3MOL   C508 1552   0.448   7.657   4.661  0.4650 -0.1620 -0.5486
    3MOL   C509 1553   0.395   7.524   4.672 -0.5649  0.4130  0.0498
    3MOL   C510 1554   0.370   7.455   4.557 -0.3423  0.0245  0.0522
    3MOL   H511 1555   0.434   7.921   4.336  1.7251 -2.2422  1.6388
    3MOL   H512 1556   0.421   7.885   4.168  0.0157 -0.4915  0.1853
    3MOL   H513 1557   0.661   7.768   4.284  0.9989  0.0130 -1.7016
    3MOL   H514 1558   0.268   7.266   4.282 -0.7058  1.0725  1.0481
    3MOL   H515 1559   0.312   7.220   4.037 -0.8253 -1.5354  2.4487
    3MOL   H516 1560   0.442   7.378   3.906 -0.2068 -0.7912  0.2875
    3MOL   H517 1561   0.512   7.588   3.997  0.0231 -0.9369 -0.7497
    3MOL   H518 1562   0.527   7.802   4.532  0.7491 -0.4300  0.2381
    3MOL   H519 1563   0.469   7.711   4.751 -1.1399 -2.0089  0.9731
    3MOL   H520 1564   0.372   7.488   4.771  3.7254  1.9579  1.7606
    3MOL   H521 1565   0.316   7.363   4.574 -0.8640  0.0764 -1.2684
    3MOL   H522 1566   0.584   7.755   4.123 -0.7025 -0.4364  0.0880
    4MOL     C1 1567   4.051   5.492   5.007 -0.3016 -0.0955  0.6383
    4MOL     C2 1568   4.126   5.363   4.946  0.1110  0.2464 -0.8685
    4MOL     N3 1569   4.098   5.336   4.800  0.0010 -0.7539 -0.3462
    4MOL     C4 1570   4.075   5.203   4.745  0.1087 -0.3768  0.4477
    4MOL     C5 1571   4.080   5.219   4.605  0.5944 -0.2346 -0.5968
    4MOL     C6 1572   4.065   5.103   4.529 -0.4214 -0.7632  0.7419
    4MOL     C7 1573   4.060   4.975   4.591 -0.6292 -0.1934 -0.3237
    4MOL     C8 1574   4.069   4.966   4.730 -0.0100  1.0458 -0.3284
    4MOL     C9 1575   4.067   5.081   4.808 -0.8495 -0.3933 -0.7588
    4MOL    C10 1576   4.092   5.356   4.568 -0.5937  0.1053 -0.4473
    4MOL    C11 1577   4.108   5.426   4.691 -0.3563  0.1524  0.9504
    4MOL    C12 1578   4.121   5.564   4.686  0.2906 -0.2888 -0.7279
    4MOL    C13 1579   4.139   5.627   4.564  0.5739  0.2482  0.5244
    4MOL    C14 1580   4.128   5.558   4.441 -0.1126  0.8764  0.4734
    4MOL    C15 1581   4.096   5.421   4.444 -0.9824  0.0996 -0.1987
    4MOL    H16 1582   3.947   5.483   5.038 -0.8795 -0.3133 -1.3030
    4MOL    H17 1583   4.049   5.581   4.943 -0.3687  0.6776  1.7108
    4MOL    H18 1584   4.091   5.271   4.993 -0.0765  0.5574 -0.4008
    4MOL    H19 1585   4.064   5.117   4.422  1.5065  0.8437  0.9007
    4MOL    H20 1586   4.065   4.891   4.525 -0.5482 -0.5732  0.1625
    4MOL    H21 1587   4.061   4.866   4.770  1.9995 -0.5353 -3.6019
    4MOL    H22 1588   4.070   5.067   4.915 -0.9710 -1.8832 -0.9327
    4MOL    H23 1589   4.134   5.629   4.771 -0.1947 -2.0566  0.7400
    4MOL    H24 1590   4.161   5.733   4.562  2.0071 -0.0700 -2.0763
    4MOL    H25 1591   4.146   5.603   4.344  1.7013 -0.7591  0.0233
    4MOL    H26 1592   4.087   5.358   4.357 -1.3034  0.9287 -0.7711
    4MOL    H27 1593   4.107   5.525   5.094  1.5523  1.6371 -1.1520
    4MOL    C28 1594   4.281   5.370   4.962  0.3181  0.5533 -0.0382
    4MOL    C29 1595   4.348   5.402   5.098  0.1708  0.0040  0.0743
    4MOL    N30 1596   4.281   5.336   5.214  0.1080  0.2658  0.6167
    4MOL    C31 1597   4.260   5.402   5.337 -0.1643 -0.5718  0.3127
    4MOL    C32 1598   4.180   5.326   5.424 -0.0330  0.1668 -0.8434
    4MOL    C33 1599   4.141   5.380   5.547 -0.6144  0.3217  0.3638
    4MOL    C34 1600   4.198   5.500   5.589 -0.2416 -0.0664 -0.0866
    4MOL    C35 1601   4.282   5.573   5.506  0.1940 -0.3988 -0.0961
    4MOL    C36 1602   4.304   5.529   5.375  0.4096 -0.7874  0.0796
    4MOL    C37 1603   4.175   5.193   5.364 -0.5236  0.1458 -0.2623
    4MOL    C38 1604   4.236   5.202   5.231 -0.0660  0.2701 -0.3668
    4MOL    C39 1605   4.253   5.085   5.153  0.1334  0.0322 -0.3571
    4MOL    C40 1606   4.211   4.957   5.200  0.3719  0.0590  0.2679
    4MOL    C41 1607   4.148   4.949   5.325  0.4392  0.8530  0.0154
    4MOL    C42 1608   4.130   5.061   5.405 -1.4137  0.0410 -0.3905
    4MOL    H43 1609   4.315   5.273   4.925 -0.6739 -0.7409  2.3755
    4MOL    H44 1610   4.318   5.435   4.882  0.6012  1.1467  0.5741
    4MOL    H45 1611   4.338   5.509   5.115 -1.7160 -0.3464  1.2829
    4MOL    H46 1612   4.073   5.336   5.618 -1.1170  1.5550  0.6463
    4MOL    H47 1613   4.171   5.534   5.688 -1.2977  1.6229 -0.9222
    4MOL    H48 1614   4.313   5.672   5.534  0.3786 -1.4770  3.8144
    4MOL    H49 1615   4.354   5.594   5.305 -0.4048 -1.7333 -1.4287
    4MOL    H50 1616   4.312   5.089   5.063  1.5933 -1.2879  0.5237
    4MOL    H51 1617   4.220   4.866   5.142 -0.4576 -1.0078  1.7871
    4MOL    H52 1618   4.120   4.851   5.361 -0.1302 -0.0582 -2.7797
    4MOL    H53 1619   4.086   5.058   5.504  0.8582 -1.1625  0.6170
    4MOL    C54 1620   4.500   5.357   5.098  0.5490 -0.1561  0.7821
    4MOL    C55 1621   4.590   5.420   4.999  0.1923 -0.7216  1.0465
    4MOL    N56 1622   4.585   5.566   5.010 -1.1172  0.7637 -0.0917
    4MOL    C57 1623   4.546   5.656   4.908  0.3215  0.9210 -0.2082
    4MOL    C58 1624   4.564   5.792   4.949 -0.6115 -0.4439  0.5597
    4MOL    C59 1625   4.525   5.894   4.861 -0.5284  0.5759 -0.6176
    4MOL    C60 1626   4.468   5.861   4.742 -0.7092  0.3945  0.3706
    4MOL    C61 1627   4.456   5.729   4.695  0.3652 -0.7417  0.5138
    4MOL    C62 1628   4.500   5.626   4.778 -0.1818 -0.2205  0.0418
    4MOL    C63 1629   4.627   5.786   5.079 -0.4142  0.2644  0.2260
    4MOL    C64 1630   4.640   5.650   5.114 -0.0684  0.0326 -0.0534
    4MOL    C65 1631   4.705   5.612   5.235  0.3211  0.4515 -0.1580
    4MOL    C66 1632   4.746   5.719   5.325  0.5785 -0.1191  0.1997
    4MOL    C67 1633   4.726   5.850   5.293  0.3001 -0.4756  0.6803
    4MOL    C68 1634   4.669   5.883   5.165 -0.9118 -0.0975 -0.3004
    4MOL    H69 1635   4.544   5.384   5.194  2.6886  0.4580 -0.3226
    4MOL    H70 1636   4.500   5.249   5.085 -0.2795  0.1199 -1.8075
    4MOL    H71 1637   4.549   5.386   4.904  1.3089  0.6739  0.0331
    4MOL    H72 1638   4.529   5.997   4.894  0.9499  0.5983 -0.8477
    4MOL    H73 1639   4.421   5.939   4.684 -0.3518  0.2907 -0.0603
    4MOL    H74 1640   4.418   5.714   4.595  3.5532  1.7823 -1.1979
    4MOL    H75 1641   4.490   5.522   4.751 -1.0979 -0.4315  1.1498
    4MOL    H76 1642   4.722   5.512   5.272  1.0121  0.3990 -0.6079
    4MOL    H77 1643   4.784   5.689   5.421 -1.7858  2.0024  1.8785
    4MOL    H78 1644   4.745   5.929   5.364 -0.0584 -0.7155  1.0415
    4MOL    H79 1645   4.646   5.984   5.133  0.1821 -0.2302 -1.5893
    4MOL    C80 1646   4.742   5.379   4.997 -0.0779  0.8854 -0.1579
    4MOL    C81 1647   4.774   5.241   4.943  0.0943  1.0015  0.1235
    4MOL    N82 1648   4.754   5.232   4.800  0.1806  0.0200 -0.5588
    4MOL    C83 1649   4.635   5.190   4.739 -0.3532  0.5072 -0.2383
    4MOL    C84 1650   4.643   5.215   4.599 -0.6034 -0.1922  0.4220
    4MOL    C85 1651   4.524   5.181   4.522  0.3627 -0.0700 -0.8693
    4MOL    C86 1652   4.417   5.107   4.570 -0.3285 -0.0550  0.2328
    4MOL    C87 1653   4.415   5.077   4.705 -0.4178 -0.2522  0.6478
    4MOL    C88 1654   4.518   5.128   4.789 -0.2078 -1.0818 -0.7556
    4MOL    C89 1655   4.774   5.273   4.576  0.1238 -0.1756 -0.1330
    4MOL    C90 1656   4.835   5.289   4.702  0.0919 -0.2553 -0.4412
    4MOL    C91 1657   4.948   5.367   4.713 -0.6892  1.1940  0.2356
    4MOL    C92 1658   5.016   5.416   4.602 -0.5638  0.9524  0.5100
    4MOL    C93 1659   4.955   5.404   4.472 -0.9530 -0.0432 -0.4151
    4MOL    C94 1660   4.840   5.326   4.460 -0.4994 -0.0397  0.2056
    4MOL    H95 1661   4.796   5.443   4.929 -1.1112 -0.4950 -2.3281
    4MOL    H96 1662   4.786   5.396   5.096  1.8704 -0.2608 -0.7913
    4MOL    H97 1663   4.698   5.172   4.979  0.9190 -0.2387 -0.4881
    4MOL    H98 1664   4.518   5.202   4.416  0.6405  0.9793 -0.6810
    4MOL    H99 1665   4.327   5.086   4.514  0.4676 -1.1458 -0.6466
    4MOL   H100 1666   4.339   5.023   4.760  0.0832 -0.5082  1.0951
    4MOL   H101 1667   4.511   5.114   4.896  1.9705  0.5077 -0.3777
    4MOL   H102 1668   4.979   5.390   4.814 -1.0637  0.8331  0.4355
    4MOL   H103 1669   5.096   5.486   4.622  1.3549 -0.7313 -0.9115
    4MOL   H104 1670   5.014   5.452   4.395 -0.0378  2.5873  1.8233
    4MOL   H105 1671   4.792   5.322   4.364 -1.5022  2.8393  0.5303
    4MOL   C106 1672   4.913   5.189   4.990  0.2183  0.7374 -0.2473
    4MOL   C107 1673   4.931   5.161   5.146 -0.1838  0.0843 -0.6186
    4MOL   N108 1674   4.808   5.109   5.213  0.0178 -1.2226  0.0220
    4MOL   C109 1675   4.739   5.175   5.322  0.4615 -0.2852 -0.6802
    4MOL   C110 1676   4.626   5.095   5.349 -0.5713  0.3245  0.3489
    4MOL   C111 1677   4.540   5.140   5.445 -0.0441  0.2342  0.7277
    4MOL   C112 1678   4.569   5.260   5.517  0.2553  0.3963 -0.5699
    4MOL   C113 1679   4.678   5.335   5.487 -0.3703  0.9431 -0.5075
    4MOL   C114 1680   4.771   5.291   5.394 -0.6446  0.1408  0.5169
    4MOL   C115 1681   4.639   4.978   5.275  0.6575 -0.1085  0.4862
    4MOL   C116 1682   4.748   4.988   5.188 -0.0718  0.1980  0.0263
    4MOL   C117 1683   4.788   4.880   5.104  0.2101  0.0837  0.0211
    4MOL   C118 1684   4.713   4.759   5.104 -0.0185  0.1966 -0.5076
    4MOL   C119 1685   4.592   4.755   5.181 -0.4618  0.4586  0.3969
    4MOL   C120 1686   4.557   4.861   5.267 -0.0954  0.1241 -0.4534
    4MOL   H121 1687   4.944   5.108   4.923  2.0872  0.2534  1.1724
    4MOL   H122 1688   4.991   5.261   4.969  1.3212  0.8207  3.8428
    4MOL   H123 1689   4.939   5.262   5.186  1.5072 -1.2980  2.7365
    4MOL   H124 1690   4.449   5.087   5.467 -0.2620 -0.4116 -1.6093
    4MOL   H125 1691   4.500   5.288   5.595 -1.2958 -3.0211 -0.6220
    4MOL   H126 1692   4.682   5.429   5.540  0.4075  1.7375 -1.9459
    4MOL   H127 1693   4.855   5.353   5.364 -1.7495  1.4780  0.1166
    4MOL   H128 1694   4.881   4.897   5.051 -0.0148 -0.1207 -0.4355
    4MOL   H129 1695   4.743   4.667   5.056  0.5108  1.0009 -1.7320
    4MOL   H130 1696   4.541   4.661   5.194 -1.6274  1.1880  1.1470
    4MOL   H131 1697   4.472   4.853   5.333  0.1516  0.9971 -0.0086
    4MOL   C132 1698   5.061   5.087   5.185  0.4562  0.4099  0.1534
    4MOL   C133 1699   5.193   5.164   5.152 -0.4555  0.1037  0.3316
    4MOL   N134 1700   5.189   5.293   5.221 -0.4887  0.8873 -0.0225
    4MOL   C135 1701   5.187   5.420   5.161 -0.0013  0.7255 -0.1588
    4MOL   C136 1702   5.184   5.519   5.260 -0.1328 -0.2851 -0.4516
    4MOL   C137 1703   5.172   5.654   5.223  0.3220  0.3881  0.4993
    4MOL   C138 1704   5.176   5.691   5.087 -0.0409  0.1537 -0.1798
    4MOL   C139 1705   5.182   5.593   4.990 -0.3112  0.4103  0.1855
    4MOL   C140 1706   5.184   5.458   5.025 -0.1569 -0.4066  0.2341
    4MOL   C141 1707   5.169   5.448   5.387 -0.6808 -0.1061  0.2419
    4MOL   C142 1708   5.184   5.311   5.358  0.5160 -0.4254 -0.5587
    4MOL   C143 1709   5.199   5.221   5.469  0.2628 -0.4196 -0.2458
    4MOL   C144 1710   5.170   5.261   5.597 -0.3587 -0.3838 -0.6425
    4MOL   C145 1711   5.136   5.396   5.625  0.0493  0.2712 -0.2628
    4MOL   C146 1712   5.141   5.488   5.518  0.3590 -0.3145 -0.3864
    4MOL   H147 1713   5.061   5.054   5.288  0.7903  0.0327  0.0332
    4MOL   H148 1714   5.061   5.001   5.118 -2.2058  2.4816 -2.6569
    4MOL   H149 1715   5.184   5.189   5.046 -0.0075 -1.6367 -0.1244
    4MOL   H150 1716   5.177   5.733   5.297  2.4984  0.0766  0.7431
    4MOL   H151 1717   5.178   5.790   5.044  1.2384 -0.3242 -1.2665
    4MOL   H152 1718   5.181   5.622   4.886 -3.7186  0.1059  0.0851
    4MOL   H153 1719   5.192   5.380   4.952 -0.1070  0.8457 -1.1174
    4MOL   H154 1720   5.219   5.118   5.444  3.3712 -0.0084  0.3544
    4MOL   H155 1721   5.169   5.184   5.673  0.8272 -0.7043 -0.9361
    4MOL   H156 1722   5.103   5.425   5.723  0.2490  0.1149 -0.1493
    4MOL   H157 1723   5.127   5.593   5.543 -0.3880 -0.0890 -1.7125
    4MOL   C158 1724   5.333   5.089   5.165 -0.0184 -0.0361  0.0513
    4MOL   C159 1725   5.347   4.969   5.065  0.2003 -0.4561 -0.2780
    4MOL   N160 1726   5.318   5.007   4.926  0.1817 -0.2217  0.3464
    4MOL   C161 1727   5.213   4.958   4.847 -0.4611  0.0082 -0.3065
    4MOL   C162 1728   5.213   5.024   4.726  0.6031  0.5184 -0.1134
    4MOL   C163 1729   5.114   4.988   4.631  0.6215  0.3536 -0.2002
    4MOL   C164 1730   5.022   4.885   4.657 -0.4298 -0.1021 -0.9238
    4MOL   C165 1731   5.034   4.807   4.781 -0.2564 -0.4612  0.2819
    4MOL   C166 1732   5.129   4.848   4.877  0.2773  0.9399  0.4506
    4MOL   C167 1733   5.315   5.119   4.727 -0.3682  0.1041 -0.2485
    4MOL   C168 1734   5.375   5.105   4.853 -0.1545 -0.2322 -0.0385
    4MOL   C169 1735   5.487   5.179   4.887 -0.0823 -0.3371 -0.6278
    4MOL   C170 1736   5.538   5.269   4.796 -0.6017 -0.1338 -0.6047
    4MOL   C171 1737   5.485   5.284   4.665 -0.2284 -0.1160  0.6962
    4MOL   C172 1738   5.362   5.217   4.636  0.0432  0.3627  0.1501
    4MOL   H173 1739   5.415   5.160   5.158 -1.2025  1.2597 -0.8688
    4MOL   H174 1740   5.336   5.047   5.266 -2.3901  0.3699  0.3258
    4MOL   H175 1741   5.266   4.904   5.100 -0.2748 -0.1527 -0.8151
    4MOL   H176 1742   5.123   5.042   4.538  3.1352  0.4832  0.0823
    4MOL   H177 1743   4.956   4.855   4.576 -2.0039 -0.3228  0.4134
    4MOL   H178 1744   4.971   4.722   4.805  1.9148 -1.4713  2.5693
    4MOL   H179 1745   5.139   4.802   4.974  0.7444  0.0063 -0.0334
    4MOL   H180 1746   5.531   5.169   4.985 -0.2082 -4.8591 -0.9247
    4MOL   H181 1747   5.621   5.329   4.828 -0.0662 -0.8766 -0.5884
    4MOL   H182 1748   5.528   5.348   4.589  0.2360 -1.4213 -0.1451
    4MOL   H183 1749   5.311   5.228   4.542  1.5208 -3.1097 -1.1449
    4MOL   C184 1750   5.486   4.896   5.076  0.5039  0.4141 -0.1603
    4MOL   C185 1751   5.494   4.796   5.198  0.1190 -0.9010  0.1002
    4MOL   N186 1752   5.370   4.732   5.226 -0.1996  0.6982  0.2827
    4MOL   C187 1753   5.276   4.760   5.325  0.0304  0.0364  0.3353
    4MOL   C188 1754   5.159   4.684   5.306  0.2749  0.2017 -0.0317
    4MOL   C189 1755   5.050   4.688   5.398 -0.9297  0.1211  0.4998
    4MOL   C190 1756   5.047   4.781   5.499  0.2910 -0.1259  0.4191
    4MOL   C191 1757   5.163   4.856   5.521 -0.0458  0.1466 -0.5904
    4MOL   C192 1758   5.278   4.844   5.442  1.1828 -1.0394  0.4336
    4MOL   C193 1759   5.175   4.622   5.177 -0.1784  0.0107 -0.0493
    4MOL   C194 1760   5.310   4.645   5.133  0.0119  0.4097 -0.7903
    4MOL   C195 1761   5.352   4.590   5.009  0.0304  0.5746 -0.1831
    4MOL   C196 1762   5.264   4.517   4.934  0.0565 -0.7176 -0.1983
    4MOL   C197 1763   5.132   4.492   4.981 -0.0335 -0.5207  1.0322
    4MOL   C198 1764   5.092   4.539   5.103  0.2086 -0.1763  0.3857
    4MOL   H199 1765   5.498   4.827   4.993  0.7038  1.0298 -0.6463
    4MOL   H200 1766   5.569   4.966   5.070 -0.5188  1.8009  1.4809
    4MOL   H201 1767   5.511   4.869   5.277 -0.3666  0.4641 -1.0423
    4MOL   H202 1768   4.960   4.629   5.390 -2.0510  1.8527  0.1769
    4MOL   H203 1769   4.957   4.780   5.559  0.8529 -2.1152  1.2637
    4MOL   H204 1770   5.167   4.923   5.606  1.9792  0.5249 -0.9470
    4MOL   H205 1771   5.357   4.912   5.470 -0.5186  1.5672 -0.8092
    4MOL   H206 1772   5.452   4.613   4.976  1.2349 -0.9558  2.2151
    4MOL   H207 1773   5.298   4.477   4.839  1.2303  2.6935 -1.3041
    4MOL   H208 1774   5.056   4.439   4.926  2.6117 -1.3201 -1.9702
    4MOL   H209 1775   4.997   4.517   5.149  0.6080 -0.3383  1.1485
    4MOL   C210 1776   5.629   4.701   5.202 -0.2350 -0.1827  0.1494
    4MOL   C211 1777   5.670   4.652   5.343  1.0651  0.7579 -0.0056
    4MOL   N212 1778   5.650   4.508   5.352  0.3791 -0.5567 -0.9959
    4MOL   C213 1779   5.546   4.444   5.432  0.5165 -0.0442  0.2465
    4MOL   C214 1780   5.556   4.301   5.418 -0.3189 -0.0494 -0.4741
    4MOL   C215 1781   5.462   4.212   5.483  0.4322  0.0701 -0.7256
    4MOL   C216 1782   5.348   4.273   5.548 -0.9543 -0.4300 -0.3975
    4MOL   C217 1783   5.331   4.412   5.560 -0.0695  0.2261  0.1562
    4MOL   C218 1784   5.429   4.496   5.494 -0.3309  0.3443 -0.1214
    4MOL   C219 1785   5.666   4.279   5.332  0.3121 -0.2880  0.1095
    4MOL   C220 1786   5.730   4.400   5.300 -0.6254  0.2022  0.7021
    4MOL   C221 1787   5.853   4.400   5.227  0.8401 -0.4576 -0.1462
    4MOL   C222 1788   5.919   4.283   5.193  0.3738  0.2174 -0.5234
    4MOL   C223 1789   5.855   4.160   5.221  0.3059 -0.8163  0.4973
    4MOL   C224 1790   5.727   4.158   5.290  0.0194  0.0568  0.0931
    4MOL   H225 1791   5.632   4.620   5.130 -0.7296 -0.0603 -0.0125
    4MOL   H226 1792   5.707   4.769   5.168  1.0085 -1.5212  0.2936
    4MOL   H227 1793   5.599   4.699   5.410 -0.9356 -1.2767 -0.6479
    4MOL   H228 1794   5.461   4.105   5.468  1.4011 -0.1240  0.5329
    4MOL   H229 1795   5.272   4.208   5.589  0.6700 -0.8117  2.0602
    4MOL   H230 1796   5.246   4.460   5.605 -0.4885 -0.9254  0.5917
    4MOL   H231 1797   5.403   4.600   5.507 -0.9037  0.0155  1.5188
    4MOL   H232 1798   5.902   4.484   5.178  2.2031 -1.2568 -0.1806
    4MOL   H233 1799   6.012   4.278   5.138  0.7456 -0.3638  0.1535
    4MOL   H234 1800   5.900   4.065   5.196 -1.6514 -0.8073 -3.2938
    4MOL   H235 1801   5.666   4.070   5.306 -1.9928  0.8873 -2.6757
    4MOL   C236 1802   5.815   4.689   5.384 -1.0796 -0.3908 -0.3319
    4MOL   C237 1803   5.849   4.843   5.384 -0.3638 -0.3300 -0.3079
    4MOL   N238 1804   5.743   4.938   5.404 -0.2968 -0.5345  0.4367
    4MOL   C239 1805   5.723   5.063   5.339  0.1763 -0.0970  0.1556
    4MOL   C240 1806   5.615   5.135   5.398 -0.4843  0.5943 -0.0191
    4MOL   C241 1807   5.573   5.258   5.341  0.2818  0.3218 -0.0097
    4MOL   C242 1808   5.644   5.311   5.239 -0.1311 -0.1859 -0.3353
    4MOL   C243 1809   5.753   5.244   5.181 -0.2171 -0.5746 -0.7766
    4MOL   C244 1810   5.790   5.118   5.233  0.2716  0.4523  0.7415
    4MOL   C245 1811   5.584   5.064   5.518  1.4127 -0.0779 -0.0936
    4MOL   C246 1812   5.660   4.941   5.516  0.1786 -0.5169 -0.0419
    4MOL   C247 1813   5.645   4.856   5.623  0.2772  0.4080 -0.3513
    4MOL   C248 1814   5.561   4.887   5.728  0.2721  0.1483 -0.4147
    4MOL   C249 1815   5.481   5.002   5.733 -0.0289 -0.2916 -0.4622
    4MOL   C250 1816   5.499   5.096   5.627 -0.6267 -0.1325  0.1145
    4MOL   H251 1817   5.824   4.648   5.485 -1.9545 -0.3818 -0.2493
    4MOL   H252 1818   5.887   4.641   5.318 -2.0343 -2.6489  0.2172
    4MOL   H253 1819   5.885   4.852   5.281  0.1852  0.8107 -0.0316
    4MOL   H254 1820   5.495   5.306   5.398  0.3761  1.1325 -0.5524
    4MOL   H255 1821   5.623   5.406   5.191 -3.0160 -0.0876  1.0254
    4MOL   H256 1822   5.820   5.276   5.103 -0.3194  0.3478 -0.4876
    4MOL   H257 1823   5.870   5.065   5.184 -1.1700 -0.4981 -0.6136
    4MOL   H258 1824   5.707   4.768   5.632  1.0645  0.7651 -2.1595
    4MOL   H259 1825   5.570   4.826   5.817 -0.9158  2.4938  1.3689
    4MOL   H260 1826   5.422   5.023   5.822  0.5171  0.9335 -0.3853
    4MOL   H261 1827   5.444   5.189   5.628 -0.8799 -0.2844  0.1116
    4MOL   C262 1828   5.965   4.893   5.464 -0.8241 -0.2893  0.5494
    4MOL   C263 1829   6.099   4.820   5.432 -0.0699 -0.1947 -0.5905
    4MOL   N264 1830   6.157   4.849   5.302  0.0432  0.3887  0.5151
    4MOL   C265 1831   6.187   4.751   5.208 -0.5350 -0.4825 -0.7557
    4MOL   C266 1832   6.227   4.804   5.085  0.4821  0.5655  0.0037
    4MOL   C267 1833   6.266   4.710   4.982 -0.5830 -0.5211 -0.4789
    4MOL   C268 1834   6.260   4.571   4.998 -0.0215  0.4490  0.0343
    4MOL   C269 1835   6.211   4.520   5.115 -0.6970  0.6649  0.8763
    4MOL   C270 1836   6.181   4.605   5.225  0.4130 -0.6312 -0.1825
    4MOL   C271 1837   6.227   4.944   5.095  0.7809 -0.0574  0.5877
    4MOL   C272 1838   6.183   4.969   5.232 -0.2751  0.5580 -0.2498
    4MOL   C273 1839   6.155   5.105   5.270  0.9453 -0.4297  0.0293
    4MOL   C274 1840   6.179   5.214   5.181 -0.1402 -0.2049 -0.1822
    4MOL   C275 1841   6.223   5.182   5.055 -0.1135  0.4145 -0.1371
    4MOL   C276 1842   6.242   5.054   5.014  0.0296  0.1440  0.2087
    4MOL   H277 1843   5.986   4.998   5.442  1.1350 -0.9636 -0.9953
    4MOL   H278 1844   5.952   4.885   5.572  0.0104 -1.0993  0.5932
    4MOL   H279 1845   6.073   4.714   5.436 -0.8777 -0.0487 -1.7354
    4MOL   H280 1846   6.302   4.751   4.889  0.7466  0.4011  0.4310
    4MOL   H281 1847   6.275   4.504   4.914  0.6530 -0.9782  1.2743
    4MOL   H282 1848   6.197   4.414   5.130  1.3232  0.2413 -0.1494
    4MOL   H283 1849   6.154   4.560   5.319  1.2442  2.1063  1.4308
    4MOL   H284 1850   6.134   5.125   5.374 -0.3334 -0.9824 -0.1160
    4MOL   H285 1851   6.180   5.317   5.212  0.7605 -0.7720  1.7276
    4MOL   H286 1852   6.249   5.272   5.001 -0.0039  0.7042  0.3936
    4MOL   H287 1853   6.271   5.037   4.911 -3.8167 -3.4741 -0.3797
    4MOL   C288 1854   6.199   4.849   5.544  0.1164 -0.4233 -0.0671
    4MOL   C289 1855   6.196   4.763   5.663  0.6046  0.1126 -0.3145
    4MOL   N290 1856   6.202   4.618   5.627 -0.2840 -0.0486  0.3740
    4MOL   C291 1857   6.096   4.528   5.650  0.6322  0.7912  0.3338
    4MOL   C292 1858   6.120   4.410   5.568  0.1540  0.4290 -0.5288
    4MOL   C293 1859   6.017   4.313   5.550  0.7661  0.6653 -0.2494
    4MOL   C294 1860   5.894   4.335   5.605 -0.4654 -0.8250  0.2733
    4MOL   C295 1861   5.875   4.447   5.686  0.5091 -0.2642  0.4918
    4MOL   C296 1862   5.973   4.544   5.711  0.5791 -0.3758 -0.0756
    4MOL   C297 1863   6.257   4.417   5.519  0.6358 -0.3612  0.0257
    4MOL   C298 1864   6.301   4.550   5.560 -0.6065  0.2943 -0.8044
    4MOL   C299 1865   6.436   4.598   5.532  0.8387 -0.5875 -0.6642
    4MOL   C300 1866   6.520   4.515   5.460  0.4835 -0.3116  0.1529
    4MOL   C301 1867   6.480   4.383   5.422 -0.3323 -0.3297 -0.0958
    4MOL   C302 1868   6.354   4.334   5.460 -0.6084  0.7710 -0.1259
    4MOL   H303 1869   6.299   4.855   5.502  0.3761 -0.1822  0.5799
    4MOL   H304 1870   6.178   4.950   5.579  1.8342  0.2611 -0.9612
    4MOL   H305 1871   6.095   4.766   5.702  1.6529  3.5852  2.3461
    4MOL   H306 1872   6.031   4.226   5.487  0.6052  1.6294 -1.6488
    4MOL   H307 1873   5.805   4.276   5.587 -0.1124 -1.3915  0.3875
    4MOL   H308 1874   5.778   4.455   5.733  1.3489 -0.2326  2.2319
    4MOL   H309 1875   5.944   4.628   5.773 -0.0197 -1.1193  0.6697
    4MOL   H310 1876   6.471   4.691   5.574 -2.2681 -0.5689  2.0588
    4MOL   H311 1877   6.622   4.545   5.441  0.4007  1.6608  2.4827
    4MOL   H312 1878   6.546   4.316   5.369 -1.2528 -0.6543 -0.8438
    4MOL   H313 1879   6.317   4.235   5.438 -0.0245  0.0663  1.8667
    4MOL   C314 1880   6.296   4.809   5.771 -0.0991 -0.3978  0.1516
    4MOL   C315 1881   6.248   4.932   5.860  0.2276  0.0975  0.2208
    4MOL   N316 1882   6.123   4.911   5.930  0.2615  0.5960 -0.4935
    4MOL   C317 1883   6.001   4.979   5.918  0.6559 -0.2783  0.1657
    4MOL   C318 1884   5.902   4.920   6.001 -0.1819  0.0020  0.4693
    4MOL   C319 1885   5.769   4.975   5.996  0.3989  0.3054  0.1455
    4MOL   C320 1886   5.743   5.083   5.913 -0.6138 -0.4702  0.3810
    4MOL   C321 1887   5.846   5.145   5.836  0.1057  0.3773  0.3780
    4MOL   C322 1888   5.970   5.084   5.835  0.5815 -0.3258 -0.2071
    4MOL   C323 1889   5.963   4.808   6.070  0.1639  0.0582 -0.4676
    4MOL   C324 1890   6.098   4.808   6.026  0.1493 -0.0486  0.0799
    4MOL   C325 1891   6.188   4.708   6.070  0.3222  0.7164 -0.4619
    4MOL   C326 1892   6.143   4.606   6.162 -0.2584 -1.1039 -0.6533
    4MOL   C327 1893   6.010   4.611   6.211 -0.3192  0.3090  0.3526
    4MOL   C328 1894   5.921   4.705   6.157 -0.2703 -0.4640  0.0012
    4MOL   H329 1895   6.314   4.722   5.834 -1.5772 -2.0324 -1.6224
    4MOL   H330 1896   6.386   4.830   5.713  1.1389 -2.2274  1.3654
    4MOL   H331 1897   6.234   5.011   5.787 -1.1207 -1.0755 -0.8050
    4MOL   H332 1898   5.693   4.946   6.067 -0.7581  0.8744 -0.8472
    4MOL   H333 1899   5.645   5.128   5.900 -0.5300 -0.7569 -1.2934
    4MOL   H334 1900   5.828   5.230   5.772 -0.7422 -2.2107 -2.9785
    4MOL   H335 1901   6.041   5.123   5.764 -0.5771  1.3962 -0.4756
    4MOL   H336 1902   6.293   4.710   6.044  0.2603 -1.7725 -1.0283
    4MOL   H337 1903   6.210   4.531   6.201 -0.0207 -0.9389 -0.7444
    4MOL   H338 1904   5.967   4.534   6.274 -1.6029  0.2326 -0.5955
    4MOL   H339 1905   5.821   4.703   6.197  0.2116 -0.4800  1.2256
    4MOL   C340 1906   6.363   4.975   5.955  0.2289 -0.0406  0.3664
    4MOL   C341 1907   6.484   5.044   5.881 -0.1490 -0.1358  0.3897
    4MOL   N342 1908   6.450   5.173   5.821  0.1916  0.3408  0.0444
    4MOL   C343 1909   6.432   5.209   5.691 -0.5437  0.6804  0.0063
    4MOL   C344 1910   6.405   5.348   5.675  0.0235 -0.0429 -0.3076
    4MOL   C345 1911   6.385   5.411   5.547  0.1710 -0.0731 -0.0704
    4MOL   C346 1912   6.396   5.335   5.433  0.4162  0.3559  1.0409
    4MOL   C347 1913   6.417   5.199   5.447  0.3009  0.3628 -0.1410
    4MOL   C348 1914   6.429   5.135   5.566 -0.0955  0.0802  0.6630
    4MOL   C349 1915   6.403   5.400   5.807 -0.3199  0.8589 -0.5700
    4MOL   C350 1916   6.422   5.291   5.896  0.1062 -0.0219  0.3447
    4MOL   C351 1917   6.414   5.313   6.035 -0.5169 -0.4504 -0.0621
    4MOL   C352 1918   6.388   5.434   6.088  0.1793 -0.5969  0.1626
    4MOL   C353 1919   6.369   5.551   6.006 -0.7371 -0.3935  0.7400
    4MOL   C354 1920   6.380   5.528   5.867 -0.2626  0.5222 -0.5319
    4MOL   H355 1921   6.321   5.033   6.036  1.3666  1.6550 -0.2344
    4MOL   H356 1922   6.410   4.885   5.995 -0.5972 -0.0054  1.4114
    4MOL   H357 1923   6.512   4.982   5.795  1.7687  0.4324  0.5700
    4MOL   H358 1924   6.354   5.514   5.538 -1.2381 -0.4764  0.1037
    4MOL   H359 1925   6.383   5.376   5.334  2.0227 -2.9493 -0.6146
    4MOL   H360 1926   6.407   5.131   5.364 -0.9324 -1.2726  1.3237
    4MOL   H361 1927   6.449   5.029   5.564 -1.2359 -0.1277 -0.5850
    4MOL   H362 1928   6.416   5.237   6.112 -1.0408 -0.8081 -0.3995
    4MOL   H363 1929   6.377   5.456   6.193 -1.3205 -0.9607  0.0872
    4MOL   H364 1930   6.343   5.650   6.040  0.1744 -0.2758  1.1068
    4MOL   H365 1931   6.364   5.602   5.790  1.9865  1.7803  0.1977
    4MOL   C366 1932   6.612   5.052   5.967  0.8253  0.5499  0.1119
    4MOL   C367 1933   6.669   4.914   6.012  0.2592 -0.2274  0.7667
    4MOL   N368 1934   6.698   4.822   5.904  0.3710  0.0463 -0.1400
    4MOL   C369 1935   6.642   4.690   5.895 -0.1933 -0.1172 -0.8618
    4MOL   C370 1936   6.695   4.626   5.780 -0.4125  0.3006  0.5795
    4MOL   C371 1937   6.662   4.493   5.750 -0.5413 -0.4004 -0.7964
    4MOL   C372 1938   6.579   4.419   5.837 -0.6758  0.2818  0.3197
    4MOL   C373 1939   6.511   4.483   5.945 -0.5322  0.0164 -0.3678
    4MOL   C374 1940   6.554   4.614   5.977 -0.3238 -0.4623  0.4141
    4MOL   C375 1941   6.774   4.718   5.713  0.2809  0.1721 -0.1927
    4MOL   C376 1942   6.772   4.840   5.792  0.1047 -0.7978  0.3599
    4MOL   C377 1943   6.839   4.954   5.748 -0.5711  0.6127 -0.3074
    4MOL   C378 1944   6.926   4.948   5.636  0.2511 -0.5635 -0.1248
    4MOL   C379 1945   6.934   4.829   5.566 -0.1716 -0.3603  0.8401
    4MOL   C380 1946   6.859   4.715   5.602 -0.5159 -0.3254 -0.0083
    4MOL   H381 1947   6.686   5.116   5.919  1.3379 -0.1582 -0.0356
    4MOL   H382 1948   6.576   5.100   6.058  1.5354 -1.6510  1.5892
    4MOL   H383 1949   6.596   4.874   6.083  0.9459 -1.1802  0.9454
    4MOL   H384 1950   6.715   4.450   5.666 -0.6515 -0.4290 -0.8515
    4MOL   H385 1951   6.551   4.316   5.825 -0.6335  0.4215 -1.0787
    4MOL   H386 1952   6.453   4.423   6.013 -1.9358  1.7897  0.0482
    4MOL   H387 1953   6.525   4.653   6.074 -2.4395  0.8311 -0.7016
    4MOL   H388 1954   6.850   5.037   5.816 -0.8308 -0.2162  0.7514
    4MOL   H389 1955   6.978   5.040   5.612  1.2865 -0.9583  0.5882
    4MOL   H390 1956   6.996   4.824   5.477 -0.5655  2.2861  0.3527
    4MOL   H391 1957   6.876   4.630   5.539 -0.3264  0.8880 -1.6302
    4MOL   C392 1958   6.790   4.927   6.107  0.4698 -0.8731 -0.3211
    4MOL   C393 1959   6.766   5.004   6.236 -1.4299 -0.4750 -0.4509
    4MOL   N394 1960   6.639   4.977   6.319 -0.4771  0.0834  0.4661
    4MOL   C395 1961   6.555   5.075   6.377 -0.2645 -0.4040  0.3260
    4MOL   C396 1962   6.436   5.006   6.421  0.1448  0.1483  0.1356
    4MOL   C397 1963   6.337   5.085   6.477 -0.6745 -0.1230 -0.5083
    4MOL   C398 1964   6.348   5.226   6.476  0.1052 -0.6224  0.1626
    4MOL   C399 1965   6.464   5.298   6.436  0.6860  0.7673 -0.3375
    4MOL   C400 1966   6.571   5.219   6.382 -0.0147 -1.0342 -0.4427
    4MOL   C401 1967   6.452   4.865   6.395  0.0446  0.4121  0.3304
    4MOL   C402 1968   6.588   4.849   6.352 -0.0661 -0.5720 -0.6581
    4MOL   C403 1969   6.643   4.722   6.334  0.0670  0.7134 -0.1170
    4MOL   C404 1970   6.569   4.606   6.359 -0.6440  0.4779 -0.4169
    4MOL   C405 1971   6.435   4.620   6.403  0.3485  0.3816 -0.3168
    4MOL   C406 1972   6.380   4.747   6.426  0.6123  0.3755  0.0957
    4MOL   H407 1973   6.822   4.827   6.137  1.2826 -0.7458 -0.7232
    4MOL   H408 1974   6.866   4.977   6.046  1.7733 -1.1180  1.0691
    4MOL   H409 1975   6.749   5.101   6.190 -0.4295  0.6247  1.4758
    4MOL   H410 1976   6.253   5.040   6.528  0.7548 -1.3643  0.7869
    4MOL   H411 1977   6.264   5.281   6.518 -0.3885 -0.6767 -0.7305
    4MOL   H412 1978   6.463   5.406   6.439 -0.6055  0.7266  1.5394
    4MOL   H413 1979   6.662   5.269   6.353 -1.5511  3.8588  2.5695
    4MOL   H414 1980   6.744   4.709   6.297 -0.5383  1.6706 -2.1666
    4MOL   H415 1981   6.616   4.510   6.345  2.1786  1.7048  0.2205
    4MOL   H416 1982   6.377   4.533   6.429  1.4624 -0.6652 -1.2337
    4MOL   H417 1983   6.286   4.755   6.479 -0.0159 -1.6696 -0.6744
    4MOL   C418 1984   6.888   5.014   6.334 -0.2347 -0.5461 -0.1877
    4MOL   C419 1985   7.009   5.087   6.269  0.0327  0.0377 -0.2338
    4MOL   N420 1986   6.976   5.231   6.256  0.3137  0.3587  0.6020
    4MOL   C421 1987   6.943   5.287   6.132 -0.2311 -0.2766 -0.2964
    4MOL   C422 1988   6.894   5.416   6.147 -0.0824  0.5174  0.6660
    4MOL   C423 1989   6.847   5.488   6.033 -0.9251  0.5080 -0.5195
    4MOL   C424 1990   6.849   5.429   5.906  0.6283 -0.6508  0.2247
    4MOL   C425 1991   6.908   5.300   5.888 -0.6060 -0.3339 -0.2135
    4MOL   C426 1992   6.952   5.225   6.003  0.0008  0.5399  0.9948
    4MOL   C427 1993   6.907   5.448   6.288  0.3372 -0.3781 -0.3817
    4MOL   C428 1994   6.954   5.331   6.351  0.2497 -0.5786 -0.6898
    4MOL   C429 1995   6.977   5.327   6.491 -0.4003 -0.2221  0.3294
    4MOL   C430 1996   6.949   5.444   6.571  0.4962 -0.4357  0.5898
    4MOL   C431 1997   6.905   5.560   6.509 -0.3007  0.3170 -0.6844
    4MOL   C432 1998   6.876   5.561   6.368  0.4061  0.1044 -0.2427
    4MOL   H433 1999   6.863   5.062   6.428 -0.9166  0.2329 -0.7559
    4MOL   H434 2000   6.895   4.912   6.371  2.1271  0.3845  2.0372
    4MOL   H435 2001   7.026   5.046   6.169  0.9397 -0.4992  0.1385
    4MOL   H436 2002   6.803   5.587   6.032  0.2253  1.0322 -0.2937
    4MOL   H437 2003   6.804   5.475   5.820 -1.8145 -0.5061  1.5142
    4MOL   H438 2004   6.909   5.246   5.795 -0.2415  1.7812 -1.4722
    4MOL   H439 2005   7.005   5.134   5.980 -1.8483  0.4793 -3.5676
    4MOL   H440 2006   7.022   5.239   6.534 -0.0781 -0.3211 -0.2051
    4MOL   H441 2007   6.964   5.446   6.678 -1.6078  0.0627  0.8983
    4MOL   H442 2008   6.885   5.651   6.565 -0.2040  0.0365 -0.1942
    4MOL   H443 2009   6.825   5.647   6.326 -1.6939 -1.7534 -1.6000
    4MOL   C444 2010   7.141   5.056   6.344 -0.3894  0.5922  0.1755
    4MOL   C445 2011   7.179   4.906   6.343  0.1867 -0.1948 -0.1030
    4MOL   N446 2012   7.157   4.842   6.214  0.4357 -0.5448 -0.0148
    4MOL   C447 2013   7.081   4.725   6.193  0.4649  0.2187 -0.6322
    4MOL   C448 2014   7.062   4.709   6.052 -0.1876  0.2561 -0.5622
    4MOL   C449 2015   6.986   4.597   6.003  0.3442 -0.0130  0.4453
    4MOL   C450 2016   6.929   4.508   6.097 -0.0423  0.0105  0.1870
    4MOL   C451 2017   6.936   4.531   6.236  0.3223 -0.5756  0.3343
    4MOL   C452 2018   7.008   4.643   6.284 -0.1290 -0.4572 -0.0288
    4MOL   C453 2019   7.138   4.801   5.989  0.5514 -0.0993  0.0106
    4MOL   C454 2020   7.203   4.885   6.090  0.8664 -0.5115 -0.3547
    4MOL   C455 2021   7.284   4.995   6.062  0.3848  0.5741 -0.3492
    4MOL   C456 2022   7.307   5.033   5.935 -0.1186 -0.3270  1.0222
    4MOL   C457 2023   7.243   4.960   5.830  0.1170  0.1955  0.2042
    4MOL   C458 2024   7.160   4.843   5.853 -0.5418  0.6904 -0.1873
    4MOL   H459 2025   7.210   5.122   6.291 -0.6951  0.3899 -0.4836
    4MOL   H460 2026   7.131   5.086   6.448 -2.0522 -0.4681  0.3449
    4MOL   H461 2027   7.117   4.851   6.413  0.1154 -0.3828 -0.3094
    4MOL   H462 2028   6.978   4.585   5.896  0.5375 -2.3954  0.6741
    4MOL   H463 2029   6.871   4.426   6.059  0.5989 -0.1184 -0.5324
    4MOL   H464 2030   6.885   4.473   6.312 -1.0189  1.4756  1.0233
    4MOL   H465 2031   7.021   4.657   6.390 -2.6631 -1.6616  0.4680
    4MOL   H466 2032   7.336   5.046   6.142 -0.1956 -0.8844  0.9803
    4MOL   H467 2033   7.374   5.113   5.908 -1.0449  0.0905 -0.0956
    4MOL   H468 2034   7.270   4.995   5.732  2.0185 -1.2486  0.1763
    4MOL   H469 2035   7.118   4.790   5.768  1.6543 -2.4013  0.5578
    4MOL   C470 2036   7.318   4.880   6.388  0.5855 -0.0176  0.2428
    4MOL   C471 2037   7.350   4.910   6.540 -0.5955  0.4732  0.2594
    4MOL   N472 2038   7.236   4.897   6.629 -0.0442  0.1841 -0.1872
    4MOL   C473 2039   7.181   4.998   6.702  1.2546 -0.7646  0.3112
    4MOL   C474 2040   7.071   4.943   6.776 -0.2656  0.3889  1.3353
    4MOL   C475 2041   6.988   5.035   6.837 -0.3353 -0.1153  0.0353
    4MOL   C476 2042   7.029   5.167   6.853  0.5944 -0.7289 -0.4379
    4MOL   C477 2043   7.133   5.223   6.780  0.1667 -0.2446  0.0273
    4MOL   C478 2044   7.213   5.139   6.706 -0.1144  0.1784 -0.3095
    4MOL   C479 2045   7.059   4.807   6.740 -0.3319 -0.3095  0.6951
    4MOL   C480 2046   7.163   4.780   6.646 -0.2772  0.6494 -0.0619
    4MOL   C481 2047   7.179   4.657   6.592 -0.2126 -0.0736  1.3823
    4MOL   C482 2048   7.104   4.548   6.642  0.1274  0.3113  0.0910
    4MOL   C483 2049   7.000   4.565   6.736 -0.3261 -0.1884 -0.6120
    4MOL   C484 2050   6.974   4.697   6.778  0.1611 -0.9470 -0.0045
    4MOL   H485 2051   7.353   4.779   6.366 -0.0831 -0.2376  0.1833
    4MOL   H486 2052   7.384   4.939   6.325 -0.3821 -0.3514 -1.1046
    4MOL   H487 2053   7.371   5.017   6.542 -1.6530  0.6751  1.3570
    4MOL   H488 2054   6.894   5.010   6.883  0.1416  0.1232  1.1413
    4MOL   H489 2055   6.960   5.236   6.899  0.6418 -1.5578  0.9023
    4MOL   H490 2056   7.153   5.329   6.783  2.3466 -0.5641 -1.5502
    4MOL   H491 2057   7.286   5.180   6.638  1.7884 -1.0285  0.9621
    4MOL   H492 2058   7.255   4.639   6.517  1.2299  3.1966  1.9974
    4MOL   H493 2059   7.123   4.447   6.607  0.6338  0.9526 -1.5432
    4MOL   H494 2060   6.953   4.474   6.770  0.5675 -0.1521  0.7359
    4MOL   H495 2061   6.897   4.708   6.853  2.6540 -1.8930  2.7935
    4MOL   C496 2062   7.473   4.837   6.588 -0.0466 -0.1455  0.1172
    4MOL   C497 2063   7.498   4.846   6.735 -0.4301  0.2277 -0.0167
    4MOL   N498 2064   7.630   4.820   6.770  0.0369 -0.2131  0.6857
    4MOL   C499 2065   7.696   4.698   6.801 -0.0648  0.2482 -0.5070
    4MOL   C500 2066   7.826   4.718   6.851 -0.1223  0.3646  0.5029
    4MOL   C501 2067   7.905   4.609   6.901 -0.6225 -0.9477 -0.3849
    4MOL   C502 2068   7.853   4.480   6.888 -0.1564 -0.4868  0.6115
    4MOL   C503 2069   7.729   4.461   6.830  0.2536  0.1828 -0.3870
    4MOL   C504 2070   7.650   4.566   6.791 -0.0959  0.6038  0.0057
    4MOL   C505 2071   7.849   4.854   6.828  0.0930 -0.1037 -0.4681
    4MOL   C506 2072   7.725   4.917   6.794 -0.6921 -0.0097 -0.1081
    4MOL   C507 2073   7.719   5.057   6.783 -0.7596  0.3334 -0.0962
    4MOL   C508 2074   7.833   5.139   6.798  0.5034  0.2162 -0.2858
    4MOL   C509 2075   7.959   5.074   6.822  0.0283 -0.7166 -0.3798
    4MOL   C510 2076   7.965   4.936   6.839  0.3236 -0.1033 -0.0347
    4MOL   H511 2077   7.465   4.730   6.570 -0.6330 -0.1805  0.5653
    4MOL   H512 2078   7.562   4.875   6.537 -1.5346  2.3646 -0.6771
    4MOL   H513 2079   7.445   4.765   6.787 -0.8753  0.9734  0.7115
    4MOL   H514 2080   8.007   4.634   6.921 -0.1001 -2.7660 -0.6624
    4MOL   H515 2081   7.920   4.399   6.913  0.7748  0.1424  0.2006
    4MOL   H516 2082   7.695   4.360   6.816 -1.3721  0.7893 -0.8954
    4MOL   H517 2083   7.553   4.557   6.745  0.2706 -0.1571 -0.6097
    4MOL   H518 2084   7.624   5.106   6.765 -1.2756 -0.9925 -1.1149
    4MOL   H519 2085   7.816   5.245   6.792 -0.7665 -0.0961 -2.9128
    4MOL   H520 2086   8.039   5.144   6.839  0.5980 -1.3970 -0.2548
    4MOL   H521 2087   8.062   4.891   6.851  1.1999  0.9707 -2.7150
    4MOL   H522 2088   7.463   4.944   6.767  0.4151  0.7398 -0.6471
    5MOL     C1 2089   4.907   4.216   2.975  0.1508  0.4350 -1.0658
    5MOL     C2 2090   4.951   4.079   3.044 -0.2853 -0.2707  0.3740
    5MOL     N3 2091   5.035   3.996   2.963 -0.0884 -0.2760  0.4865
    5MOL     C4 2092   5.004   3.871   2.902  0.1815 -0.2864 -0.8111
    5MOL     C5 2093   5.118   3.823   2.832  0.1968  0.1341 -0.1635
    5MOL     C6 2094   5.108   3.696   2.764 -0.3924 -0.3545 -0.2710
    5MOL     C7 2095   4.991   3.621   2.770 -0.4005 -0.9607  0.8133
    5MOL     C8 2096   4.883   3.667   2.841  0.3758 -0.0043 -1.2133
    5MOL     C9 2097   4.886   3.789   2.902  0.3098  0.0029  0.4377
    5MOL    C10 2098   5.219   3.921   2.842  0.3576 -0.0773 -0.0977
    5MOL    C11 2099   5.164   4.028   2.916 -0.6768 -0.7199  0.1670
    5MOL    C12 2100   5.241   4.150   2.931 -0.4802 -0.1455  0.0843
    5MOL    C13 2101   5.372   4.161   2.884 -0.0157 -0.2985 -1.2139
    5MOL    C14 2102   5.425   4.052   2.814 -0.2762 -0.0568 -0.3255
    5MOL    C15 2103   5.352   3.934   2.791  0.0781 -0.7420  0.4297
    5MOL    H16 2104   4.998   4.275   2.961  1.9477 -2.5825 -2.6877
    5MOL    H17 2105   4.837   4.275   3.033 -0.5420 -1.2131 -0.1904
    5MOL    H18 2106   4.861   4.022   3.066  0.8297 -1.9257  0.7760
    5MOL    H19 2107   5.196   3.666   2.709 -1.0322 -0.9332 -1.0056
    5MOL    H20 2108   4.998   3.523   2.725 -0.2956 -1.0337  0.9847
    5MOL    H21 2109   4.792   3.611   2.857  0.9827 -0.4003  0.9882
    5MOL    H22 2110   4.794   3.815   2.953  0.3656  0.4962  0.2779
    5MOL    H23 2111   5.186   4.228   2.982  0.4910  0.2114  0.6184
    5MOL    H24 2112   5.418   4.259   2.881 -2.2146  0.8719  1.3094
    5MOL    H25 2113   5.529   4.061   2.785  0.3226 -2.0364  1.0943
    5MOL    H26 2114   5.385   3.845   2.739 -2.3873 -1.5426  0.1870
    5MOL    H27 2115   4.860   4.202   2.878 -0.1123  3.3973 -1.4119
    5MOL    C28 2116   5.014   4.113   3.177  0.9110 -0.5131  0.4798
    5MOL    C29 2117   5.090   3.998   3.251  0.6415  0.2599 -0.0011
    5MOL    N30 2118   5.151   4.040   3.378  0.0333  0.0328  0.2574
    5MOL    C31 2119   5.288   4.033   3.403  1.1668 -0.1577  0.7478
    5MOL    C32 2120   5.311   4.070   3.541  0.0098  0.2817  0.8963
    5MOL    C33 2121   5.439   4.049   3.595  0.2498  0.0732  0.2690
    5MOL    C34 2122   5.538   3.988   3.519  0.1674  0.2629  0.3619
    5MOL    C35 2123   5.528   3.985   3.374 -0.4916  0.4494  0.2961
    5MOL    C36 2124   5.397   3.994   3.315 -0.0441 -0.3417  0.2595
    5MOL    C37 2125   5.185   4.112   3.592  0.5218 -0.8224 -0.8102
    5MOL    C38 2126   5.085   4.085   3.495  0.2037 -0.7065  0.0880
    5MOL    C39 2127   4.948   4.094   3.524  0.3953 -1.0867  0.6104
    5MOL    C40 2128   4.903   4.139   3.650  0.3020 -0.0112  0.6589
    5MOL    C41 2129   4.998   4.168   3.745  0.8719 -0.2994  0.4124
    5MOL    C42 2130   5.140   4.160   3.719 -0.5701 -0.0621 -0.0081
    5MOL    H43 2131   5.079   4.199   3.168  1.1800 -0.6182  1.3779
    5MOL    H44 2132   4.931   4.148   3.238  0.2013  2.2186 -1.9454
    5MOL    H45 2133   5.161   3.975   3.172  0.6120  1.6932 -0.4639
    5MOL    H46 2134   5.461   4.069   3.698  2.7824 -2.5674  0.2914
    5MOL    H47 2135   5.637   3.965   3.555 -1.0874 -3.3397  1.7170
    5MOL    H48 2136   5.606   3.939   3.314 -0.1674 -0.3755  1.3306
    5MOL    H49 2137   5.382   3.964   3.212 -0.1224  0.6468 -0.0237
    5MOL    H50 2138   4.878   4.073   3.445 -0.4030  0.2698  0.9379
    5MOL    H51 2139   4.797   4.150   3.669 -0.7965 -0.9039 -4.2108
    5MOL    H52 2140   4.961   4.196   3.843  0.4781  0.5245  0.0380
    5MOL    H53 2141   5.213   4.188   3.793  0.0846 -0.4243 -0.5137
    5MOL    C54 2142   5.011   3.867   3.280 -0.1754  0.6779 -0.0150
    5MOL    C55 2143   5.076   3.751   3.357 -0.4334 -0.2782 -0.3132
    5MOL    N56 2144   4.980   3.662   3.410 -0.0935 -0.0860  0.3307
    5MOL    C57 2145   4.959   3.640   3.544  0.3173  0.0115 -0.0629
    5MOL    C58 2146   4.871   3.528   3.566 -0.2699  0.3987  0.1727
    5MOL    C59 2147   4.845   3.486   3.701 -0.2219  0.2275 -0.0992
    5MOL    C60 2148   4.910   3.553   3.806 -0.5809  0.6602  0.6997
    5MOL    C61 2149   4.985   3.671   3.789  0.1258  0.2736  0.0109
    5MOL    C62 2150   5.005   3.710   3.655 -0.2416  0.3662  0.3623
    5MOL    C63 2151   4.836   3.478   3.432  0.1589 -0.2074 -0.8446
    5MOL    C64 2152   4.907   3.566   3.340  0.6631  0.7043 -0.0353
    5MOL    C65 2153   4.890   3.545   3.204 -1.3677 -0.3331 -0.0881
    5MOL    C66 2154   4.838   3.425   3.158  0.5873  0.5382 -0.3961
    5MOL    C67 2155   4.774   3.340   3.250 -0.1302  1.0605 -0.3364
    5MOL    C68 2156   4.770   3.362   3.388  0.0683 -0.2045  0.2341
    5MOL    H69 2157   4.928   3.894   3.346  0.6396 -1.2066  1.8275
    5MOL    H70 2158   4.982   3.829   3.183 -2.2602  1.4605  0.2747
    5MOL    H71 2159   5.126   3.805   3.438 -3.2382  2.2828 -0.1972
    5MOL    H72 2160   4.777   3.405   3.721 -1.1274  0.7294 -1.1125
    5MOL    H73 2161   4.902   3.517   3.908  0.3897  1.3848  1.0499
    5MOL    H74 2162   5.033   3.730   3.866 -0.2103 -0.3096  0.6772
    5MOL    H75 2163   5.074   3.793   3.643 -1.8442  1.3693 -2.2593
    5MOL    H76 2164   4.943   3.607   3.133 -3.3760  1.1129 -0.3654
    5MOL    H77 2165   4.859   3.392   3.057  0.4033 -1.5322  0.2351
    5MOL    H78 2166   4.721   3.249   3.226 -0.3290 -0.2778  4.6339
    5MOL    H79 2167   4.724   3.283   3.446 -1.0595  1.0685  1.1113
    5MOL    C80 2168   5.190   3.685   3.280  0.3693 -0.3069  0.4937
    5MOL    C81 2169   5.249   3.563   3.346  0.3062  0.1014  0.1877
    5MOL    N82 2170   5.332   3.487   3.251  0.2400 -0.6984  0.0027
    5MOL    C83 2171   5.298   3.365   3.190 -0.1699 -1.4906  0.0983
    5MOL    C84 2172   5.410   3.308   3.124 -0.0566  0.3936 -0.7775
    5MOL    C85 2173   5.398   3.177   3.069  0.6990 -0.5677 -0.8943
    5MOL    C86 2174   5.278   3.105   3.073  0.6962 -0.3769  0.1904
    5MOL    C87 2175   5.168   3.159   3.141  0.1275 -0.0549  0.8114
    5MOL    C88 2176   5.179   3.292   3.193  0.1014 -0.0988 -0.2958
    5MOL    C89 2177   5.514   3.406   3.135 -0.1820 -0.4644  0.3667
    5MOL    C90 2178   5.461   3.517   3.205  0.1391 -0.5645  0.1877
    5MOL    C91 2179   5.532   3.635   3.206 -0.4309 -0.3558  0.0468
    5MOL    C92 2180   5.666   3.649   3.152  0.1142  0.7819  0.0092
    5MOL    C93 2181   5.728   3.533   3.103  0.1798  0.2049  0.3575
    5MOL    C94 2182   5.650   3.416   3.099  0.1184  0.1918 -0.1830
    5MOL    H95 2183   5.140   3.649   3.190 -1.7664  0.8938  1.1833
    5MOL    H96 2184   5.263   3.759   3.247 -1.0807 -0.0972 -2.3177
    5MOL    H97 2185   5.171   3.492   3.373  0.2662 -0.9758 -2.6692
    5MOL    H98 2186   5.481   3.139   3.010 -0.0614 -1.1522 -1.5984
    5MOL    H99 2187   5.273   3.024   3.002 -0.4685  0.3694 -0.5980
    5MOL   H100 2188   5.072   3.108   3.136  0.4665 -0.5849 -0.6076
    5MOL   H101 2189   5.092   3.330   3.243  0.3804 -0.0481  0.1497
    5MOL   H102 2190   5.493   3.722   3.257  2.4977  0.9136  0.2268
    5MOL   H103 2191   5.724   3.740   3.159  1.0861  0.1504  0.2996
    5MOL   H104 2192   5.831   3.535   3.069 -0.3596  1.1681 -1.2562
    5MOL   H105 2193   5.688   3.323   3.061 -1.9826 -0.5366 -0.5841
    5MOL   C106 2194   5.320   3.587   3.480  0.2363 -0.1246  0.0106
    5MOL   C107 2195   5.338   3.451   3.550  0.2183  0.3010  0.1320
    5MOL   N108 2196   5.442   3.471   3.644  0.3172 -0.3463 -0.1936
    5MOL   C109 2197   5.570   3.413   3.633  0.1051  0.0927  0.3254
    5MOL   C110 2198   5.633   3.421   3.753  0.0636  0.3559  0.1241
    5MOL   C111 2199   5.754   3.354   3.775  0.7249 -0.2463  0.0746
    5MOL   C112 2200   5.828   3.294   3.675 -0.1017  0.7874  0.6908
    5MOL   C113 2201   5.767   3.293   3.545  0.2002 -0.3042 -0.2616
    5MOL   C114 2202   5.640   3.344   3.527 -0.3390  0.0164 -0.4384
    5MOL   C115 2203   5.551   3.496   3.842 -0.5371  0.1535 -0.2422
    5MOL   C116 2204   5.437   3.530   3.772  0.2560 -1.3036  0.0097
    5MOL   C117 2205   5.347   3.614   3.832 -0.2395 -0.5684 -0.6768
    5MOL   C118 2206   5.364   3.658   3.961  0.5190 -0.0333  0.0301
    5MOL   C119 2207   5.473   3.618   4.039  0.3572 -0.2787  0.0571
    5MOL   C120 2208   5.564   3.534   3.976  0.4628  0.0291 -0.2830
    5MOL   H121 2209   5.410   3.640   3.452 -0.2472  0.9335  0.4298
    5MOL   H122 2210   5.260   3.655   3.541 -1.2837 -2.2602  0.9838
    5MOL   H123 2211   5.388   3.390   3.474 -2.1726 -1.9949  0.2983
    5MOL   H124 2212   5.805   3.357   3.870 -0.9182 -0.5841  0.9965
    5MOL   H125 2213   5.920   3.243   3.699 -0.9632 -1.0527  0.1294
    5MOL   H126 2214   5.816   3.239   3.464  1.1216 -1.1924  0.8702
    5MOL   H127 2215   5.598   3.340   3.428 -0.3013 -1.3526 -0.4033
    5MOL   H128 2216   5.257   3.641   3.780  0.0819 -1.7547 -1.8799
    5MOL   H129 2217   5.292   3.723   4.010  1.2302  0.8268 -0.0483
    5MOL   H130 2218   5.479   3.640   4.145 -1.9065  1.3820 -0.1328
    5MOL   H131 2219   5.651   3.501   4.031  0.8937  0.6100 -0.6064
    5MOL   C132 2220   5.209   3.384   3.609 -0.4299 -0.4802 -0.2252
    5MOL   C133 2221   5.246   3.254   3.688 -0.5072 -0.2579 -0.2688
    5MOL   N134 2222   5.135   3.219   3.782  0.4820  0.2829  0.4356
    5MOL   C135 2223   5.141   3.229   3.920  0.2444  0.1618  0.7199
    5MOL   C136 2224   5.018   3.184   3.975  0.5413 -1.1842  0.1376
    5MOL   C137 2225   4.993   3.194   4.116 -0.2701 -0.4681 -0.3200
    5MOL   C138 2226   5.093   3.253   4.199  0.2688  0.4451  0.0483
    5MOL   C139 2227   5.216   3.294   4.144  0.3267  0.2404  0.0924
    5MOL   C140 2228   5.243   3.279   4.006 -0.2159  0.2929  0.4325
    5MOL   C141 2229   4.930   3.140   3.867 -0.3182  0.0136  0.1964
    5MOL   C142 2230   5.007   3.167   3.749  0.2262 -0.4454  0.1225
    5MOL   C143 2231   4.950   3.135   3.627  0.1533 -0.2678  0.4595
    5MOL   C144 2232   4.819   3.084   3.615  0.1829  0.0791 -0.5414
    5MOL   C145 2233   4.745   3.058   3.730  0.1928  0.1519 -0.4961
    5MOL   C146 2234   4.797   3.097   3.854 -0.0285  0.3319  0.1350
    5MOL   H147 2235   5.162   3.447   3.683 -0.6799 -0.2821 -0.5514
    5MOL   H148 2236   5.142   3.359   3.527 -0.0448 -0.8859 -0.4261
    5MOL   H149 2237   5.327   3.288   3.753 -1.1576  0.4924  0.1468
    5MOL   H150 2238   4.901   3.149   4.148  0.0627 -1.6581 -0.9914
    5MOL   H151 2239   5.073   3.278   4.302  1.9729  3.0434 -0.1996
    5MOL   H152 2240   5.295   3.339   4.202  0.7416 -2.4418  1.7107
    5MOL   H153 2241   5.337   3.318   3.971  1.0220 -1.4347  1.7346
    5MOL   H154 2242   5.004   3.161   3.538 -0.8160 -1.1563 -0.4019
    5MOL   H155 2243   4.774   3.062   3.520 -3.1200  1.5666  0.5945
    5MOL   H156 2244   4.644   3.022   3.712  0.6453 -0.8663 -1.0313
    5MOL   H157 2245   4.738   3.097   3.945  0.8607  0.0634  0.7132
    5MOL   C158 2246   5.295   3.133   3.607 -0.5680 -0.4060 -0.0433
    5MOL   C159 2247   5.349   3.010   3.676 -0.1737  0.0092  0.5834
    5MOL   N160 2248   5.358   2.902   3.578  0.2091  0.2575 -0.0896
    5MOL   C161 2249   5.268   2.794   3.580  0.1948  0.3578 -0.3557
    5MOL   C162 2250   5.308   2.703   3.479 -0.0083  0.2955 -0.0970
    5MOL   C163 2251   5.232   2.577   3.473 -0.2656  0.0598  0.9954
    5MOL   C164 2252   5.139   2.546   3.571 -0.0594  0.1504 -0.0423
    5MOL   C165 2253   5.096   2.638   3.670 -0.3882 -0.4988  0.1674
    5MOL   C166 2254   5.161   2.763   3.672 -0.1702 -0.1309  0.1703
    5MOL   C167 2255   5.412   2.765   3.394  0.1437 -0.1749  0.6159
    5MOL   C168 2256   5.432   2.892   3.458  0.5018  0.3817 -0.6022
    5MOL   C169 2257   5.526   2.987   3.401 -0.0495 -0.7632  0.3912
    5MOL   C170 2258   5.589   2.965   3.280 -0.1412  0.5881  0.0532
    5MOL   C171 2259   5.570   2.841   3.221 -0.3603  0.2856 -0.0803
    5MOL   C172 2260   5.484   2.736   3.278  0.7170 -0.2310  0.8483
    5MOL   H173 2261   5.217   3.093   3.542 -1.7336 -0.3406  1.2854
    5MOL   H174 2262   5.368   3.173   3.536 -0.1224  0.6796  1.0074
    5MOL   H175 2263   5.275   2.982   3.751 -2.6725 -2.5948 -2.6988
    5MOL   H176 2264   5.265   2.509   3.396 -2.5908 -0.7908  0.7202
    5MOL   H177 2265   5.091   2.449   3.573 -1.1349  0.6783 -0.1626
    5MOL   H178 2266   5.011   2.625   3.736 -0.1601 -0.0554  0.5512
    5MOL   H179 2267   5.136   2.831   3.753  0.1766  1.2122 -0.8352
    5MOL   H180 2268   5.562   3.067   3.463  0.9803  1.0655 -2.4470
    5MOL   H181 2269   5.655   3.040   3.238  0.3193 -0.5013 -1.1936
    5MOL   H182 2270   5.626   2.805   3.136  1.2090  0.8775  0.6801
    5MOL   H183 2271   5.473   2.643   3.225  0.2965  2.0652 -3.3039
    5MOL   C184 2272   5.485   3.043   3.750 -0.5189 -0.7741 -0.2184
    5MOL   C185 2273   5.578   2.926   3.773  0.5014 -0.4232 -0.0757
    5MOL   N186 2274   5.704   2.965   3.819  0.1267 -0.0224 -0.9212
    5MOL   C187 2275   5.825   2.945   3.756 -0.0602 -0.0883 -0.5083
    5MOL   C188 2276   5.927   2.992   3.844  0.4821 -0.0897  0.8094
    5MOL   C189 2277   6.062   2.972   3.800  0.4283  0.2638  0.0367
    5MOL   C190 2278   6.093   2.916   3.677  0.0806  0.2352  0.8602
    5MOL   C191 2279   5.994   2.871   3.593 -0.3909  0.4285 -0.1466
    5MOL   C192 2280   5.857   2.883   3.633  0.9092 -1.4312  0.3425
    5MOL   C193 2281   5.864   3.056   3.957 -0.3575 -0.5517  0.1457
    5MOL   C194 2282   5.727   3.035   3.940  0.4720 -0.7148  0.0982
    5MOL   C195 2283   5.638   3.082   4.036  0.2925 -0.2806 -0.1542
    5MOL   C196 2284   5.679   3.157   4.149  0.1068 -0.2291 -0.3031
    5MOL   C197 2285   5.812   3.186   4.161  0.0416 -0.8625 -0.5451
    5MOL   C198 2286   5.904   3.131   4.068 -0.6054  0.0577  0.3118
    5MOL   H199 2287   5.534   3.125   3.697 -0.7990 -1.7611 -2.0472
    5MOL   H200 2288   5.466   3.097   3.843  0.2563 -2.0380  0.6836
    5MOL   H201 2289   5.585   2.889   3.670  1.3888  0.1139 -0.2094
    5MOL   H202 2290   6.134   3.014   3.869  0.5699 -1.3412  0.8841
    5MOL   H203 2291   6.197   2.911   3.648 -0.2699 -1.2453 -0.1997
    5MOL   H204 2292   6.009   2.826   3.496 -1.9841  1.5720 -0.9476
    5MOL   H205 2293   5.785   2.840   3.566 -1.3666  0.3173  1.5880
    5MOL   H206 2294   5.537   3.045   4.044  1.4624 -2.9821  3.3305
    5MOL   H207 2295   5.602   3.185   4.220 -0.0897  0.6492 -0.8454
    5MOL   H208 2296   5.843   3.240   4.249 -0.3146 -0.0417 -0.9217
    5MOL   H209 2297   6.008   3.155   4.083 -0.4504  0.1046 -0.8153
    5MOL   C210 2298   5.528   2.796   3.852  0.0661 -0.3138 -0.1111
    5MOL   C211 2299   5.626   2.672   3.820  0.2213 -0.3522  0.4572
    5MOL   N212 2300   5.600   2.572   3.919 -0.0447 -0.4547  0.3259
    5MOL   C213 2301   5.687   2.538   4.031  0.3400  0.6578  0.2282
    5MOL   C214 2302   5.642   2.413   4.089  0.0176 -0.4047 -0.0873
    5MOL   C215 2303   5.723   2.360   4.194  0.4219  0.0383  0.9288
    5MOL   C216 2304   5.847   2.413   4.231 -0.0352 -0.2119  0.2061
    5MOL   C217 2305   5.893   2.528   4.174 -0.3032 -0.3666  0.1663
    5MOL   C218 2306   5.811   2.594   4.080  0.8437  0.0491  0.2689
    5MOL   C219 2307   5.522   2.381   4.027 -0.2418 -0.2179 -0.3696
    5MOL   C220 2308   5.492   2.485   3.930  0.7048  0.8366 -0.5876
    5MOL   C221 2309   5.374   2.472   3.856 -0.2922  0.0619  0.2676
    5MOL   C222 2310   5.285   2.366   3.877 -0.4845 -0.5753 -0.6316
    5MOL   C223 2311   5.316   2.263   3.965 -0.3223  0.2764 -0.0417
    5MOL   C224 2312   5.427   2.276   4.047 -0.2084  0.2643  0.5830
    5MOL   H225 2313   5.527   2.822   3.958 -0.2979 -0.3908 -0.0972
    5MOL   H226 2314   5.427   2.776   3.819 -0.2574  0.6653  0.2631
    5MOL   H227 2315   5.730   2.702   3.827  0.4169 -1.1538  1.1349
    5MOL   H228 2316   5.698   2.258   4.218  0.1558  0.6562  3.4001
    5MOL   H229 2317   5.918   2.371   4.300  1.2269 -0.3393 -1.1480
    5MOL   H230 2318   5.984   2.577   4.204 -1.3640  2.3434 -0.8552
    5MOL   H231 2319   5.854   2.679   4.029  0.3360  0.2353  0.1509
    5MOL   H232 2320   5.347   2.550   3.787  0.5874  0.8711  0.8181
    5MOL   H233 2321   5.201   2.355   3.810 -1.9336 -1.1678  1.2381
    5MOL   H234 2322   5.251   2.177   3.969 -0.4456  0.1466 -3.3687
    5MOL   H235 2323   5.460   2.200   4.117 -0.8105 -0.1048  0.4651
    5MOL   C236 2324   5.603   2.619   3.671  0.7701 -0.2719  0.1249
    5MOL   C237 2325   5.645   2.474   3.645 -0.2764  0.7128 -0.1388
    5MOL   N238 2326   5.619   2.431   3.510 -0.0237 -0.5772  0.1747
    5MOL   C239 2327   5.527   2.334   3.474 -0.0467 -0.1347  1.0197
    5MOL   C240 2328   5.534   2.311   3.333 -0.1623  0.0311 -0.1892
    5MOL   C241 2329   5.452   2.215   3.270  0.8237  0.5158  0.1831
    5MOL   C242 2330   5.353   2.147   3.348  0.7855 -0.0373  0.4135
    5MOL   C243 2331   5.360   2.153   3.488  0.6212 -0.4691 -0.4220
    5MOL   C244 2332   5.433   2.261   3.551  0.0787  0.6208 -0.1302
    5MOL   C245 2333   5.636   2.402   3.281 -0.0012 -0.9521 -0.2936
    5MOL   C246 2334   5.682   2.479   3.394 -0.3169  0.2402  0.5195
    5MOL   C247 2335   5.781   2.581   3.371  0.2081  0.2916  0.4116
    5MOL   C248 2336   5.833   2.608   3.243 -0.3418 -0.0991  0.0264
    5MOL   C249 2337   5.791   2.528   3.141  0.0403 -0.1801 -0.1131
    5MOL   C250 2338   5.701   2.423   3.158  0.1868  0.3930 -0.1206
    5MOL   H251 2339   5.495   2.611   3.661  0.8337 -1.3418  0.2206
    5MOL   H252 2340   5.628   2.690   3.592  0.9881 -0.8883 -0.3604
    5MOL   H253 2341   5.591   2.402   3.707 -0.0261 -1.5745 -2.4727
    5MOL   H254 2342   5.451   2.194   3.164 -4.1372 -1.7455  0.4942
    5MOL   H255 2343   5.294   2.077   3.290  1.3123 -0.4390  0.3578
    5MOL   H256 2344   5.310   2.084   3.554  1.4898 -2.9048 -2.2405
    5MOL   H257 2345   5.430   2.289   3.655 -0.8011  2.0721 -0.5279
    5MOL   H258 2346   5.813   2.645   3.452  0.4852  2.8867 -1.6695
    5MOL   H259 2347   5.924   2.665   3.226  0.9375 -2.3847 -1.0331
    5MOL   H260 2348   5.839   2.541   3.045 -2.4137  1.2127 -1.2048
    5MOL   H261 2349   5.681   2.361   3.073  0.4367 -0.4797  0.4487
    5MOL   C262 2350   5.797   2.443   3.677  0.2307 -0.3842 -0.1145
    5MOL   C263 2351   5.831   2.290   3.684 -0.5241  0.3922  0.1245
    5MOL   N264 2352   5.972   2.266   3.686  0.1741  0.0516  0.4815
    5MOL   C265 2353   6.046   2.208   3.579 -0.9703 -0.1052 -0.2677
    5MOL   C266 2354   6.177   2.168   3.622  0.0503 -0.3894 -0.0822
    5MOL   C267 2355   6.260   2.090   3.535  0.8000 -0.6209  0.9501
    5MOL   C268 2356   6.220   2.054   3.400 -0.1272 -0.2158  0.2138
    5MOL   C269 2357   6.096   2.104   3.357  0.4001  0.2796 -0.1397
    5MOL   C270 2358   6.011   2.175   3.443  0.4415  0.2808 -0.2146
    5MOL   C271 2359   6.192   2.234   3.749 -0.2856  0.0656 -0.8415
    5MOL   C272 2360   6.066   2.300   3.778  0.3854  0.3006 -0.5116
    5MOL   C273 2361   6.056   2.377   3.896  1.0903 -0.1332  0.4083
    5MOL   C274 2362   6.160   2.395   3.982  0.0008 -0.0058  0.1712
    5MOL   C275 2363   6.277   2.317   3.962 -0.0962 -0.1188  0.4970
    5MOL   C276 2364   6.293   2.239   3.847 -0.1466 -0.1819  0.3730
    5MOL   H277 2365   5.863   2.488   3.603  2.1249 -0.4595  1.4670
    5MOL   H278 2366   5.825   2.502   3.765 -3.1202  0.7671  0.2243
    5MOL   H279 2367   5.800   2.249   3.587  2.2057 -0.5838 -0.3767
    5MOL   H280 2368   6.356   2.049   3.564  0.9480 -0.8228  0.1836
    5MOL   H281 2369   6.278   1.978   3.350  0.9247  1.1836 -0.7000
    5MOL   H282 2370   6.052   2.071   3.264  2.1912  0.9982 -1.2646
    5MOL   H283 2371   5.913   2.202   3.407 -1.2172 -2.3254  2.0730
    5MOL   H284 2372   5.960   2.424   3.913  1.3100  1.0376 -1.4625
    5MOL   H285 2373   6.143   2.455   4.070 -0.6593  0.0728 -0.0054
    5MOL   H286 2374   6.355   2.309   4.036  1.5037 -0.6946 -1.2136
    5MOL   H287 2375   6.387   2.192   3.821 -0.0463  0.3553 -0.2515
    5MOL   C288 2376   5.758   2.219   3.800  0.3591 -0.1871 -0.2300
    5MOL   C289 2377   5.802   2.072   3.829 -0.3919  0.0787 -0.1154
    5MOL   N290 2378   5.735   2.014   3.946 -0.2604 -0.6891  0.8643
    5MOL   C291 2379   5.783   1.985   4.071  0.6331 -0.4607  0.5763
    5MOL   C292 2380   5.677   1.925   4.142 -0.4561 -0.9029  0.1592
    5MOL   C293 2381   5.696   1.884   4.275  0.3728 -0.6552 -0.3424
    5MOL   C294 2382   5.816   1.906   4.342 -0.4374 -0.3831 -0.6663
    5MOL   C295 2383   5.927   1.962   4.270 -0.1936  0.2314  0.3487
    5MOL   C296 2384   5.909   1.997   4.134 -0.1378  0.6776 -0.5253
    5MOL   C297 2385   5.563   1.909   4.058 -0.2885  0.5184  0.2527
    5MOL   C298 2386   5.599   1.977   3.937  0.4087  0.3681 -0.2987
    5MOL   C299 2387   5.502   1.995   3.838 -0.6996 -0.1886  0.6782
    5MOL   C300 2388   5.375   1.947   3.850 -0.1393  0.2407  0.4303
    5MOL   C301 2389   5.337   1.874   3.963 -0.7519 -0.7109 -0.2121
    5MOL   C302 2390   5.431   1.860   4.067  0.6596  0.1090 -0.0242
    5MOL   H303 2391   5.765   2.274   3.893 -2.3895  0.9418 -0.6358
    5MOL   H304 2392   5.652   2.225   3.774  0.2246 -4.0320 -0.9200
    5MOL   H305 2393   5.906   2.073   3.860 -0.6664  1.5446  0.8040
    5MOL   H306 2394   5.623   1.831   4.335 -0.2873 -0.4738 -0.9740
    5MOL   H307 2395   5.825   1.879   4.446 -0.1408 -0.2005 -0.6413
    5MOL   H308 2396   6.025   1.969   4.313 -0.8337 -2.1472  2.3190
    5MOL   H309 2397   5.992   2.043   4.081 -0.2999  1.7067  0.1270
    5MOL   H310 2398   5.515   2.069   3.760  3.3406 -0.4266  0.9867
    5MOL   H311 2399   5.307   1.967   3.769 -3.0794 -1.8088  2.2835
    5MOL   H312 2400   5.236   1.836   3.966 -0.8408 -0.4349  0.4746
    5MOL   H313 2401   5.398   1.798   4.149  0.8348  0.7710  0.5451
    5MOL   C314 2402   5.791   1.974   3.715 -0.4950  0.1789  0.1625
    5MOL   C315 2403   5.819   1.824   3.752  0.6675  1.0565 -0.0701
    5MOL   N316 2404   5.792   1.738   3.642  0.5610  0.0778  0.5059
    5MOL   C317 2405   5.698   1.628   3.648 -0.4376  0.5320 -0.1313
    5MOL   C318 2406   5.696   1.562   3.520 -0.3023  0.7473  0.1415
    5MOL   C319 2407   5.610   1.448   3.506  0.1050  0.1113  0.3976
    5MOL   C320 2408   5.542   1.401   3.623 -0.8921 -0.1367 -0.8591
    5MOL   C321 2409   5.539   1.470   3.742  0.4323  0.2527  0.6058
    5MOL   C322 2410   5.615   1.588   3.754 -0.7090 -0.5594 -1.0600
    5MOL   C323 2411   5.790   1.625   3.434  0.0269 -1.0295 -0.8782
    5MOL   C324 2412   5.856   1.729   3.514  0.0729  0.1523  0.0480
    5MOL   C325 2413   5.957   1.807   3.456  0.3608 -0.4601 -0.0426
    5MOL   C326 2414   5.994   1.789   3.329  0.5185  0.4306  0.4229
    5MOL   C327 2415   5.933   1.687   3.248  0.1055 -0.6059 -0.0208
    5MOL   C328 2416   5.833   1.609   3.301 -0.7592  0.1645 -0.0519
    5MOL   H329 2417   5.694   1.990   3.668 -1.4453  0.2205  2.0805
    5MOL   H330 2418   5.867   2.004   3.642 -0.1798 -1.4162 -0.1821
    5MOL   H331 2419   5.746   1.798   3.829 -1.9208  1.7371 -2.2223
    5MOL   H332 2420   5.602   1.384   3.419  0.9595 -2.6481  2.3088
    5MOL   H333 2421   5.481   1.312   3.621 -0.5678 -0.3936  0.3706
    5MOL   H334 2422   5.481   1.425   3.821  1.9564  1.1848  2.2868
    5MOL   H335 2423   5.588   1.647   3.840 -0.8283  1.2543 -2.3298
    5MOL   H336 2424   6.015   1.882   3.508 -1.9734  1.4359 -0.0993
    5MOL   H337 2425   6.066   1.854   3.281 -0.9067  1.0415 -0.9303
    5MOL   H338 2426   5.955   1.683   3.142  0.7158  1.0278  0.0290
    5MOL   H339 2427   5.779   1.540   3.239 -0.2375 -1.0276  0.8062
    5MOL   C340 2428   5.958   1.793   3.819 -0.1532 -0.1859  0.3518
    5MOL   C341 2429   5.964   1.653   3.881  0.0530 -0.5375  0.5357
    5MOL   N342 2430   6.100   1.609   3.881  0.3376  0.4889 -0.0513
    5MOL   C343 2431   6.164   1.547   3.776  0.5976 -0.2640  0.7846
    5MOL   C344 2432   6.299   1.518   3.803 -0.0787  0.6594 -0.3981
    5MOL   C345 2433   6.380   1.465   3.697  0.6235  0.3972 -0.7034
    5MOL   C346 2434   6.322   1.429   3.573 -0.2837  0.5066 -0.1293
    5MOL   C347 2435   6.187   1.459   3.548  0.3114 -0.5651 -0.1185
    5MOL   C348 2436   6.108   1.517   3.650  0.2174 -0.0282  0.0979
    5MOL   C349 2437   6.321   1.564   3.935 -0.0165 -0.2364 -0.4104
    5MOL   C350 2438   6.197   1.616   3.984 -0.3524 -0.2940 -0.1254
    5MOL   C351 2439   6.192   1.678   4.104  0.4985  0.1259  0.2189
    5MOL   C352 2440   6.311   1.695   4.181  0.4720 -0.8888  0.2467
    5MOL   C353 2441   6.434   1.643   4.126 -0.0067  0.0768  0.1185
    5MOL   C354 2442   6.435   1.565   4.008  0.1562 -0.1545 -0.2044
    5MOL   H355 2443   6.040   1.815   3.751  0.5309 -3.0186  0.2080
    5MOL   H356 2444   5.972   1.868   3.897  1.4315 -2.1912  2.0797
    5MOL   H357 2445   5.904   1.580   3.826  1.0039 -2.0279  1.4208
    5MOL   H358 2446   6.484   1.457   3.723  0.1906 -1.0224  0.6265
    5MOL   H359 2447   6.383   1.374   3.503  0.7543 -1.9017  2.5862
    5MOL   H360 2448   6.137   1.426   3.458 -0.6697  1.8467 -0.4858
    5MOL   H361 2449   6.007   1.546   3.625  1.3189  3.0205 -1.1843
    5MOL   H362 2450   6.107   1.739   4.132  3.2184  3.6234  1.3165
    5MOL   H363 2451   6.315   1.758   4.268  0.0765 -1.4730  0.6974
    5MOL   H364 2452   6.524   1.648   4.184  0.2021 -0.5277 -0.1497
    5MOL   H365 2453   6.525   1.527   3.963  0.7388  2.1342 -1.0288
    5MOL   C366 2454   5.892   1.645   4.026 -0.0920 -0.4894 -1.0357
    5MOL   C367 2455   5.910   1.519   4.115  0.5320 -0.3905  0.4386
    5MOL   N368 2456   5.838   1.527   4.239 -0.0890  0.0879 -0.1579
    5MOL   C369 2457   5.893   1.549   4.368  0.2493 -0.5106 -0.5203
    5MOL   C370 2458   5.793   1.530   4.468 -0.5219 -0.6184  0.4600
    5MOL   C371 2459   5.828   1.540   4.606 -0.2898  0.1469 -0.2903
    5MOL   C372 2460   5.957   1.560   4.645 -0.3619 -0.0194  0.4096
    5MOL   C373 2461   6.055   1.579   4.549  0.1768 -0.0764  0.0789
    5MOL   C374 2462   6.027   1.575   4.407  0.5597  0.2175 -0.2950
    5MOL   C375 2463   5.667   1.509   4.399  0.4659  0.6299 -0.9088
    5MOL   C376 2464   5.698   1.511   4.259 -0.1721 -0.1196  0.2056
    5MOL   C377 2465   5.595   1.500   4.164  0.1611  0.0802 -0.0946
    5MOL   C378 2466   5.457   1.489   4.201 -0.1783 -0.2414 -0.0011
    5MOL   C379 2467   5.431   1.493   4.338 -0.2906  0.3458 -0.0265
    5MOL   C380 2468   5.533   1.488   4.436  0.4185  0.2967 -0.2569
    5MOL   H381 2469   5.917   1.734   4.082  3.7269 -1.2025 -1.4893
    5MOL   H382 2470   5.786   1.651   4.000 -0.5287 -1.1317  0.5347
    5MOL   H383 2471   6.015   1.519   4.143  0.9803  1.2373 -1.1300
    5MOL   H384 2472   5.757   1.529   4.686  0.5495 -0.0208  0.4446
    5MOL   H385 2473   5.995   1.558   4.746 -0.4519 -1.9109  0.4183
    5MOL   H386 2474   6.157   1.597   4.578  0.3720 -0.4528 -0.3787
    5MOL   H387 2475   6.109   1.592   4.339  1.0453  2.0850  0.7223
    5MOL   H388 2476   5.625   1.499   4.061  3.3565 -2.2240  0.8022
    5MOL   H389 2477   5.382   1.500   4.124  1.5143  2.5601 -1.3122
    5MOL   H390 2478   5.327   1.489   4.365 -0.2018  1.1416  0.4451
    5MOL   H391 2479   5.506   1.488   4.541 -0.4351 -0.8893 -0.4686
    5MOL   C392 2480   5.897   1.383   4.041 -0.1747 -0.5001 -0.4973
    5MOL   C393 2481   5.868   1.257   4.125  0.1898  0.3606 -0.0863
    5MOL   N394 2482   5.830   1.144   4.042  0.3096  0.5948 -0.4552
    5MOL   C395 2483   5.707   1.089   4.018 -0.0195  0.1247 -0.6485
    5MOL   C396 2484   5.722   0.977   3.932  0.5393 -0.4223  0.2832
    5MOL   C397 2485   5.604   0.907   3.897  0.0716 -0.4735 -0.2735
    5MOL   C398 2486   5.476   0.957   3.918  0.1214  0.0904  0.1428
    5MOL   C399 2487   5.458   1.073   3.989 -0.0973  0.0290 -0.8379
    5MOL   C400 2488   5.574   1.133   4.045  0.5591 -1.2683 -0.6483
    5MOL   C401 2489   5.859   0.954   3.918 -0.4339  0.3624  0.3248
    5MOL   C402 2490   5.928   1.067   3.968  0.1380 -0.0670  0.2348
    5MOL   C403 2491   6.065   1.084   3.951 -0.4285 -0.9696 -0.0875
    5MOL   C404 2492   6.143   0.974   3.899  0.0735 -0.0338 -0.2025
    5MOL   C405 2493   6.078   0.861   3.863  0.2903 -0.4081  0.3100
    5MOL   C406 2494   5.937   0.847   3.874  1.0333  0.1800 -0.3019
    5MOL   H407 2495   5.812   1.401   3.974 -2.0702 -0.9514  1.7205
    5MOL   H408 2496   5.982   1.378   3.973 -0.9055  1.6431 -1.6493
    5MOL   H409 2497   5.783   1.275   4.190 -0.9311 -1.8511 -0.8641
    5MOL   H410 2498   5.603   0.817   3.837  0.6662  0.0250 -1.0402
    5MOL   H411 2499   5.398   0.899   3.871  0.2186  0.1553 -0.0975
    5MOL   H412 2500   5.359   1.101   4.023  0.8203  0.2840  1.7664
    5MOL   H413 2501   5.561   1.224   4.103  0.7671 -1.3219 -0.5187
    5MOL   H414 2502   6.112   1.178   3.977 -1.8237 -0.5502  0.9774
    5MOL   H415 2503   6.251   0.972   3.890 -0.0676 -0.7069 -1.8519
    5MOL   H416 2504   6.138   0.776   3.833 -2.0577 -1.7616 -0.7458
    5MOL   H417 2505   5.890   0.755   3.840  0.5788  0.5112 -0.5813
    5MOL   C418 2506   5.985   1.231   4.231  0.1312  0.2039  0.6919
    5MOL   C419 2507   5.947   1.112   4.325  0.3771  0.3691  0.7283
    5MOL   N420 2508   6.041   0.993   4.308  0.0777  0.3109  0.2658
    5MOL   C421 2509   6.001   0.862   4.283  0.2960  0.0592  0.0012
    5MOL   C422 2510   6.115   0.779   4.299 -0.4493  0.0639  0.0981
    5MOL   C423 2511   6.093   0.642   4.285  0.1264  0.4882  0.2516
    5MOL   C424 2512   5.967   0.586   4.252 -0.5888  0.0731  0.0725
    5MOL   C425 2513   5.860   0.674   4.238  0.2859  0.2760  0.4291
    5MOL   C426 2514   5.875   0.813   4.256 -0.1352 -0.8888 -0.1039
    5MOL   C427 2515   6.233   0.859   4.324  0.0086  0.0150 -0.5446
    5MOL   C428 2516   6.184   0.992   4.338  0.0082  0.0468  0.3310
    5MOL   C429 2517   6.277   1.088   4.381  0.4069  0.1554 -0.5853
    5MOL   C430 2518   6.413   1.053   4.404  0.1702 -0.1631  0.4305
    5MOL   C431 2519   6.462   0.929   4.374 -0.2775 -0.4641  0.2136
    5MOL   C432 2520   6.369   0.830   4.336 -0.3995  0.5302 -0.9783
    5MOL   H433 2521   6.077   1.211   4.176 -0.9770 -2.1422 -0.3766
    5MOL   H434 2522   6.014   1.323   4.282 -0.9199  0.0669  1.5580
    5MOL   H435 2523   5.847   1.079   4.299  1.1972 -1.7857  0.1585
    5MOL   H436 2524   6.171   0.569   4.306  0.3758  0.6536 -0.1051
    5MOL   H437 2525   5.958   0.479   4.242 -2.0777  0.1501  0.4617
    5MOL   H438 2526   5.759   0.641   4.217  0.5572 -0.0445 -0.4224
    5MOL   H439 2527   5.794   0.883   4.238 -0.8729 -2.1415 -1.7532
    5MOL   H440 2528   6.244   1.190   4.392 -1.6394 -0.7843  2.4253
    5MOL   H441 2529   6.465   1.135   4.452 -1.2590  1.4204 -0.6344
    5MOL   H442 2530   6.569   0.912   4.382 -0.4048 -0.9631  0.8956
    5MOL   H443 2531   6.406   0.730   4.318 -3.2709 -0.8149  0.2611
    5MOL   C444 2532   5.939   1.167   4.475 -0.6258  0.7131  0.0316
    5MOL   C445 2533   5.970   1.074   4.591 -0.2120 -0.9514  0.6583
    5MOL   N446 2534   6.000   1.142   4.714 -0.5535 -0.6604 -0.5713
    5MOL   C447 2535   6.124   1.149   4.777  0.4843  0.2207  0.2291
    5MOL   C448 2536   6.111   1.236   4.887 -0.2983 -0.2610 -0.7148
    5MOL   C449 2537   6.226   1.268   4.959 -0.1310  0.0232 -0.2560
    5MOL   C450 2538   6.352   1.210   4.940  0.8006  0.5995 -0.9824
    5MOL   C451 2539   6.360   1.118   4.835 -0.0508 -0.0490 -0.3193
    5MOL   C452 2540   6.249   1.081   4.752 -0.4744  0.1858  0.1618
    5MOL   C453 2541   5.979   1.278   4.899 -0.9282 -0.6052  0.6922
    5MOL   C454 2542   5.910   1.224   4.785  0.2832 -0.2603  0.3796
    5MOL   C455 2543   5.771   1.246   4.772 -0.1647 -1.1238 -0.5965
    5MOL   C456 2544   5.700   1.324   4.865  0.1126  0.0134 -0.4221
    5MOL   C457 2545   5.762   1.381   4.976 -0.3822  0.7138  0.1494
    5MOL   C458 2546   5.907   1.358   4.992 -0.4904 -0.4447  0.0941
    5MOL   H459 2547   6.014   1.246   4.477 -0.5119  0.6066 -0.0260
    5MOL   H460 2548   5.847   1.220   4.498 -1.6322 -1.3478  0.9265
    5MOL   H461 2549   6.061   1.024   4.559  0.9980  1.5542  0.0819
    5MOL   H462 2550   6.221   1.343   5.036 -1.6767  0.5418 -0.8398
    5MOL   H463 2551   6.440   1.237   4.996  0.4144 -1.3577  0.6231
    5MOL   H464 2552   6.455   1.069   4.818  0.4805  0.5234  0.9657
    5MOL   H465 2553   6.262   1.011   4.671  0.5964 -0.7257  1.0934
    5MOL   H466 2554   5.717   1.202   4.690  0.7844  1.2399 -2.5716
    5MOL   H467 2555   5.596   1.333   4.839 -0.5932 -4.4591  0.3783
    5MOL   H468 2556   5.702   1.426   5.053 -2.8987 -0.0403 -1.3213
    5MOL   H469 2557   5.958   1.402   5.076 -0.5553  0.6400 -0.4293
    5MOL   C470 2558   5.873   0.958   4.614 -0.0366 -0.1430 -0.2537
    5MOL   C471 2559   5.939   0.863   4.716 -0.3181  0.7552 -0.8559
    5MOL   N472 2560   5.834   0.797   4.803  0.6937  0.1396 -0.2048
    5MOL   C473 2561   5.798   0.839   4.930 -1.0161  0.7008  0.0100
    5MOL   C474 2562   5.687   0.759   4.971 -0.4326 -0.1741 -0.1379
    5MOL   C475 2563   5.637   0.781   5.102 -0.1374 -0.1697  0.0608
    5MOL   C476 2564   5.682   0.894   5.181 -0.1052  0.4881 -0.1296
    5MOL   C477 2565   5.796   0.965   5.139 -0.4982  0.2948 -0.1618
    5MOL   C478 2566   5.848   0.942   5.009 -0.0447 -0.3372  0.3517
    5MOL   C479 2567   5.655   0.663   4.874  0.4934  0.1777 -0.4390
    5MOL   C480 2568   5.748   0.690   4.769 -0.0206 -0.0040  0.5104
    5MOL   C481 2569   5.739   0.615   4.650 -0.4160  0.3083 -0.6993
    5MOL   C482 2570   5.657   0.510   4.638  0.3808  0.4155  0.7154
    5MOL   C483 2571   5.582   0.475   4.743  0.5896  0.9039  0.4705
    5MOL   C484 2572   5.575   0.547   4.863  0.3912  0.2176 -0.8879
    5MOL   H485 2573   5.780   0.999   4.652  0.1837  1.3157 -1.2268
    5MOL   H486 2574   5.850   0.917   4.515  1.4057 -1.3012 -0.1250
    5MOL   H487 2575   5.993   0.932   4.781 -2.2450  0.6639  0.9019
    5MOL   H488 2576   5.547   0.726   5.125 -0.4288 -0.2863 -1.2939
    5MOL   H489 2577   5.650   0.903   5.284 -2.0910 -1.2246 -0.5666
    5MOL   H490 2578   5.845   1.038   5.202 -0.3405 -0.6775  0.8614
    5MOL   H491 2579   5.932   0.996   4.967  2.7279 -4.3195  0.5495
    5MOL   H492 2580   5.802   0.639   4.566  1.5252 -1.2718  0.2558
    5MOL   H493 2581   5.668   0.439   4.557  0.4533 -1.1691  2.1013
    5MOL   H494 2582   5.525   0.384   4.738  0.2486  1.2082 -1.5761
    5MOL   H495 2583   5.520   0.519   4.950 -2.7350  2.3791 -2.0826
    5MOL   C496 2584   6.039   0.768   4.646 -0.0154  0.1169  0.0602
    5MOL   C497 2585   6.091   0.651   4.734  0.0036 -0.0284 -0.3907
    5MOL   N498 2586   6.194   0.684   4.831  0.1433 -0.3586  0.5292
    5MOL   C499 2587   6.179   0.697   4.971  0.0672  0.5742 -0.6658
    5MOL   C500 2588   6.308   0.725   5.030  0.3062 -0.2386 -0.1062
    5MOL   C501 2589   6.318   0.745   5.169 -0.3579 -0.3863  0.4505
    5MOL   C502 2590   6.209   0.721   5.253  0.5749  0.0849  0.2403
    5MOL   C503 2591   6.081   0.694   5.196 -0.1551 -0.1326  0.8167
    5MOL   C504 2592   6.067   0.681   5.058  0.0753 -0.3378  0.8541
    5MOL   C505 2593   6.394   0.735   4.923 -0.0042 -0.5882 -0.1486
    5MOL   C506 2594   6.325   0.719   4.799 -0.1445  0.1012 -0.0012
    5MOL   C507 2595   6.388   0.739   4.678 -0.5355  0.3897  0.3240
    5MOL   C508 2596   6.522   0.780   4.680  0.3768 -0.3119 -0.1588
    5MOL   C509 2597   6.594   0.793   4.801  0.6095 -0.3621 -0.3258
    5MOL   C510 2598   6.526   0.772   4.925  0.7640  0.3330  0.8565
    5MOL   H511 2599   5.986   0.715   4.567  2.7637 -1.2391 -0.9615
    5MOL   H512 2600   6.124   0.814   4.597  0.1835 -1.5652 -1.2517
    5MOL   H513 2601   6.138   0.577   4.669 -1.1521 -0.8922 -0.2797
    5MOL   H514 2602   6.414   0.768   5.212 -0.5922  0.2290  0.6462
    5MOL   H515 2603   6.215   0.718   5.361 -3.8368  1.0230  0.6079
    5MOL   H516 2604   5.995   0.694   5.262  0.2143 -0.3402  1.3009
    5MOL   H517 2605   5.966   0.669   5.020 -0.2095  0.6404  1.2741
    5MOL   H518 2606   6.327   0.731   4.589 -0.7035  0.3487  0.4430
    5MOL   H519 2607   6.573   0.807   4.589 -1.1073  1.2082 -0.5799
    5MOL   H520 2608   6.696   0.829   4.803  1.2609 -2.1979  0.8158
    5MOL   H521 2609   6.586   0.778   5.014  0.7414 -0.4113  0.9229
    5MOL   H522 2610   6.019   0.590   4.791  1.5288 -2.4243 -0.9607
    6MOL     C1 2611   3.623   1.666   7.875 -0.1958 -0.3650 -0.3738
    6MOL     C2 2612   3.735   1.574   7.808 -0.4730  0.1665  0.2288
    6MOL     N3 2613   3.677   1.492   7.699 -0.0537  0.1908  0.5360
    6MOL     C4 2614   3.701   1.353   7.697 -1.4487  0.3206  0.6697
    6MOL     C5 2615   3.626   1.300   7.584 -0.5678 -0.3632  0.3458
    6MOL     C6 2616   3.630   1.159   7.557  0.3092 -0.3917 -0.1069
    6MOL     C7 2617   3.705   1.079   7.639 -0.2645  0.0467  0.0440
    6MOL     C8 2618   3.776   1.129   7.751 -0.0708 -0.4300 -0.2069
    6MOL     C9 2619   3.776   1.265   7.773 -0.2612  0.4701 -0.1316
    6MOL    C10 2620   3.567   1.410   7.516 -0.1914 -0.7431  0.1873
    6MOL    C11 2621   3.604   1.529   7.583  0.3509  0.2014 -0.2041
    6MOL    C12 2622   3.561   1.654   7.537  0.1841 -0.1709 -0.5564
    6MOL    C13 2623   3.487   1.662   7.416 -0.0659 -0.5123  0.6167
    6MOL    C14 2624   3.460   1.548   7.343 -0.1606 -0.1261 -0.5733
    6MOL    C15 2625   3.494   1.425   7.398  0.4882  1.0872 -0.0292
    6MOL    H16 2626   3.554   1.722   7.811  0.1492  1.4499  0.7972
    6MOL    H17 2627   3.655   1.747   7.941 -1.0194  1.5917 -2.2990
    6MOL    H18 2628   3.774   1.505   7.882 -0.2928  0.1260  0.0971
    6MOL    H19 2629   3.590   1.115   7.467 -1.1710  2.1470 -0.7352
    6MOL    H20 2630   3.703   0.973   7.618  3.1030 -0.1746  0.6394
    6MOL    H21 2631   3.820   1.062   7.824 -2.5257 -0.7400  1.0446
    6MOL    H22 2632   3.820   1.299   7.866 -0.2810 -0.4640  0.2262
    6MOL    H23 2633   3.578   1.746   7.591  0.2294 -1.6335  1.9874
    6MOL    H24 2634   3.462   1.761   7.379  0.8732 -1.5196 -2.8926
    6MOL    H25 2635   3.403   1.562   7.253  1.3743  1.9141 -1.2777
    6MOL    H26 2636   3.470   1.340   7.336 -3.0614  1.9471  0.0722
    6MOL    H27 2637   3.564   1.598   7.937 -0.1885  0.2699  0.3307
    6MOL    C28 2638   3.847   1.660   7.749  0.3279  0.9601 -0.4978
    6MOL    C29 2639   3.947   1.708   7.859 -0.7355 -0.3936  0.8484
    6MOL    N30 2640   4.014   1.596   7.919  0.8678  0.3665  0.0553
    6MOL    C31 2641   4.001   1.538   8.048  0.1471  0.6403  0.1579
    6MOL    C32 2642   4.061   1.409   8.055  0.7664  0.1176  0.2250
    6MOL    C33 2643   4.053   1.340   8.181 -0.5215 -0.4555  0.1391
    6MOL    C34 2644   3.971   1.383   0.054  0.0557 -0.0265 -0.1551
    6MOL    C35 2645   3.905   1.504   0.046 -1.1096  0.0157 -0.0626
    6MOL    C36 2646   3.918   1.583   8.155 -0.2351  0.4586  0.0100
    6MOL    C37 2647   4.124   1.390   7.928  0.2442 -0.3030 -0.0582
    6MOL    C38 2648   4.091   1.504   7.845  0.3943 -1.0601 -0.0499
    6MOL    C39 2649   4.137   1.501   7.711 -0.7292  0.5836 -0.0894
    6MOL    C40 2650   4.226   1.405   7.664 -0.2573  0.6897  0.1680
    6MOL    C41 2651   4.264   1.300   7.746 -0.7507  0.3926  0.5208
    6MOL    C42 2652   4.217   1.294   7.878 -0.3620 -0.2199  0.0589
    6MOL    H43 2653   3.893   1.606   7.667 -1.4493 -1.5540  0.0957
    6MOL    H44 2654   3.805   1.751   7.707 -0.2098  0.5473 -0.8658
    6MOL    H45 2655   3.886   1.756   7.935  1.5303  1.0876  1.8030
    6MOL    H46 2656   4.106   1.247   8.193  0.7506  0.3530  0.8617
    6MOL    H47 2657   3.966   1.329   0.148 -3.8688  0.1887 -0.1725
    6MOL    H48 2658   3.860   1.540   0.138 -0.5556 -0.2285  0.3063
    6MOL    H49 2659   3.869   1.679   8.150 -1.5371 -0.0080  2.7109
    6MOL    H50 2660   4.117   1.586   7.647 -0.4386  0.5111 -0.2795
    6MOL    H51 2661   4.271   1.409   7.566  0.1636  1.9334  0.4066
    6MOL    H52 2662   4.338   1.227   7.718 -1.0490  0.6914 -1.0573
    6MOL    H53 2663   4.244   1.209   7.939 -1.9874  0.8880  2.4062
    6MOL    C54 2664   4.040   1.821   7.809  0.1820  1.1107  0.3539
    6MOL    C55 2665   4.059   1.943   7.908 -0.3099  0.1508 -0.0049
    6MOL    N56 2666   4.086   1.902   8.043 -0.1792 -0.1736 -0.1799
    6MOL    C57 2667   4.014   1.940   8.156 -0.0211  0.1406 -0.3593
    6MOL    C58 2668   4.067   1.876   0.041  0.0716 -0.2508  1.0589
    6MOL    C59 2669   3.992   1.886   0.163  0.1676 -0.0708  0.3396
    6MOL    C60 2670   3.881   1.968   0.174  0.5653  0.4721  0.4288
    6MOL    C61 2671   3.836   2.046   0.064  0.4297 -0.4714 -0.7604
    6MOL    C62 2672   3.905   2.031   8.166 -0.2352 -0.6640 -0.0472
    6MOL    C63 2673   4.182   1.798   8.223  0.6960 -0.0623  0.0477
    6MOL    C64 2674   4.186   1.814   8.083 -0.1409  0.2918  0.3353
    6MOL    C65 2675   4.280   1.742   8.005  0.1354  0.2764 -0.1760
    6MOL    C66 2676   4.366   1.653   8.063  0.1901 -0.1998 -0.1615
    6MOL    C67 2677   4.366   1.635   8.208  0.1455  0.1004 -0.7501
    6MOL    C68 2678   4.277   1.711   0.053  0.0763  0.8474  0.0637
    6MOL    H69 2679   4.135   1.781   7.773 -0.5663  0.3667 -0.8283
    6MOL    H70 2680   3.993   1.870   7.723 -3.6741  1.3750  2.5000
    6MOL    H71 2681   3.963   1.996   7.913  0.0904  0.8234  0.5980
    6MOL    H72 2682   4.036   1.837   0.249 -0.1957 -0.0082  0.5595
    6MOL    H73 2683   3.819   1.982   0.261  1.5844  0.4165  1.1790
    6MOL    H74 2684   3.746   2.104   0.069  0.5669 -0.2339 -1.1118
    6MOL    H75 2685   3.873   2.091   8.083 -0.9812 -0.7592  0.1660
    6MOL    H76 2686   4.294   1.762   7.900 -0.1848 -2.3796 -0.7735
    6MOL    H77 2687   4.425   1.586   8.003  2.1643  1.3560 -0.0028
    6MOL    H78 2688   4.427   1.557   0.023 -0.1935 -0.1032 -0.6333
    6MOL    H79 2689   4.267   1.691   0.159  0.8540  0.8489  0.1397
    6MOL    C80 2690   4.169   2.037   7.856 -0.1698 -0.1822  0.5951
    6MOL    C81 2691   4.138   2.123   7.730  0.8735 -0.3037 -0.2462
    6MOL    N82 2692   4.001   2.178   7.722 -0.1849 -0.6771  0.0531
    6MOL    C83 2693   3.910   2.163   7.617 -0.4479  0.2159 -0.2969
    6MOL    C84 2694   3.791   2.225   7.658 -0.1302 -0.0460  0.7364
    6MOL    C85 2695   3.678   2.224   7.576  0.2750  0.4325 -0.2053
    6MOL    C86 2696   3.687   2.160   7.452 -0.2777 -0.9014 -0.5323
    6MOL    C87 2697   3.800   2.094   7.410 -0.1459  0.2384  0.0949
    6MOL    C88 2698   3.912   2.100   7.490  0.1675  0.0397  0.2303
    6MOL    C89 2699   3.815   2.290   7.779  0.4366 -0.4377 -0.2015
    6MOL    C90 2700   3.949   2.269   7.816 -0.2270 -0.4801 -0.0684
    6MOL    C91 2701   4.009   2.326   7.925  0.0823 -0.1757  0.1415
    6MOL    C92 2702   3.935   2.407   8.016  0.1374 -0.1674  0.5656
    6MOL    C93 2703   3.800   2.427   7.985 -0.6041 -0.1106 -0.3199
    6MOL    C94 2704   3.740   2.368   7.870  0.2584 -0.4295 -0.5328
    6MOL    H95 2705   4.194   2.118   7.923  1.7193  0.2262 -0.5491
    6MOL    H96 2706   4.265   1.988   7.838  0.9227  1.6450  1.3961
    6MOL    H97 2707   4.140   2.042   7.657  1.9871  0.0418 -0.6194
    6MOL    H98 2708   3.588   2.280   7.599 -0.3119 -1.1595  1.5212
    6MOL    H99 2709   3.598   2.156   7.391 -1.4114 -1.3332  1.1127
    6MOL   H100 2710   3.802   2.032   7.322 -0.1035  1.1239 -0.5454
    6MOL   H101 2711   4.004   2.051   7.463  0.1619  1.3253 -2.3163
    6MOL   H102 2712   4.116   2.316   7.931 -0.2773 -2.4131  4.0246
    6MOL   H103 2713   3.983   2.455   8.100 -0.5309  1.2415  0.1547
    6MOL   H104 2714   3.736   2.477   8.057 -2.6726 -1.7433 -0.9586
    6MOL   H105 2715   3.636   2.395   7.864  0.5020  0.6589 -0.0604
    6MOL   C106 2716   4.251   2.223   7.692  0.5992  0.1580  0.1210
    6MOL   C107 2717   4.386   2.164   7.641 -0.2768 -0.0556 -0.3682
    6MOL   N108 2718   4.352   2.092   7.516 -0.5150 -0.0475  0.3645
    6MOL   C109 2719   4.345   1.951   7.500  0.7790 -0.9837 -0.1478
    6MOL   C110 2720   4.310   1.920   7.366  0.3149 -0.0733  0.0884
    6MOL   C111 2721   4.307   1.784   7.327  0.0322  0.5160 -0.1743
    6MOL   C112 2722   4.320   1.681   7.421 -0.0492  0.3569  0.0097
    6MOL   C113 2723   4.358   1.714   7.551  0.2069 -0.0192 -0.5309
    6MOL   C114 2724   4.370   1.850   7.594 -0.7465 -0.4001  0.1047
    6MOL   C115 2725   4.294   2.043   7.297  0.2731  0.0045 -0.0053
    6MOL   C116 2726   4.318   2.145   7.390  0.1852 -0.0127 -0.7160
    6MOL   C117 2727   4.306   2.283   7.348  0.3539  0.3078 -0.6798
    6MOL   C118 2728   4.269   2.315   7.213  0.4373  0.5013 -0.8996
    6MOL   C119 2729   4.240   2.211   7.120 -0.1838 -0.0646  0.2329
    6MOL   C120 2730   4.265   2.078   7.158  0.2488  0.3448 -0.3329
    6MOL   H121 2731   4.217   2.292   7.614  1.8528  0.7896  0.1131
    6MOL   H122 2732   4.262   2.299   7.769 -0.7824  2.3759 -1.7829
    6MOL   H123 2733   4.418   2.086   7.710  1.3220  0.9465  0.0486
    6MOL   H124 2734   4.302   1.752   7.224  2.6476 -1.2519  0.1842
    6MOL   H125 2735   4.315   1.577   7.394 -3.2804  0.6302 -0.5879
    6MOL   H126 2736   4.373   1.637   7.626 -0.6497  0.2919 -0.0393
    6MOL   H127 2737   4.397   1.860   7.698  1.4897 -0.9100 -0.4037
    6MOL   H128 2738   4.325   2.368   7.412 -1.0452 -0.8969  1.4049
    6MOL   H129 2739   4.248   2.418   7.188 -1.3528  0.9088  2.0631
    6MOL   H130 2740   4.196   2.238   7.025  1.4151  2.6053  0.2106
    6MOL   H131 2741   4.243   1.999   7.086  1.3246 -0.5113  0.2574
    6MOL   C132 2742   4.509   2.256   7.631  0.2736 -0.2748 -0.2839
    6MOL   C133 2743   4.547   2.347   7.754  0.4263 -0.3265 -0.3811
    6MOL   N134 2744   4.518   2.277   7.882 -0.0799 -0.3002  0.1839
    6MOL   C135 2745   4.428   2.317   7.985 -0.0376 -0.5561  0.4964
    6MOL   C136 2746   4.412   2.218   8.086  0.3412 -0.8590  0.1694
    6MOL   C137 2747   4.311   2.231   8.183 -0.1828 -0.5281 -0.2655
    6MOL   C138 2748   4.237   2.351   8.196  0.3284 -0.0357  0.1336
    6MOL   C139 2749   4.262   2.454   8.106  0.0252 -0.3375  0.3306
    6MOL   C140 2750   4.349   2.438   7.998  0.4832  0.2608  0.3345
    6MOL   C141 2751   4.514   2.124   8.052 -0.3424 -1.0475  0.2016
    6MOL   C142 2752   4.581   2.160   7.929 -0.5012 -0.4590 -0.1585
    6MOL   C143 2753   4.681   2.078   7.875 -0.1269 -0.3321  0.3010
    6MOL   C144 2754   4.720   1.966   7.948  0.5483  0.2406  0.2633
    6MOL   C145 2755   4.654   1.929   8.065 -0.2227  0.6718  0.6108
    6MOL   C146 2756   4.553   2.007   8.114  1.0230 -0.3707 -0.2114
    6MOL   H147 2757   4.581   2.179   7.603 -0.0379 -0.3658 -0.8332
    6MOL   H148 2758   4.493   2.318   7.543 -0.2924 -2.2581 -1.5917
    6MOL   H149 2759   4.472   2.426   7.751  1.5811  0.7899 -0.4767
    6MOL   H150 2760   4.291   2.152   0.026  0.6209  0.9430  1.6733
    6MOL   H151 2761   4.163   2.356   0.047  1.5421 -1.7670  1.4196
    6MOL   H152 2762   4.207   2.547   8.118  0.8365  0.6217 -2.7931
    6MOL   H153 2763   4.362   2.522   7.932  3.2643 -1.2810 -1.1575
    6MOL   H154 2764   4.725   2.093   7.778 -0.7238  0.1523  0.1052
    6MOL   H155 2765   4.798   1.907   7.902  2.8781  2.7104  0.9043
    6MOL   H156 2766   4.685   1.839   8.116  1.1247  0.9972  0.3829
    6MOL   H157 2767   4.498   1.964   8.197  0.4405  0.7590 -0.0016
    6MOL   C158 2768   4.688   2.392   7.756  0.5489  0.4001 -0.1206
    6MOL   C159 2769   4.726   2.502   7.662  0.1869  0.2677  0.5916
    6MOL   N160 2770   4.634   2.617   7.640 -0.5366  0.0774  0.2446
    6MOL   C161 2771   4.599   2.667   7.517  0.3326 -0.0954  0.0201
    6MOL   C162 2772   4.511   2.774   7.529  0.5679 -0.3050 -0.1042
    6MOL   C163 2773   4.470   2.843   7.414 -0.4665 -0.3147  0.3473
    6MOL   C164 2774   4.506   2.804   7.286 -0.4397 -0.0685  0.1277
    6MOL   C165 2775   4.602   2.700   7.274  1.0697 -0.5522 -0.6721
    6MOL   C166 2776   4.641   2.629   7.387 -0.3719  0.1393  0.3059
    6MOL   C167 2777   4.483   2.791   7.669  0.1830 -0.1864  0.0252
    6MOL   C168 2778   4.560   2.693   7.733  0.3572  0.7793  0.1339
    6MOL   C169 2779   4.558   2.680   7.874 -0.4016  0.4073  0.1204
    6MOL   C170 2780   4.476   2.767   7.957 -0.4950 -0.2300 -0.5538
    6MOL   C171 2781   4.403   2.868   7.889  1.0605 -0.3794  0.1221
    6MOL   C172 2782   4.408   2.876   7.748  0.1368 -0.6976  1.0849
    6MOL   H173 2783   4.714   2.419   7.859  1.1849 -0.4872 -0.0438
    6MOL   H174 2784   4.747   2.304   7.730 -0.6953 -1.1977  2.2859
    6MOL   H175 2785   4.745   2.456   7.565 -0.5487  0.3307  0.4134
    6MOL   H176 2786   4.414   2.936   7.415 -0.2329 -0.0589 -3.2504
    6MOL   H177 2787   4.476   2.868   7.204  0.7465  0.9625  0.4682
    6MOL   H178 2788   4.625   2.672   7.173  0.9786  2.0801 -1.4408
    6MOL   H179 2789   4.697   2.536   7.378 -3.6176 -1.7474 -1.5057
    6MOL   H180 2790   4.629   2.609   7.914 -0.5451 -0.3462 -0.9354
    6MOL   H181 2791   4.469   2.756   8.064 -1.1335  0.1078 -0.5554
    6MOL   H182 2792   4.356   2.940   7.954  0.9727  0.6178 -1.0202
    6MOL   H183 2793   4.348   2.954   7.704  3.3036  1.0706 -0.2424
    6MOL   C184 2794   4.858   2.569   7.713 -0.0439 -0.4084 -0.4699
    6MOL   C185 2795   4.975   2.470   7.714  0.1744 -0.0134 -0.4150
    6MOL   N186 2796   4.980   2.387   7.593  0.0768  0.0592 -0.0399
    6MOL   C187 2797   4.977   2.245   7.594  0.2825 -0.4711  0.2553
    6MOL   C188 2798   4.960   2.204   7.459 -1.0076 -0.2399  0.0463
    6MOL   C189 2799   4.956   2.070   7.430 -0.2742 -0.4595 -0.3761
    6MOL   C190 2800   4.968   1.967   7.529 -0.1306 -0.5073  0.2118
    6MOL   C191 2801   4.996   2.012   7.664 -1.3599 -0.3548 -0.4503
    6MOL   C192 2802   5.000   2.148   7.697  0.1544  0.2241 -0.0353
    6MOL   C193 2803   4.950   2.323   7.370  0.0902  0.0108 -0.7789
    6MOL   C194 2804   4.976   2.433   7.452  0.1048  1.1704 -0.1185
    6MOL   C195 2805   4.986   2.567   7.406 -0.3020  0.5552  0.1715
    6MOL   C196 2806   4.967   2.583   7.264 -0.0562 -0.0045 -0.1595
    6MOL   C197 2807   4.936   2.475   7.178 -0.1204 -0.8470 -0.3081
    6MOL   C198 2808   4.928   2.345   7.228  0.2651 -0.7496 -0.2266
    6MOL   H199 2809   4.891   2.641   7.638 -2.3059  1.4674  0.2710
    6MOL   H200 2810   4.854   2.625   7.807  1.4194 -2.4744  0.8733
    6MOL   H201 2811   4.955   2.400   7.796 -1.7674  1.5149  0.4657
    6MOL   H202 2812   4.945   2.037   7.328 -1.4130  0.6233 -0.6155
    6MOL   H203 2813   4.981   1.866   7.495  3.4446  0.0117 -0.1922
    6MOL   H204 2814   5.032   1.941   7.737  3.4634  1.9474 -0.3877
    6MOL   H205 2815   5.018   2.192   7.794  2.8070  0.5788 -0.6403
    6MOL   H206 2816   5.014   2.656   7.461 -2.6946  1.3124  0.2368
    6MOL   H207 2817   4.971   2.681   7.219  0.1351  1.3166  2.6508
    6MOL   H208 2818   4.929   2.495   7.072 -1.0553 -2.8229 -0.6572
    6MOL   H209 2819   4.914   2.254   7.171  2.2898 -0.0400 -1.9019
    6MOL   C210 2820   5.109   2.541   7.749  0.2959 -0.2528 -0.6326
    6MOL   C211 2821   5.239   2.448   7.748  0.0275 -0.8036  0.3548
    6MOL   N212 2822   5.299   2.420   7.618 -0.2262  0.0955 -0.6512
    6MOL   C213 2823   5.312   2.292   7.570 -0.3196 -0.5319  0.0053
    6MOL   C214 2824   5.334   2.302   7.427  0.0803  0.1056 -1.0436
    6MOL   C215 2825   5.316   2.185   7.352  0.3199 -0.3602 -0.1866
    6MOL   C216 2826   5.308   2.062   7.421  0.7322 -0.1631  0.0580
    6MOL   C217 2827   5.309   2.051   7.562  0.2870 -0.1434 -0.0031
    6MOL   C218 2828   5.300   2.170   7.634 -0.4040  0.6412 -0.1319
    6MOL   C219 2829   5.371   2.442   7.399 -1.0151 -0.0562  0.0237
    6MOL   C220 2830   5.359   2.510   7.527  0.5127 -0.1050 -0.5993
    6MOL   C221 2831   5.394   2.647   7.542 -0.4452  0.1924  0.4677
    6MOL   C222 2832   5.451   2.712   7.428 -0.5939  0.7238 -0.0819
    6MOL   C223 2833   5.456   2.648   7.301 -0.1116 -0.0427  0.2480
    6MOL   C224 2834   5.409   2.516   7.287  0.2112 -0.0782 -0.8685
    6MOL   H225 2835   5.134   2.627   7.687  0.5011  0.8611  0.9647
    6MOL   H226 2836   5.101   2.579   7.850 -0.5760  2.3717 -1.6366
    6MOL   H227 2837   5.199   2.353   7.783 -0.4341 -1.2930 -1.4734
    6MOL   H228 2838   5.316   2.181   7.244  1.7615 -1.3283 -0.1610
    6MOL   H229 2839   5.301   1.971   7.363 -0.0870 -1.2300  1.7925
    6MOL   H230 2840   5.314   1.958   7.617  1.4368  0.7472  1.4467
    6MOL   H231 2841   5.288   2.161   7.741 -1.8077  1.4354 -0.2165
    6MOL   H232 2842   5.387   2.702   7.635 -0.1808 -0.6250  0.9861
    6MOL   H233 2843   5.485   2.814   7.437  2.4545 -0.3267  0.7628
    6MOL   H234 2844   5.497   2.704   7.218  1.9017 -0.5949  0.8591
    6MOL   H235 2845   5.408   2.463   7.193  1.6137 -0.3625 -0.7364
    6MOL   C236 2846   5.350   2.495   7.849 -0.0800  1.0840  0.4542
    6MOL   C237 2847   5.309   2.519   7.998  0.1213 -0.0225  0.0367
    6MOL   N238 2848   5.207   2.424   8.042 -0.6068 -0.0461 -0.3396
    6MOL   C239 2849   5.074   2.452   8.084  0.0447 -0.1189 -0.3912
    6MOL   C240 2850   5.013   2.326   8.105 -0.2638  0.1186  0.2832
    6MOL   C241 2851   4.882   2.327   8.155 -0.3853  0.1770 -0.2162
    6MOL   C242 2852   4.807   2.445   8.176  0.3932 -0.7593  0.1175
    6MOL   C243 2853   4.866   2.570   8.154  0.5478  0.0034 -0.3646
    6MOL   C244 2854   5.006   2.568   8.121 -0.1000  0.4208 -0.1309
    6MOL   C245 2855   5.100   2.216   8.068  0.3730  0.4113  0.3822
    6MOL   C246 2856   5.228   2.280   8.037 -0.1459  0.1276  0.1308
    6MOL   C247 2857   5.339   2.202   8.005 -0.5107  0.1204 -0.1717
    6MOL   C248 2858   5.328   2.059   7.999 -0.5352 -0.4069 -0.4388
    6MOL   C249 2859   5.205   1.997   8.037 -0.1395 -0.0006 -0.1937
    6MOL   C250 2860   5.093   2.076   8.070  0.5045  0.7172 -0.0083
    6MOL   H251 2861   5.433   2.424   7.845 -0.3505  0.7349  0.9560
    6MOL   H252 2862   5.400   2.585   7.814  2.1404 -0.3844 -0.2823
    6MOL   H253 2863   5.263   2.617   7.999 -0.0007 -0.0959  2.2120
    6MOL   H254 2864   4.838   2.232   8.181  0.1223  0.0351  0.1338
    6MOL   H255 2865   4.702   2.447   8.197  0.1709  0.4581 -1.0771
    6MOL   H256 2866   4.818   2.666   8.164  2.2284  0.7961  0.4663
    6MOL   H257 2867   5.052   2.665   8.109  2.0626 -0.8766 -2.8928
    6MOL   H258 2868   5.429   2.253   7.975 -0.5736  0.4630  0.2109
    6MOL   H259 2869   5.419   2.010   7.968 -0.7322 -1.3984  0.5352
    6MOL   H260 2870   5.194   1.890   8.034 -2.7818  0.2751 -1.8360
    6MOL   H261 2871   5.005   2.020   8.096  1.7879 -1.5114 -0.3167
    6MOL   C262 2872   5.441   2.513   8.087 -0.2067 -0.0561 -0.7861
    6MOL   C263 2873   5.432   2.627   8.192 -0.2752 -0.0168  0.5156
    6MOL   N264 2874   5.320   2.600   0.059  0.3218  0.3019 -0.2198
    6MOL   C265 2875   5.218   2.688   0.088  0.1463  0.0627  0.5204
    6MOL   C266 2876   5.122   2.635   0.179  0.8659 -0.3130 -0.5393
    6MOL   C267 2877   5.008   2.709   0.211  0.0352  0.3241 -0.5641
    6MOL   C268 2878   4.987   2.837   0.164 -0.4442  0.7781 -0.4946
    6MOL   C269 2879   5.085   2.897   0.085  0.5510  1.0011  0.2043
    6MOL   C270 2880   5.197   2.824   0.042  0.7480 -0.0377  0.0210
    6MOL   C271 2881   5.181   2.506   0.216  0.2010 -0.4053  0.6325
    6MOL   C272 2882   5.303   2.491   0.141 -0.8351  0.0277 -0.3272
    6MOL   C273 2883   5.384   2.376   0.165 -0.4246 -0.0797  0.4741
    6MOL   C274 2884   5.335   2.279   0.259 -0.5067  0.0651  0.5333
    6MOL   C275 2885   5.215   2.294   0.328  0.5757 -0.2201  0.3308
    6MOL   C276 2886   5.142   2.410   0.313 -0.3116  0.2601 -0.4228
    6MOL   H277 2887   5.435   2.413   8.130 -0.5723 -0.1678 -1.0922
    6MOL   H278 2888   5.536   2.520   8.034  1.2163 -0.3093  1.6429
    6MOL   H279 2889   5.410   2.714   8.130 -1.0526 -0.3399  0.3347
    6MOL   H280 2890   4.940   2.667   0.284  0.8227 -1.3610 -0.7715
    6MOL   H281 2891   4.892   2.878   0.195  0.0189  0.2421  1.6577
    6MOL   H282 2892   5.082   3.003   0.061 -0.5496  0.9401  0.0453
    6MOL   H283 2893   5.278   2.862   8.210  1.2723 -0.5444  0.3972
    6MOL   H284 2894   5.481   2.363   0.119 -1.0214 -0.7871 -0.6010
    6MOL   H285 2895   5.389   2.187   0.279 -0.7387  0.0063  0.8984
    6MOL   H286 2896   5.180   2.208   0.384 -2.1165  0.1640 -0.6846
    6MOL   H287 2897   5.049   2.429   0.364  0.8495  0.2066  1.7905
    6MOL   C288 2898   5.565   2.655   0.035 -0.0289  0.0078 -0.9331
    6MOL   C289 2899   5.668   2.732   8.182  0.8488 -0.9136 -0.1018
    6MOL   N290 2900   5.623   2.860   8.120 -0.6091 -0.1709 -0.0457
    6MOL   C291 2901   5.617   2.896   7.984 -0.1282  0.0342 -0.5178
    6MOL   C292 2902   5.560   3.025   7.975  0.4999  0.2128  0.4399
    6MOL   C293 2903   5.556   3.088   7.841 -0.8484  0.3408  0.1846
    6MOL   C294 2904   5.586   3.008   7.726  0.0465 -0.2360  0.1412
    6MOL   C295 2905   5.636   2.878   7.739  0.2417 -0.0942 -0.8863
    6MOL   C296 2906   5.652   2.822   7.867  0.6956 -0.0250  0.2840
    6MOL   C297 2907   5.523   3.071   8.108 -0.2422 -0.7094 -0.4875
    6MOL   C298 2908   5.564   2.966   8.198 -0.0711  0.0197 -0.7567
    6MOL   C299 2909   5.537   2.983   0.106 -0.1494  0.7602 -0.0755
    6MOL   C300 2910   5.480   3.097   0.158  0.9070  0.1359 -0.0690
    6MOL   C301 2911   5.437   3.196   0.067  0.3389 -0.5067  0.6175
    6MOL   C302 2912   5.450   3.178   8.159  0.3649  0.3358 -0.0959
    6MOL   H303 2913   5.535   2.718   0.120  0.0943 -0.2605 -0.6911
    6MOL   H304 2914   5.611   2.562   0.068  0.2206  1.1367  2.1271
    6MOL   H305 2915   5.694   2.677   8.091  2.0949  3.4724 -2.5280
    6MOL   H306 2916   5.523   3.190   7.826  0.1050  0.2807 -2.5726
    6MOL   H307 2917   5.576   3.047   7.625  0.5190  0.6112  0.4178
    6MOL   H308 2918   5.661   2.819   7.652 -1.5528 -2.9493  0.4423
    6MOL   H309 2919   5.691   2.722   7.856  1.3028  0.1436  0.8706
    6MOL   H310 2920   5.575   2.914   0.181  1.4926  0.3647 -1.2332
    6MOL   H311 2921   5.470   3.101   0.266 -1.2366 -1.5699 -0.1758
    6MOL   H312 2922   5.389   3.290   0.089  1.7419  0.3957 -0.1423
    6MOL   H313 2923   5.415   3.252   8.089  0.3614 -1.0226 -1.5495
    6MOL   C314 2924   5.798   2.762   0.036  0.8263  0.2014 -0.2729
    6MOL   C315 2925   5.893   2.642   0.059 -0.3674  0.3568  0.9118
    6MOL   N316 2926   5.935   2.573   8.162  0.3676  0.2830  0.1853
    6MOL   C317 2927   5.888   2.450   8.114 -0.3167  1.0379  0.2908
    6MOL   C318 2928   5.932   2.436   7.976 -1.0477  0.7781  0.2345
    6MOL   C319 2929   5.889   2.329   7.904  0.4424 -0.1606  0.4926
    6MOL   C320 2930   5.799   2.227   7.955  0.3404 -0.7272 -0.7280
    6MOL   C321 2931   5.772   2.233   8.097  0.3438 -0.2132  0.1423
    6MOL   C322 2932   5.803   2.350   8.169  0.2216  1.1369  0.0959
    6MOL   C323 2933   6.018   2.539   7.944 -0.3020 -0.2670  0.3063
    6MOL   C324 2934   6.017   2.625   8.059 -0.5338  0.2681  0.1369
    6MOL   C325 2935   6.076   2.754   8.044 -0.0048 -0.5057 -0.5868
    6MOL   C326 2936   6.148   2.794   7.930 -0.1680  0.4689  0.8834
    6MOL   C327 2937   6.154   2.697   7.824  0.1745 -0.5989 -0.3462
    6MOL   C328 2938   6.083   2.577   7.826 -0.2615  0.5225 -0.3816
    6MOL   H329 2939   5.857   2.821   8.193 -0.3428  0.5219 -0.9874
    6MOL   H330 2940   5.779   2.816   0.129  0.7769  1.6129 -1.0947
    6MOL   H331 2941   5.833   2.574   0.120 -0.7281  0.0444  0.2057
    6MOL   H332 2942   5.926   2.323   7.803 -1.4972  0.6507 -0.2922
    6MOL   H333 2943   5.760   2.149   7.892 -0.5430 -1.9892  1.3414
    6MOL   H334 2944   5.708   2.157   8.139 -1.2483  1.1204  0.1693
    6MOL   H335 2945   5.780   2.351   0.047 -3.9605  1.3409 -0.7199
    6MOL   H336 2946   6.078   2.827   8.123 -0.3084 -0.1848 -0.8708
    6MOL   H337 2947   6.195   2.890   7.919  1.4548 -0.4452 -0.3640
    6MOL   H338 2948   6.194   2.727   7.728 -1.3890  1.8834 -0.2750
    6MOL   H339 2949   6.073   2.525   7.732 -1.2817  0.0406 -0.0102
    6MOL   C340 2950   6.007   2.702   0.138  0.3631 -0.1164 -0.0144
    6MOL   C341 2951   6.079   2.598   0.222  0.2720 -0.8808  0.2235
    6MOL   N342 2952   6.187   2.541   0.138 -0.1142 -0.4597  0.0782
    6MOL   C343 2953   6.219   2.404   0.125  0.9736  0.2375 -0.3492
    6MOL   C344 2954   6.322   2.389   0.033  0.1978  0.0971  0.0624
    6MOL   C345 2955   6.365   2.257   8.227 -0.0105  0.5101 -0.3791
    6MOL   C346 2956   6.303   2.144   0.056  0.0537  0.6038  0.4910
    6MOL   C347 2957   6.195   2.162   0.140 -0.1177  0.3321  0.2508
    6MOL   C348 2958   6.163   2.288   0.185  0.5977  0.3673  0.0913
    6MOL   C349 2959   6.372   2.522   8.227  0.2044  0.8964  0.2494
    6MOL   C350 2960   6.289   2.613   0.073  0.1447 -0.4944  0.2360
    6MOL   C351 2961   6.323   2.752   0.076 -0.1709  0.0524 -0.4808
    6MOL   C352 2962   6.436   2.801   0.002 -0.1506  1.0937  0.4202
    6MOL   C353 2963   6.521   2.715   8.159  1.7078  0.9931  0.8963
    6MOL   C354 2964   6.485   2.577   8.151 -0.5358  1.2201 -0.0241
    6MOL   H355 2965   6.077   2.761   0.079 -2.0426 -0.0392 -2.8967
    6MOL   H356 2966   5.974   2.771   0.216  1.0305  0.4983 -0.2584
    6MOL   H357 2967   6.012   2.513   0.233  0.4543 -0.7566  2.5728
    6MOL   H358 2968   6.443   2.254   8.153 -1.2200 -1.0867 -1.6364
    6MOL   H359 2969   6.333   2.045   0.025  0.1378 -0.9903  5.3204
    6MOL   H360 2970   6.140   2.076   0.175  0.3538  0.0152  0.2040
    6MOL   H361 2971   6.083   2.296   0.257 -0.2355 -1.5342 -0.5785
    6MOL   H362 2972   6.269   2.825   0.134 -1.9939  0.2966 -2.4020
    6MOL   H363 2973   6.456   2.906   0.012  1.4173  0.8276  0.2527
    6MOL   H364 2974   6.605   2.751   8.101  1.4537 -0.6027 -0.4848
    6MOL   H365 2975   6.537   2.505   8.090 -0.7282  0.8897  0.1965
    6MOL   C366 2976   6.146   2.644   0.358 -0.0652  0.1745  0.3889
    6MOL   C367 2977   6.059   2.689   0.473 -0.0444 -0.0625 -0.2658
    6MOL   N368 2978   5.917   2.678   0.449  0.3426 -0.5011  0.3156
    6MOL   C369 2979   5.827   2.782   0.445 -0.4440  0.5174  0.3613
    6MOL   C370 2980   5.694   2.734   0.433  0.0807  1.3416 -0.4627
    6MOL   C371 2981   5.585   2.822   0.439 -0.7676 -0.2286  0.1396
    6MOL   C372 2982   5.616   2.960   0.459  0.8901  0.3798 -0.2967
    6MOL   C373 2983   5.745   3.013   0.455  0.2346  0.3677 -0.0753
    6MOL   C374 2984   5.851   2.920   0.458  0.2185 -0.3668 -0.7281
    6MOL   C375 2985   5.697   2.592   0.428  0.1021 -0.0328 -0.4013
    6MOL   C376 2986   5.837   2.557   0.451 -1.0276 -0.3954  0.4296
    6MOL   C377 2987   5.875   2.420   0.466 -0.9206  0.2744  0.0550
    6MOL   C378 2988   5.772   2.326   0.477 -0.6120  0.0151  0.0445
    6MOL   C379 2989   5.638   2.358   0.436  0.2344 -0.6629  0.5524
    6MOL   C380 2990   5.603   2.487   0.407  0.4139 -0.3159  0.4343
    6MOL   H381 2991   6.209   2.565   0.399  0.2769  0.2789  0.0681
    6MOL   H382 2992   6.210   2.729   0.335 -0.0757 -0.1575 -0.9610
    6MOL   H383 2993   6.084   2.795   0.474 -0.0028 -0.0528 -1.4361
    6MOL   H384 2994   5.488   2.775   0.436 -0.4163 -1.0811  1.5397
    6MOL   H385 2995   5.532   3.029   0.461  0.9438  0.4659 -1.0278
    6MOL   H386 2996   5.758   3.119   0.466  1.3629  0.3682 -1.3268
    6MOL   H387 2997   5.952   2.958   0.456 -0.2733  1.2119  1.7433
    6MOL   H388 2998   5.979   2.399   0.490 -0.3785  1.2224 -1.3906
    6MOL   H389 2999   5.784   2.225   0.513 -4.6017 -1.5997 -2.8285
    6MOL   H390 3000   5.559   2.284   0.440 -1.1030  0.7499  0.7141
    6MOL   H391 3001   5.501   2.516   0.384  1.0334 -0.0372 -2.1383
    6MOL   C392 3002   6.096   2.627   0.605 -0.9743  0.9794  0.4313
    6MOL   C393 3003   5.998   2.635   0.726  0.9361 -0.0060  0.0664
    6MOL   N394 3004   6.021   2.536   0.831 -0.3820  0.3827  0.1464
    6MOL   C395 3005   5.924   2.442   0.877 -0.6741  0.0988 -0.0331
    6MOL   C396 3006   5.991   2.345   0.957 -0.0815 -0.4057  0.1399
    6MOL   C397 3007   5.919   2.238   1.013 -0.2481 -0.4767  0.1557
    6MOL   C398 3008   5.785   2.219   0.984  0.2107  0.2758  0.3362
    6MOL   C399 3009   5.714   2.312   0.898 -0.5662 -0.5307 -1.3428
    6MOL   C400 3010   5.785   2.421   0.849 -0.9401 -0.0669  0.0974
    6MOL   C401 3011   6.127   2.389   0.972  0.0282  0.1010  0.0923
    6MOL   C402 3012   6.141   2.509   0.901  0.0614  0.2419 -0.3746
    6MOL   C403 3013   6.265   2.570   0.895  0.0537  0.1886  0.5875
    6MOL   C404 3014   6.381   2.515   0.954  0.3802  0.1121 -0.2514
    6MOL   C405 3015   6.369   2.396   1.030 -0.1213 -0.2138  0.3750
    6MOL   C406 3016   6.243   2.329   1.030 -0.2868 -0.7590 -0.5166
    6MOL   H407 3017   6.118   2.521   0.596  2.3894  1.7287 -0.9137
    6MOL   H408 3018   6.200   2.656   0.623 -0.8671  0.2631  1.0102
    6MOL   H409 3019   5.895   2.616   0.692  0.3509  0.7207  1.4266
    6MOL   H410 3020   5.967   2.163   1.075 -0.4868 -0.7368  0.0259
    6MOL   H411 3021   5.736   2.134   1.028  2.7313 -1.2812  0.2195
    6MOL   H412 3022   5.609   2.298   0.876 -1.1377  2.3253 -0.6453
    6MOL   H413 3023   5.739   2.485   0.775 -1.0619 -1.2141 -0.8272
    6MOL   H414 3024   6.270   2.651   0.823 -0.4763 -1.6069 -1.5183
    6MOL   H415 3025   6.478   2.559   0.939  1.2705 -1.5148  0.5473
    6MOL   H416 3026   6.452   2.359   1.089  1.2232  1.0618 -0.6655
    6MOL   H417 3027   6.230   2.237   1.084  0.1524 -1.2256 -1.2055
    6MOL   C418 3028   5.994   2.774   0.790  0.3803  0.0984  1.0528
    6MOL   C419 3029   5.869   2.806   0.877 -0.1367  0.5668 -0.2888
    6MOL   N420 3030   5.882   2.917   0.965  0.7954  0.7801 -0.4440
    6MOL   C421 3031   5.867   2.921   1.105  0.3099  0.2799  0.1184
    6MOL   C422 3032   5.855   3.058   1.145  0.0393  0.6830  0.2823
    6MOL   C423 3033   5.821   3.090   1.280 -0.4561 -0.0195 -0.1716
    6MOL   C424 3034   5.813   2.989   1.372 -0.0017 -0.2961  0.1404
    6MOL   C425 3035   5.839   2.856   1.336  0.4222  0.2167  0.1204
    6MOL   C426 3036   5.860   2.820   1.204 -1.3049  0.0814 -0.1092
    6MOL   C427 3037   5.875   3.142   1.031 -0.6892  0.7568 -0.5736
    6MOL   C428 3038   5.899   3.048   0.921  0.4696  0.1313 -0.4832
    6MOL   C429 3039   5.917   3.105   0.788  0.4705  0.0675 -0.1987
    6MOL   C430 3040   5.897   3.245   0.765  1.3339  0.5548 -0.2643
    6MOL   C431 3041   5.868   3.330   0.872 -0.4688 -0.7773 -0.2424
    6MOL   C432 3042   5.860   3.278   1.002  0.5396  0.1540 -0.3873
    6MOL   H433 3043   6.085   2.798   0.844  0.1386  1.5369  0.8310
    6MOL   H434 3044   5.988   2.838   0.702 -4.6903 -1.2610  0.2337
    6MOL   H435 3045   5.857   2.722   0.945 -2.0586  0.0851 -1.1790
    6MOL   H436 3046   5.801   3.191   1.312  0.4243 -0.0536  0.5004
    6MOL   H437 3047   5.787   3.014   1.473  0.4299  1.2136 -0.1118
    6MOL   H438 3048   5.826   2.777   1.407  2.3382  0.4372  0.7354
    6MOL   H439 3049   5.877   2.719   1.173  2.9021  0.3178  1.0744
    6MOL   H440 3050   5.930   3.041   0.702 -2.2883 -0.0523 -0.5763
    6MOL   H441 3051   5.914   3.287   0.667  1.9570 -2.7168 -1.6118
    6MOL   H442 3052   5.862   3.434   0.842  0.8478 -0.5591  0.2189
    6MOL   H443 3053   5.832   3.331   1.092 -3.6117 -1.3170 -0.7031
    6MOL   C444 3054   5.738   2.815   0.796 -0.2954  0.7040  0.2422
    6MOL   C445 3055   5.610   2.836   0.881  0.1910 -0.4755  0.6268
    6MOL   N446 3056   5.500   2.889   0.804  0.7724 -0.2245  0.3603
    6MOL   C447 3057   5.471   3.025   0.777  1.1516  0.0055 -0.3729
    6MOL   C448 3058   5.359   3.031   0.693  0.1297 -0.9531  0.1570
    6MOL   C449 3059   5.308   3.158   0.659 -0.1631  0.2107  0.5770
    6MOL   C450 3060   5.381   3.271   0.692  0.7699  0.6892  0.0824
    6MOL   C451 3061   5.502   3.260   0.764  0.3332  0.5137 -0.2306
    6MOL   C452 3062   5.540   3.141   0.818 -0.0426 -0.1900 -0.3745
    6MOL   C453 3063   5.323   2.898   0.657 -0.3079  0.5236  0.0238
    6MOL   C454 3064   5.419   2.814   0.723  0.0706 -0.3850 -0.6098
    6MOL   C455 3065   5.421   2.678   0.689 -0.9364  0.0961 -0.5740
    6MOL   C456 3066   5.332   2.621   0.599 -0.0364  1.0233 -0.4809
    6MOL   C457 3067   5.225   2.700   0.548 -0.1482 -0.2162  0.3353
    6MOL   C458 3068   5.225   2.837   0.575 -0.1506 -0.5078  0.9059
    6MOL   H459 3069   5.755   2.900   0.729  1.6546  1.2008  1.3455
    6MOL   H460 3070   5.724   2.731   0.727  1.0117  0.7881 -0.1242
    6MOL   H461 3071   5.624   2.915   0.955  2.6670 -0.8372  0.5893
    6MOL   H462 3072   5.217   3.175   0.602  0.6786  1.3226 -0.4519
    6MOL   H463 3073   5.352   3.371   0.666  2.0790  1.0770  0.0699
    6MOL   H464 3074   5.562   3.347   0.789  0.9136 -0.4804  1.9485
    6MOL   H465 3075   5.634   3.147   0.872  0.0772  1.4882 -0.7541
    6MOL   H466 3076   5.494   2.620   0.743 -1.8816 -2.3802 -1.8863
    6MOL   H467 3077   5.341   2.515   0.585 -1.7656  0.7557  0.2710
    6MOL   H468 3078   5.152   2.659   0.481  0.7401 -0.0080 -0.7714
    6MOL   H469 3079   5.143   2.896   0.535  0.4066  0.4806  1.2129
    6MOL   C470 3080   5.576   2.721   0.980  0.0489  0.0750  0.5176
    6MOL   C471 3081   5.460   2.737   1.079  0.4767  0.0275  0.1226
    6MOL   N472 3082   5.392   2.608   1.109  0.1527  0.1312  0.3592
    6MOL   C473 3083   5.269   2.562   1.064 -0.0114 -0.2418  0.9744
    6MOL   C474 3084   5.232   2.442   1.129  0.2931 -0.2136  0.0625
    6MOL   C475 3085   5.098   2.391   1.107  0.5344  0.2517 -0.2936
    6MOL   C476 3086   5.008   2.461   1.025 -0.5341 -0.6693  0.0020
    6MOL   C477 3087   5.046   2.582   0.962  0.7804 -0.0839  0.4378
    6MOL   C478 3088   5.177   2.630   0.977 -0.4638  0.6944 -0.4905
    6MOL   C479 3089   5.354   2.404   1.202  0.0649  0.6811  0.0997
    6MOL   C480 3090   5.450   2.509   1.189 -0.0528  0.7657  0.4396
    6MOL   C481 3091   5.580   2.495   1.238 -0.4600 -0.0157 -0.9480
    6MOL   C482 3092   5.616   2.373   1.299  0.1767 -0.4624 -0.5313
    6MOL   C483 3093   5.526   2.268   1.313  0.1082  0.2713 -0.2972
    6MOL   C484 3094   5.397   2.287   1.265 -0.1446  0.2238  0.4860
    6MOL   H485 3095   5.568   2.627   0.925 -0.9046 -2.1119  4.2351
    6MOL   H486 3096   5.668   2.694   1.032  1.3005 -1.2548 -2.2316
    6MOL   H487 3097   5.388   2.796   1.022  0.6200  0.0344 -0.0503
    6MOL   H488 3098   5.071   2.302   1.161  1.1790  1.0348  1.3722
    6MOL   H489 3099   4.909   2.420   1.014 -1.3605  0.9646  1.2334
    6MOL   H490 3100   4.976   2.634   0.899 -1.3297 -1.4031  1.6377
    6MOL   H491 3101   5.199   2.729   0.940  1.4458  1.2717  2.0057
    6MOL   H492 3102   5.665   2.561   1.226 -1.4680  1.2243 -1.3874
    6MOL   H493 3103   5.719   2.357   1.325  0.6034 -0.7809 -2.3584
    6MOL   H494 3104   5.552   2.173   1.357  0.9165  0.6077 -0.0282
    6MOL   H495 3105   5.339   2.196   1.262  0.6755 -0.2670 -0.3357
    6MOL   C496 3106   5.498   2.819   1.209  0.0854  0.3288 -0.0755
    6MOL   C497 3107   5.390   2.804   1.318  0.3999 -0.2953  0.0347
    6MOL   N498 3108   5.445   2.849   1.446  0.1161  1.0286 -0.4782
    6MOL   C499 3109   5.507   2.776   1.544  0.2117  0.2545 -0.2283
    6MOL   C500 3110   5.556   2.861   1.646 -0.3912 -0.4127  0.2604
    6MOL   C501 3111   5.629   2.812   1.752  0.2614  0.4520  0.3354
    6MOL   C502 3112   5.648   2.670   1.763  0.3559  0.0448 -0.2994
    6MOL   C503 3113   5.600   2.583   1.666  0.3039  0.0953 -0.3558
    6MOL   C504 3114   5.528   2.635   1.551  0.2064  0.3209  0.8490
    6MOL   C505 3115   5.523   2.994   1.608 -0.0326  0.4624 -0.4599
    6MOL   C506 3116   5.459   2.984   1.484  0.4542 -0.0899  0.2720
    6MOL   C507 3117   5.415   3.102   1.420  0.3490  0.1970  0.0461
    6MOL   C508 3118   5.422   3.231   1.472  0.1631 -0.4947  0.1244
    6MOL   C509 3119   5.485   3.244   1.597  0.1862  0.2651 -0.0498
    6MOL   C510 3120   5.538   3.129   1.664  0.6541 -0.1239 -0.0086
    6MOL   H511 3121   5.590   2.773   1.245 -0.4442 -0.6392  0.0598
    6MOL   H512 3122   5.508   2.923   1.179 -0.8571 -0.4298 -3.2164
    6MOL   H513 3123   5.347   2.705   1.332 -0.9235  0.6468  2.9496
    6MOL   H514 3124   5.646   2.884   1.830 -1.3472  0.9523  0.2592
    6MOL   H515 3125   5.697   2.625   1.849 -0.1786  1.6889  0.8849
    6MOL   H516 3126   5.622   2.477   1.669 -0.1598  0.0258  1.0959
    6MOL   H517 3127   5.497   2.564   1.476  2.1941  1.1656 -0.8388
    6MOL   H518 3128   5.353   3.100   1.331 -1.0260  0.2517  0.9797
    6MOL   H519 3129   5.400   3.321   1.416  2.1891 -0.2029 -0.2480
    6MOL   H520 3130   5.504   3.340   1.643  2.2905 -1.5368  3.0181
    6MOL   H521 3131   5.571   3.143   1.766 -0.4168 -1.3113  0.5043
    6MOL   H522 3132   5.305   2.867   1.293 -0.2281 -1.0561  0.2479
    7MOL     C1 3133   2.329   0.040   0.777  1.0115 -0.4797 -0.8927
    7MOL     C2 3134   2.367   0.076   0.928 -0.8387 -1.0354 -0.1551
    7MOL     N3 3135   2.380   0.222   0.941  0.2779  0.2553  0.0984
    7MOL     C4 3136   2.499   0.296   0.945  0.3434  0.1625  0.6278
    7MOL     C5 3137   2.465   0.435   0.965  0.9032  0.5290  0.2800
    7MOL     C6 3138   2.563   0.532   0.980  0.5173  0.1356  0.1255
    7MOL     C7 3139   2.695   0.497   0.961 -0.2514 -0.3212  0.1960
    7MOL     C8 3140   2.728   0.363   0.931 -0.2977 -0.0447  0.4967
    7MOL     C9 3141   2.634   0.256   0.932  0.1661 -0.8688 -0.5864
    7MOL    C10 3142   2.322   0.440   0.959  0.4305 -0.7407 -0.0801
    7MOL    C11 3143   2.271   0.311   0.940  0.1379 -0.5743 -1.0371
    7MOL    C12 3144   2.128   0.299   0.926 -0.1478  0.1063  0.1219
    7MOL    C13 3145   2.044   0.411   0.931  0.9054 -0.0526 -0.2245
    7MOL    C14 3146   2.097   0.542   0.949 -0.6478  0.0359 -0.1002
    7MOL    C15 3147   2.234   0.555   0.948  0.1125 -0.2177 -0.4508
    7MOL    H16 3148   2.338   8.160   0.761  1.3110 -0.3486 -1.5969
    7MOL    H17 3149   2.400   0.080   0.705  1.1163 -4.6999 -3.3007
    7MOL    H18 3150   2.468   0.036   0.939 -0.1786  1.0018  1.4111
    7MOL    H19 3151   2.535   0.635   0.993 -0.8104 -0.2666  0.4852
    7MOL    H20 3152   2.778   0.566   0.964  0.3701 -1.1221  3.3626
    7MOL    H21 3153   2.833   0.349   0.910 -0.4910 -1.4287  0.4511
    7MOL    H22 3154   2.664   0.152   0.926  3.5477  0.0660 -1.1153
    7MOL    H23 3155   2.073   0.207   0.910 -1.1158  0.5739  0.6816
    7MOL    H24 3156   1.938   0.394   0.918  1.0748 -0.5291 -1.0077
    7MOL    H25 3157   2.029   0.624   0.928 -2.4678 -1.3244  0.3207
    7MOL    H26 3158   2.277   0.652   0.970 -2.3740  1.1463 -1.4135
    7MOL    H27 3159   2.229   0.080   0.766  1.0267 -0.3555 -0.5934
    7MOL    C28 3160   2.272   0.009   1.030 -0.2077  0.4940 -0.2395
    7MOL    C29 3161   2.344   8.200   1.165  0.2546  0.7825 -0.4402
    7MOL    N30 3162   2.430   0.069   1.231  0.4144 -0.2884  0.1721
    7MOL    C31 3163   2.569   0.066   1.234 -0.0820  0.2592 -0.3146
    7MOL    C32 3164   2.622   0.186   1.283  0.2916 -0.3379 -0.0954
    7MOL    C33 3165   2.764   0.207   1.283  0.2505 -0.7866  0.0863
    7MOL    C34 3166   2.848   0.112   1.223  0.7369  0.6512  0.2976
    7MOL    C35 3167   2.795   8.217   1.179 -0.8582  0.2645 -0.3437
    7MOL    C36 3168   2.655   8.195   1.191 -0.2491  0.0630 -0.6599
    7MOL    C37 3169   2.513   0.266   1.330  0.3411  0.0241  0.0921
    7MOL    C38 3170   2.400   0.194   1.287  0.9925 -0.0868  0.0703
    7MOL    C39 3171   2.273   0.258   1.291 -0.0748 -0.3000 -0.1444
    7MOL    C40 3172   2.257   0.386   1.344 -0.1833  0.4824  0.2138
    7MOL    C41 3173   2.365   0.441   1.411  0.6679 -0.4694  0.2369
    7MOL    C42 3174   2.493   0.383   1.402  0.7039 -0.0192  0.0631
    7MOL    H43 3175   2.190   0.077   1.053  1.6541  2.5247  0.6000
    7MOL    H44 3176   2.227   8.152   0.977 -1.6384  1.1175 -0.0328
    7MOL    H45 3177   2.407   8.113   1.145 -0.8046 -0.4178  1.2941
    7MOL    H46 3178   2.803   0.299   1.323  1.3739  0.2497 -3.2342
    7MOL    H47 3179   2.953   0.135   1.230  0.8500  0.7199 -1.3840
    7MOL    H48 3180   2.865   8.143   1.143  0.4189  0.7050  1.1615
    7MOL    H49 3181   2.610   8.101   1.159 -2.5299  1.0756 -0.5377
    7MOL    H50 3182   2.186   0.212   1.247  0.8405 -1.6644 -0.5750
    7MOL    H51 3183   2.161   0.430   1.323 -0.5151 -0.9178 -1.3647
    7MOL    H52 3184   2.347   0.545   1.436 -1.6119 -0.7213 -0.1822
    7MOL    H53 3185   2.572   0.446   1.440  0.0881  1.6855 -1.4136
    7MOL    C54 3186   2.244   8.144   1.272  0.2470 -0.0294  0.4783
    7MOL    C55 3187   2.178   8.012   1.247  0.2654  0.1583 -0.3292
    7MOL    N56 3188   2.268   7.897   1.229 -0.0609  0.3817 -0.2614
    7MOL    C57 3189   2.283   7.814   1.111  0.0761 -1.0222  0.3764
    7MOL    C58 3190   2.382   7.715   1.145 -0.1552  0.1792  0.3716
    7MOL    C59 3191   2.417   7.622   1.043  0.4519 -0.0306  1.5264
    7MOL    C60 3192   2.347   7.620   0.925 -0.3729  0.7352  0.7655
    7MOL    C61 3193   2.256   7.720   0.889  0.0025  0.0867 -0.0869
    7MOL    C62 3194   2.219   7.823   0.983  0.2400  0.0762 -0.1587
    7MOL    C63 3195   2.423   7.730   1.280 -0.2956 -0.2730 -0.1599
    7MOL    C64 3196   2.359   7.852   1.323 -0.2570  0.8466 -0.2237
    7MOL    C65 3197   2.393   7.902   1.451  0.1389  0.3129 -0.1212
    7MOL    C66 3198   2.490   7.836   1.532 -0.3881  0.2608 -0.4141
    7MOL    C67 3199   2.558   7.722   1.491  0.3197  0.0717 -0.2895
    7MOL    C68 3200   2.523   7.669   1.364  0.1388  0.4024  0.0869
    7MOL    H69 3201   2.285   8.153   1.372  0.0048 -0.7207  0.6441
    7MOL    H70 3202   2.163   8.217   1.271  2.6923  2.7788 -0.3429
    7MOL    H71 3203   2.126   8.019   1.151 -0.8255 -1.9432  0.0866
    7MOL    H72 3204   2.481   7.536   1.057  1.2672  0.2448 -0.3525
    7MOL    H73 3205   2.358   7.543   0.850  0.6949  1.5474  0.0692
    7MOL    H74 3206   2.200   7.703   0.799 -0.6094 -2.2918  0.7004
    7MOL    H75 3207   2.157   7.907   0.958  1.5511  0.6553 -1.5222
    7MOL    H76 3208   2.343   7.989   1.491 -1.6107 -0.6353 -0.2025
    7MOL    H77 3209   2.505   7.872   1.633  0.3689  0.8853 -0.7464
    7MOL    H78 3210   2.632   7.676   1.555  0.4731  0.1287 -0.4242
    7MOL    H79 3211   2.575   7.581   1.331  1.3448  1.4591 -0.8657
    7MOL    C80 3212   2.068   7.972   1.346 -0.4818  0.7227  0.3910
    7MOL    C81 3213   1.937   8.046   1.332  0.5896  0.3110  0.5267
    7MOL    N82 3214   1.884   8.057   1.199 -0.5589 -0.7241  0.4069
    7MOL    C83 3215   1.847   8.179   1.142 -0.2437 -0.0199 -0.4868
    7MOL    C84 3216   1.811   8.158   1.006 -0.9632 -0.5391  0.5836
    7MOL    C85 3217   1.776   0.041   0.927 -0.1116  0.1795  0.3336
    7MOL    C86 3218   1.788   0.169   0.976 -0.3304 -0.1565 -0.2640
    7MOL    C87 3219   1.815   0.191   1.110 -0.1686 -0.1749 -0.4206
    7MOL    C88 3220   1.843   0.082   1.196 -0.0246 -0.5841  0.7584
    7MOL    C89 3221   1.833   8.019   0.981 -0.3468 -0.0095 -0.5160
    7MOL    C90 3222   1.865   7.961   1.102 -0.7017  0.1436  0.1117
    7MOL    C91 3223   1.883   7.821   1.106 -0.2918 -0.4696 -0.4296
    7MOL    C92 3224   1.887   7.743   0.986  0.5271  0.1529 -0.4471
    7MOL    C93 3225   1.859   7.800   0.861 -0.3686  0.2769  0.6730
    7MOL    C94 3226   1.824   7.936   0.862 -0.2686 -0.4874 -0.3930
    7MOL    H95 3227   2.054   7.864   1.342  4.0663  0.0395  1.1358
    7MOL    H96 3228   2.112   7.989   1.443 -0.2483  0.8192  0.2681
    7MOL    H97 3229   1.957   8.151   1.357 -0.6053  0.8359 -0.6533
    7MOL    H98 3230   1.757   0.022   0.822 -1.0901  1.3380  0.2915
    7MOL    H99 3231   1.774   0.256   0.913 -0.8971  0.8513  1.2119
    7MOL   H100 3232   1.804   0.293   1.143 -1.4087  0.7212 -3.4857
    7MOL   H101 3233   1.873   0.099   1.298 -0.0951 -0.0902  0.7006
    7MOL   H102 3234   1.912   7.784   1.204 -1.1086 -1.8734 -0.7107
    7MOL   H103 3235   1.916   7.639   0.993 -0.4874  0.0153  2.1176
    7MOL   H104 3236   1.875   7.744   0.770 -0.3863 -0.9868  1.4195
    7MOL   H105 3237   1.791   7.982   0.770  2.5036  1.4306 -0.4898
    7MOL   C106 3238   1.832   7.991   1.438  0.5880  0.4025  0.6172
    7MOL   C107 3239   1.861   8.033   1.583  0.3463  0.6250  0.3690
    7MOL   N108 3240   1.882   8.179   1.608 -0.0669  0.3686  0.7609
    7MOL   C109 3241   2.001   0.007   1.668 -0.3147 -0.4194 -0.0578
    7MOL   C110 3242   1.996   0.149   1.648 -0.4294 -0.4044  0.2850
    7MOL   C111 3243   2.105   0.234   1.692 -0.9036  0.2509 -0.4970
    7MOL   C112 3244   2.216   0.165   1.752  0.4681 -0.7077 -0.7019
    7MOL   C113 3245   2.228   0.025   1.763  0.1920  0.4714 -0.2328
    7MOL   C114 3246   2.115   8.171   1.728  0.3535 -0.6987  0.5126
    7MOL   C115 3247   1.878   0.181   1.579 -0.7060  0.1479 -0.7920
    7MOL   C116 3248   1.808   0.057   1.565  0.2714  0.3238 -0.5664
    7MOL   C117 3249   1.687   0.057   1.499  1.2683  0.5417  0.2691
    7MOL   C118 3250   1.631   0.179   1.450  0.5830  0.2078  0.4324
    7MOL   C119 3251   1.698   0.301   1.465  0.3247 -0.1270 -0.0310
    7MOL   C120 3252   1.816   0.300   1.538 -0.5467  0.6313 -0.3942
    7MOL   H121 3253   1.725   8.003   1.421  0.6371 -1.7528 -1.5690
    7MOL   H122 3254   1.828   7.884   1.414 -1.6714  0.4724  0.6086
    7MOL   H123 3255   1.961   7.994   1.600 -0.3287 -1.0315  0.6231
    7MOL   H124 3256   2.105   0.341   1.685  3.4669  0.3677 -0.1547
    7MOL   H125 3257   2.298   0.232   1.774 -1.3343  1.7090 -1.1323
    7MOL   H126 3258   2.317   8.210   1.807 -0.4694  1.9632  2.6928
    7MOL   H127 3259   2.116   8.064   1.733  2.9316 -0.6951  0.9631
    7MOL   H128 3260   1.637   8.192   1.473  1.0512  0.6063  0.4557
    7MOL   H129 3261   1.530   0.189   1.411  0.4776 -0.1392  0.6138
    7MOL   H130 3262   1.651   0.389   1.422  1.0319 -0.3148 -1.2076
    7MOL   H131 3263   1.859   0.398   1.553  2.6150 -0.8708  0.5421
    7MOL   C132 3264   1.768   7.970   1.689  0.5401  0.0296 -0.1417
    7MOL   C133 3265   1.752   7.817   1.665  0.1507  0.5239 -0.4591
    7MOL   N134 3266   1.867   7.744   1.625  0.2020 -0.4593 -0.7130
    7MOL   C135 3267   1.885   7.654   1.519  0.3021  0.1581  0.3905
    7MOL   C136 3268   2.022   7.618   1.499 -0.4634  0.5328 -0.3158
    7MOL   C137 3269   2.065   7.549   1.384 -0.3934 -0.3304 -0.4995
    7MOL   C138 3270   1.969   7.508   1.286 -0.2155 -0.2981 -0.2555
    7MOL   C139 3271   1.831   7.531   1.310 -0.4500  0.1720  0.6812
    7MOL   C140 3272   1.792   7.609   1.421  0.2718  0.2153  0.9738
    7MOL   C141 3273   2.090   7.671   1.615 -0.4031  0.2413 -0.1913
    7MOL   C142 3274   1.990   7.744   1.690 -0.1767  0.2961  0.5569
    7MOL   C143 3275   2.025   7.788   1.821 -0.0709 -0.5503 -0.1784
    7MOL   C144 3276   2.153   7.761   1.873 -0.1943 -0.2466  0.2289
    7MOL   C145 3277   2.259   7.708   1.794  0.6328  0.0911  0.0809
    7MOL   C146 3278   2.223   7.663   1.662  0.4106  0.2479  0.4511
    7MOL   H147 3279   1.817   7.982   1.785 -2.9100  0.0441  1.6887
    7MOL   H148 3280   1.672   8.022   1.696 -0.0194 -0.7263 -1.6922
    7MOL   H149 3281   1.684   7.801   1.581 -1.5931 -2.2591  1.4170
    7MOL   H150 3282   2.169   7.537   1.356 -0.5939 -0.7177 -1.0601
    7MOL   H151 3283   1.995   7.467   1.189 -0.4611 -0.3966 -0.2804
    7MOL   H152 3284   1.755   7.507   1.237 -0.3809  0.9144  0.3594
    7MOL   H153 3285   1.689   7.640   1.432  0.0600 -0.5564  1.1300
    7MOL   H154 3286   1.960   7.838   1.892  1.0221  1.3450 -0.4547
    7MOL   H155 3287   2.180   7.781   1.976 -1.4983  0.6374  0.4128
    7MOL   H156 3288   2.360   7.697   1.830  0.8926  1.8375 -0.0458
    7MOL   H157 3289   2.293   7.603   1.606 -1.7550 -2.0016  0.1118
    7MOL   C158 3290   1.688   7.743   1.787 -0.1504 -0.2990  0.3798
    7MOL   C159 3291   1.538   7.762   1.802  0.0413 -0.3733  0.2507
    7MOL   N160 3292   1.454   7.752   1.686 -0.7110 -0.3459  0.1699
    7MOL   C161 3293   1.385   7.856   1.629  0.1914  0.2634  0.3838
    7MOL   C162 3294   1.292   7.804   1.533  0.4119 -0.3098 -0.8934
    7MOL   C163 3295   1.197   7.893   1.475  0.2375  0.2333 -0.0371
    7MOL   C164 3296   1.197   8.031   1.502 -0.1349 -0.9448  0.3007
    7MOL   C165 3297   1.289   8.081   1.600 -0.7939 -0.5272 -0.1392
    7MOL   C166 3298   1.375   7.990   1.663 -0.5318  0.5422  0.0185
    7MOL   C167 3299   1.312   7.662   1.524  0.7025  0.1015 -0.2541
    7MOL   C168 3300   1.422   7.637   1.611  0.0879 -0.1847  0.1657
    7MOL   C169 3301   1.484   7.512   1.614 -0.0293 -0.4490  0.5556
    7MOL   C170 3302   1.423   7.403   1.551 -0.2734 -0.3278  0.1997
    7MOL   C171 3303   1.312   7.419   1.474  0.1401 -0.0328 -0.6925
    7MOL   C172 3304   1.257   7.550   1.460 -0.0427 -0.9983  0.1426
    7MOL   H173 3305   1.709   7.638   1.769  1.2902  0.4774 -2.7598
    7MOL   H174 3306   1.747   7.768   1.875 -1.9422  2.5682  0.8098
    7MOL   H175 3307   1.532   7.865   1.836 -0.3212  0.2658 -1.6961
    7MOL   H176 3308   1.127   7.857   1.401  0.8522 -1.3574  0.1362
    7MOL   H177 3309   1.132   8.100   1.450 -0.3609 -2.1757 -1.0748
    7MOL   H178 3310   1.290   8.185   1.631  2.7850 -0.3816 -0.4926
    7MOL   H179 3311   1.443   8.034   1.735  1.2393 -1.5128 -0.3494
    7MOL   H180 3312   1.578   7.482   1.657  1.2798  1.9204 -0.5741
    7MOL   H181 3313   1.462   7.304   1.565 -1.3405 -0.6459  1.0280
    7MOL   H182 3314   1.262   7.333   1.433  1.3833 -0.5016 -1.2340
    7MOL   H183 3315   1.171   7.577   1.401  1.0534  1.4938 -0.3599
    7MOL   C184 3316   1.483   7.669   1.914  0.6285 -0.3552  0.1276
    7MOL   C185 3317   1.508   7.714   2.055 -0.2471 -0.1321 -0.2570
    7MOL   N186 3318   1.493   7.858   2.085  0.2757 -0.2718  0.4094
    7MOL   C187 3319   1.602   7.946   2.102 -0.7718 -0.3310  0.3248
    7MOL   C188 3320   1.547   8.080   2.102  0.1165 -0.7702  0.0621
    7MOL   C189 3321   1.642   8.189   2.104  0.0610 -0.4811  0.3432
    7MOL   C190 3322   1.782   8.166   2.107  0.0438 -1.0692  0.0234
    7MOL   C191 3323   1.828   8.033   2.104 -0.3159  0.0917 -0.1907
    7MOL   C192 3324   1.740   7.922   2.095  0.1032 -0.1215  0.3337
    7MOL   C193 3325   1.400   8.070   2.100 -0.1665 -0.3055 -0.7005
    7MOL   C194 3326   1.372   7.933   2.095 -0.0954  0.2188 -0.0385
    7MOL   C195 3327   1.234   7.891   2.097  0.0674  0.0438  0.2093
    7MOL   C196 3328   1.129   7.986   2.100  0.1021  0.7212 -0.1568
    7MOL   C197 3329   1.164   8.123   2.099 -0.3542  0.1620 -0.4384
    7MOL   C198 3330   1.295   8.167   2.101 -0.9348  0.1501 -0.2365
    7MOL   H199 3331   1.374   7.668   1.911  0.6494 -1.2203 -0.5202
    7MOL   H200 3332   1.518   7.567   1.903  0.1951 -0.4827 -0.0882
    7MOL   H201 3333   1.611   7.693   2.082 -0.6864 -0.6824  1.0528
    7MOL   H202 3334   1.608   0.064   2.099  0.3160 -0.4714 -1.6996
    7MOL   H203 3335   1.848   0.024   2.111 -0.4834 -0.6114 -0.8723
    7MOL   H204 3336   1.933   8.007   2.103 -0.0820  1.0624 -1.5368
    7MOL   H205 3337   1.775   7.820   2.096 -1.1373 -0.5416  2.8481
    7MOL   H206 3338   1.203   7.788   2.096  0.8530 -0.1887 -0.4107
    7MOL   H207 3339   1.027   7.949   2.093  0.2316  0.4609 -0.7624
    7MOL   H208 3340   1.086   8.198   2.100 -0.6194 -0.0741 -2.0077
    7MOL   H209 3341   1.316   0.046   2.103 -1.3911  0.2307  1.1468
    7MOL   C210 3342   1.438   7.616   2.164  0.1365  0.2620  0.3658
    7MOL   C211 3343   1.442   7.661   2.309  0.0060  0.1243 -0.4493
    7MOL   N212 3344   1.319   7.725   2.365  0.2448 -0.0868 -0.1666
    7MOL   C213 3345   1.316   7.843   2.439  0.0040 -0.0336 -0.0196
    7MOL   C214 3346   1.188   7.860   2.496  0.0365  0.4732  0.0171
    7MOL   C215 3347   1.167   7.973   2.577  0.2207  0.2932 -0.1605
    7MOL   C216 3348   1.271   8.065   2.600 -0.3207 -0.5266  0.4490
    7MOL   C217 3349   1.393   8.051   2.536 -0.0108  0.0498  0.2901
    7MOL   C218 3350   1.418   7.939   2.455 -0.2876  0.1989  0.2670
    7MOL   C219 3351   1.106   7.753   2.454  0.0840  1.0189 -0.2087
    7MOL   C220 3352   1.192   7.673   2.375  0.3648  0.1291  0.4170
    7MOL   C221 3353   1.142   7.552   2.307  0.8442  0.9843 -0.2345
    7MOL   C222 3354   1.006   7.512   2.326  0.2289  0.0444 -0.9511
    7MOL   C223 3355   0.920   7.589   2.412 -0.4827 -0.2048  0.5992
    7MOL   C224 3356   0.971   7.708   2.475  0.0098  0.4302 -0.4849
    7MOL   H225 3357   1.336   7.606   2.127 -0.2045  2.8872  0.4718
    7MOL   H226 3358   1.465   7.512   2.146 -0.3878 -0.0519  1.3733
    7MOL   H227 3359   1.519   7.738   2.310  2.5160 -2.2565 -2.1629
    7MOL   H228 3360   1.071   7.995   2.620  0.2611  0.2626 -0.0548
    7MOL   H229 3361   1.255   8.139   2.677  0.5297  0.8003 -0.6179
    7MOL   H230 3362   1.469   8.126   2.548 -0.2934  0.5677 -1.0671
    7MOL   H231 3363   1.514   7.911   2.415 -1.5272 -0.6873 -2.1816
    7MOL   H232 3364   1.211   7.501   2.241 -0.2099  0.0692 -0.6335
    7MOL   H233 3365   0.957   7.425   2.285 -1.9057  0.9270 -0.4040
    7MOL   H234 3366   0.817   7.555   2.422 -1.2817  1.6400 -1.0411
    7MOL   H235 3367   0.904   7.761   2.541  2.6927  1.0885  1.7866
    7MOL   C236 3368   1.489   7.549   2.405  0.0322 -0.2690 -0.1988
    7MOL   C237 3369   1.636   7.494   2.392  0.6231 -0.5848 -0.2601
    7MOL   N238 3370   1.728   7.599   2.439 -0.1266  0.4726  0.9915
    7MOL   C239 3371   1.832   7.645   2.361 -0.2329 -0.0716 -0.4230
    7MOL   C240 3372   1.897   7.747   2.435  0.5365 -0.1555  0.3089
    7MOL   C241 3373   2.013   7.808   2.377 -0.4873  0.0833 -0.4490
    7MOL   C242 3374   2.061   7.767   2.251 -0.9666  0.3778  0.2024
    7MOL   C243 3375   1.993   7.660   2.183 -0.4197  0.1258  0.1341
    7MOL   C244 3376   1.883   7.601   2.240 -0.1395 -0.3680 -0.2644
    7MOL   C245 3377   1.837   7.759   2.562  0.7800 -0.1050  0.2151
    7MOL   C246 3378   1.739   7.656   2.563  0.3339 -0.1751 -0.6596
    7MOL   C247 3379   1.669   7.629   2.682  0.2148 -0.1996 -0.0506
    7MOL   C248 3380   1.686   7.702   2.800  0.0480 -0.0060 -0.0937
    7MOL   C249 3381   1.770   7.812   2.795  0.3892 -0.1603 -0.0192
    7MOL   C250 3382   1.850   7.838   2.681  0.4317  0.4257  0.4352
    7MOL   H251 3383   1.461   7.579   2.506  1.1274 -2.4170  0.7914
    7MOL   H252 3384   1.426   7.461   2.388  0.1383 -0.3203 -0.3277
    7MOL   H253 3385   1.640   7.487   2.283 -1.9187  2.3153 -0.6195
    7MOL   H254 3386   2.065   7.884   2.434 -0.2053  0.9570 -1.8508
    7MOL   H255 3387   2.149   7.814   2.209  1.1196 -1.8956  1.8781
    7MOL   H256 3388   2.029   7.634   2.085  0.1199  0.7882  0.1492
    7MOL   H257 3389   1.828   7.520   2.194  0.3044 -0.2477 -1.0226
    7MOL   H258 3390   1.588   7.558   2.691  0.7824 -0.7709  0.6804
    7MOL   H259 3391   1.625   7.680   2.886 -3.1988  3.2012 -1.4646
    7MOL   H260 3392   1.776   7.872   2.885  1.5257 -0.9388  0.4232
    7MOL   H261 3393   1.919   7.921   2.677 -1.4417  1.9649 -0.7964
    7MOL   C262 3394   1.660   7.358   2.467  0.0317  0.6115  0.3537
    7MOL   C263 3395   1.606   7.229   2.397 -0.0886  0.1409  0.5586
    7MOL   N264 3396   1.619   7.234   2.253 -0.9091 -0.4023  0.3698
    7MOL   C265 3397   1.515   7.258   2.166  0.8056 -0.1244  0.2479
    7MOL   C266 3398   1.569   7.279   2.034 -0.6068 -0.0600 -0.0287
    7MOL   C267 3399   1.478   7.300   1.923 -0.5532 -0.4955  0.1198
    7MOL   C268 3400   1.346   7.306   1.948  0.0787 -0.3313 -0.2173
    7MOL   C269 3401   1.293   7.285   2.075 -0.7067  0.2392  0.4393
    7MOL   C270 3402   1.371   7.261   2.186  0.3668  0.3526 -0.0073
    7MOL   C271 3403   1.712   7.281   2.047  0.0732  0.2377  0.0067
    7MOL   C272 3404   1.742   7.255   2.186 -0.1223  0.3662 -0.1603
    7MOL   C273 3405   1.878   7.263   2.232 -0.3379  0.1363  0.7992
    7MOL   C274 3406   1.984   7.280   2.138  0.0727  0.5197 -0.0861
    7MOL   C275 3407   1.947   7.292   2.000 -0.1089 -0.0575  0.4395
    7MOL   C276 3408   1.817   7.291   1.956  0.1194  0.1757 -0.8786
    7MOL   H277 3409   1.767   7.355   2.486  0.0571 -2.8334 -0.0114
    7MOL   H278 3410   1.617   7.366   2.567 -1.0126 -0.6381  0.0159
    7MOL   H279 3411   1.500   7.224   2.420 -0.5134  2.9802 -0.6696
    7MOL   H280 3412   1.517   7.301   1.823  0.6765  3.1011  0.5594
    7MOL   H281 3413   1.282   7.314   1.861  0.6129 -0.6112 -0.6351
    7MOL   H282 3414   1.186   7.284   2.088 -0.7111  0.3965  0.4256
    7MOL   H283 3415   1.325   7.262   2.284 -1.0117 -2.0771 -0.5962
    7MOL   H284 3416   1.906   7.265   2.337  1.2170 -1.6661  0.4406
    7MOL   H285 3417   2.084   7.292   2.177  0.2436  1.1519 -0.7127
    7MOL   H286 3418   2.022   7.303   1.923  0.0448 -0.2747  0.5552
    7MOL   H287 3419   1.794   7.292   1.851 -0.3648  3.1383 -0.7803
    7MOL   C288 3420   1.654   7.098   2.465 -0.1233  0.3128  0.3048
    7MOL   C289 3421   1.592   7.069   2.601  1.0042  0.1885  0.3563
    7MOL   N290 3422   1.448   7.025   2.599  0.5403  0.4762 -0.6693
    7MOL   C291 3423   1.344   7.079   2.680 -0.1296 -0.2541 -0.0269
    7MOL   C292 3424   1.224   6.999   2.660 -0.7596  0.2440 -1.0103
    7MOL   C293 3425   1.109   7.020   2.732  0.5575  0.4299  0.0565
    7MOL   C294 3426   1.108   7.129   2.823 -0.4187  0.6645  0.2958
    7MOL   C295 3427   1.222   7.215   2.831  0.3155 -0.3952 -0.1730
    7MOL   C296 3428   1.339   7.193   2.762 -0.2088 -0.0115 -0.2851
    7MOL   C297 3429   1.266   6.887   2.580  0.2566  0.5595  0.1892
    7MOL   C298 3430   1.400   6.908   2.540  0.3837 -0.0272 -0.0270
    7MOL   C299 3431   1.460   6.811   2.454  0.0933 -0.4249  0.9478
    7MOL   C300 3432   1.387   6.694   2.415  0.8752  0.2109  0.0168
    7MOL   C301 3433   1.255   6.675   2.450  0.0230  0.1933 -0.1611
    7MOL   C302 3434   1.193   6.769   2.534 -0.0559  0.4385 -0.6590
    7MOL   H303 3435   1.630   7.021   2.391 -1.3756  1.0667 -0.1029
    7MOL   H304 3436   1.763   7.099   2.464 -0.0798 -0.5096 -3.5339
    7MOL   H305 3437   1.587   7.164   2.654  2.4606 -0.2022  1.2246
    7MOL   H306 3438   1.026   6.952   2.728  2.1939 -1.6388  0.7199
    7MOL   H307 3439   1.022   7.150   2.885 -0.6629  0.2387  0.1015
    7MOL   H308 3440   1.229   7.291   2.908  0.0631 -1.0120  0.4620
    7MOL   H309 3441   1.420   7.258   2.791 -0.9457  1.2435 -0.9621
    7MOL   H310 3442   1.563   6.810   2.422 -0.1548  0.6043  0.0747
    7MOL   H311 3443   1.432   6.627   2.343 -0.0913  0.7706 -1.1417
    7MOL   H312 3444   1.195   6.591   2.419 -0.6919  0.5786  0.1643
    7MOL   H313 3445   1.086   6.761   2.546 -0.0908  3.5156  1.7002
    7MOL   C314 3446   1.664   6.974   2.693  0.7367  0.6507 -0.6753
    7MOL   C315 3447   1.803   6.999   2.747  0.0763 -0.2012  0.0971
    7MOL   N316 3448   1.814   7.134   2.804  0.1847 -0.0801  0.1117
    7MOL   C317 3449   1.891   7.227   2.747  0.0286  0.0466 -0.4080
    7MOL   C318 3450   1.870   7.352   2.816  0.0018 -0.6176 -0.2101
    7MOL   C319 3451   1.948   7.463   2.775 -0.2524  0.0425  0.5369
    7MOL   C320 3452   2.037   7.454   2.664 -0.6922  0.0913  0.2567
    7MOL   C321 3453   2.053   7.333   2.598  0.1411 -0.4159 -0.9386
    7MOL   C322 3454   1.989   7.217   2.644 -0.3247 -0.3464 -0.1860
    7MOL   C323 3455   1.776   7.328   2.919 -0.0549 -0.3608 -0.5590
    7MOL   C324 3456   1.741   7.190   2.913 -0.4650  0.4638  0.3998
    7MOL   C325 3457   1.633   7.140   2.994 -0.6519  0.0962  0.5232
    7MOL   C326 3458   1.582   7.220   3.098 -0.1288  0.2188  0.4165
    7MOL   C327 3459   1.623   7.356   3.112  0.6451  0.1142  0.0335
    7MOL   C328 3460   1.717   7.410   3.020  0.4009  0.4311  0.5560
    7MOL   H329 3461   1.605   6.964   2.784  0.8319 -0.5691 -0.7394
    7MOL   H330 3462   1.661   6.877   2.643  0.7028  0.5013 -0.3888
    7MOL   H331 3463   1.870   6.990   2.661  0.1994  0.1750  0.1559
    7MOL   H332 3464   1.942   7.561   2.820  0.4621  0.9109 -1.2148
    7MOL   H333 3465   2.090   7.536   2.618 -0.5547  0.7375  1.5514
    7MOL   H334 3466   2.111   7.331   2.507  1.5450  1.7394 -0.1248
    7MOL   H335 3467   2.016   7.123   2.598  2.2641  0.9863 -1.5049
    7MOL   H336 3468   1.600   7.038   2.989  1.4807 -0.5579 -0.7229
    7MOL   H337 3469   1.516   7.170   3.168  0.9930  1.9034  2.7462
    7MOL   H338 3470   1.590   7.420   3.192 -0.2002 -0.1857 -0.0652
    7MOL   H339 3471   1.740   7.515   3.030 -1.3845  0.9357 -0.6075
    7MOL   C340 3472   1.832   6.898   2.861 -0.0239 -0.0553  0.0750
    7MOL   C341 3473   1.853   6.755   2.812  0.5524 -0.7596 -0.6833
    7MOL   N342 3474   1.934   6.748   2.691 -0.5126  0.5778 -0.2163
    7MOL   C343 3475   1.898   6.681   2.566 -0.5309  0.0725  0.0464
    7MOL   C344 3476   2.007   6.694   2.480 -0.1184 -0.2911 -0.3512
    7MOL   C345 3477   1.992   6.636   2.356 -0.1319 -0.6096  0.1787
    7MOL   C346 3478   1.880   6.560   2.320  0.4451  0.4633  0.0950
    7MOL   C347 3479   1.781   6.536   2.415  0.5264  0.5016  0.5774
    7MOL   C348 3480   1.787   6.600   2.538  0.7109  0.5013 -0.3153
    7MOL   C349 3481   2.106   6.774   2.539  1.0488 -0.3801 -0.0485
    7MOL   C350 3482   2.059   6.805   2.674 -0.4681 -0.1076  0.3537
    7MOL   C351 3483   2.144   6.880   2.763  0.3253 -0.3720  0.1533
    7MOL   C352 3484   2.263   6.934   2.715 -0.6375  0.1472 -0.2476
    7MOL   C353 3485   2.301   6.907   2.583 -1.1806 -0.0258 -0.9217
    7MOL   C354 3486   2.227   6.831   2.491  0.0222  0.4747 -1.0264
    7MOL   H355 3487   1.919   6.925   2.919  1.7271 -1.4785 -1.7978
    7MOL   H356 3488   1.752   6.892   2.935  0.5110 -1.4461  0.5642
    7MOL   H357 3489   1.757   6.716   2.778  0.6997 -0.5870 -1.3055
    7MOL   H358 3490   2.072   6.657   2.286  0.2839  0.6790  1.0201
    7MOL   H359 3491   1.868   6.511   2.224 -0.6946  1.5779 -0.3413
    7MOL   H360 3492   1.702   6.470   2.384 -0.3855  1.1998  1.3945
    7MOL   H361 3493   1.708   6.581   2.609  1.7389  2.8141  1.5186
    7MOL   H362 3494   2.113   6.905   2.863  2.0940 -0.5454  0.7664
    7MOL   H363 3495   2.325   6.995   2.779 -1.2118  2.2332 -1.6239
    7MOL   H364 3496   2.394   6.947   2.544 -0.3872  0.7138  1.6480
    7MOL   H365 3497   2.264   6.820   2.391  1.3261  3.4062 -0.9121
    7MOL   C366 3498   1.916   6.668   2.922 -0.2151  0.0308 -0.0917
    7MOL   C367 3499   1.812   6.616   3.027  0.0972 -0.0149 -0.0083
    7MOL   N368 3500   1.698   6.562   2.963 -0.0777  0.4719 -0.4128
    7MOL   C369 3501   1.574   6.622   2.954  0.1555  0.5116 -0.6123
    7MOL   C370 3502   1.490   6.546   2.868  0.4283 -0.5876 -0.1978
    7MOL   C371 3503   1.358   6.590   2.843  0.9635  0.6680  0.0745
    7MOL   C372 3504   1.302   6.705   2.901 -0.1757 -0.0094  0.0428
    7MOL   C373 3505   1.388   6.787   2.972 -0.6521 -0.6234  0.2461
    7MOL   C374 3506   1.516   6.744   3.005  0.2388 -0.6468 -0.1376
    7MOL   C375 3507   1.563   6.433   2.828 -0.2530  0.6007 -0.6044
    7MOL   C376 3508   1.692   6.448   2.880  0.2470  0.1435  0.3581
    7MOL   C377 3509   1.790   6.353   2.846 -0.1270 -0.5429 -0.3394
    7MOL   C378 3510   1.767   6.239   2.772 -0.5055 -0.3567  0.9769
    7MOL   C379 3511   1.636   6.228   2.722 -0.1298  0.4190 -0.1502
    7MOL   C380 3512   1.532   6.321   2.748 -0.4524  0.2707 -0.5796
    7MOL   H381 3513   1.973   6.585   2.880 -1.2614 -2.0736  2.4693
    7MOL   H382 3514   1.989   6.730   2.973 -0.7743 -1.3845  2.5344
    7MOL   H383 3515   1.781   6.710   3.073 -1.0839  0.3075 -1.4219
    7MOL   H384 3516   1.293   6.533   2.778 -0.5257  0.6023  1.5715
    7MOL   H385 3517   1.203   6.739   2.874 -0.1785  0.1688  0.2823
    7MOL   H386 3518   1.361   6.885   3.010  1.3522 -0.0267  0.2357
    7MOL   H387 3519   1.583   6.804   3.065 -1.0410  0.4156  0.2524
    7MOL   H388 3520   1.892   6.353   2.882  0.0605 -2.0182 -0.8481
    7MOL   H389 3521   1.850   6.176   2.744  0.3203  0.2727  1.9812
    7MOL   H390 3522   1.620   6.146   2.654  0.5281 -0.3061  0.5480
    7MOL   H391 3523   1.432   6.308   2.709 -0.5793  0.6755 -0.3926
    7MOL   C392 3524   1.867   6.543   3.149 -0.2564 -0.2982  0.3249
    7MOL   C393 3525   1.959   6.628   3.240  0.2550  0.3323  0.3885
    7MOL   N394 3526   1.893   6.746   3.304  0.3800 -0.1757  0.0760
    7MOL   C395 3527   1.919   6.879   3.267 -0.3718 -0.0426 -0.6327
    7MOL   C396 3528   1.829   6.966   3.339 -0.5139 -0.7975 -0.5079
    7MOL   C397 3529   1.832   7.100   3.301 -0.2398  0.2496  0.2500
    7MOL   C398 3530   1.917   7.152   3.204  0.6189  0.0270  0.0502
    7MOL   C399 3531   2.009   7.066   3.145  0.8866 -0.3212  0.6773
    7MOL   C400 3532   2.008   6.928   3.172 -0.5410 -0.2964 -0.2183
    7MOL   C401 3533   1.754   6.884   3.433  0.2294  0.7724 -0.3473
    7MOL   C402 3534   1.794   6.750   3.403  0.0525  0.0920 -0.1716
    7MOL   C403 3535   1.736   6.642   3.475  0.0563  0.7784  0.3460
    7MOL   C404 3536   1.644   6.670   3.581  1.0838  0.4190  0.4066
    7MOL   C405 3537   1.611   6.801   3.612 -0.0310 -0.3700 -0.3050
    7MOL   C406 3538   1.665   6.909   3.536 -0.2973 -0.2712 -0.7905
    7MOL   H407 3539   1.786   6.507   3.212 -2.4045  1.2838 -1.4689
    7MOL   H408 3540   1.922   6.453   3.120  2.0287  1.8439 -2.2582
    7MOL   H409 3541   2.043   6.670   3.184  0.4592  0.2542  0.6336
    7MOL   H410 3542   1.758   7.164   3.347 -0.0094 -0.1025  1.1192
    7MOL   H411 3543   1.914   7.258   3.183  1.5247 -0.1013 -0.7169
    7MOL   H412 3544   2.080   7.114   3.079 -1.8177  1.6909 -0.8592
    7MOL   H413 3545   2.071   6.866   3.110  0.0577 -0.4474  0.5386
    7MOL   H414 3546   1.755   6.540   3.448  0.3551  0.1304  2.9189
    7MOL   H415 3547   1.590   6.589   3.628 -1.8388  1.5934 -0.8489
    7MOL   H416 3548   1.538   6.821   3.690 -2.5480  1.1083 -2.9479
    7MOL   H417 3549   1.636   7.012   3.554 -1.1500 -0.6960  0.2855
    7MOL   C418 3550   2.050   6.545   3.345 -0.7498  0.2799 -0.2410
    7MOL   C419 3551   2.163   6.466   3.282 -0.3297  0.2375  0.5971
    7MOL   N420 3552   2.225   6.522   3.166 -0.2825  0.5734 -0.5285
    7MOL   C421 3553   2.218   6.470   3.041  0.4401 -0.4199  0.4127
    7MOL   C422 3554   2.281   6.554   2.948  0.3896 -0.0477  0.0187
    7MOL   C423 3555   2.286   6.510   2.813 -0.7312 -0.3484  0.4178
    7MOL   C424 3556   2.234   6.391   2.770  0.0115  0.1302 -0.0944
    7MOL   C425 3557   2.163   6.311   2.860  0.0427 -0.0209 -0.0109
    7MOL   C426 3558   2.159   6.347   2.996 -0.2990  0.0678  0.5571
    7MOL   C427 3559   2.331   6.663   3.030  0.0366 -0.4102  0.0519
    7MOL   C428 3560   2.295   6.638   3.167  0.3055  0.1623  0.6773
    7MOL   C429 3561   2.333   6.730   3.269  0.0199  0.3637  0.3237
    7MOL   C430 3562   2.405   6.845   3.236  0.0881 -0.3768  0.4558
    7MOL   C431 3563   2.434   6.877   3.108  0.0027 -0.0801 -0.0124
    7MOL   C432 3564   2.402   6.784   3.005 -0.7111  0.2795  0.2459
    7MOL   H433 3565   2.078   6.615   3.425  1.3396 -0.5431 -0.2385
    7MOL   H434 3566   1.991   6.474   3.402  2.9957 -1.5204  1.5639
    7MOL   H435 3567   2.117   6.374   3.248  0.6867  0.9073 -2.7570
    7MOL   H436 3568   2.331   6.577   2.741  2.0175 -0.0978  2.2863
    7MOL   H437 3569   2.252   6.369   2.666 -0.4255  1.8962 -0.5575
    7MOL   H438 3570   2.120   6.216   2.832  1.5248 -0.0367 -2.2634
    7MOL   H439 3571   2.128   6.271   3.066 -3.2450 -1.1707 -1.9761
    7MOL   H440 3572   2.309   6.711   3.373  1.9634  1.6049  1.0259
    7MOL   H441 3573   2.450   6.912   3.308 -0.0569 -1.4845  1.5987
    7MOL   H442 3574   2.487   6.970   3.091  0.6537 -0.8188 -2.2514
    7MOL   H443 3575   2.429   6.822   2.907 -1.4496 -1.7214 -0.7779
    7MOL   C444 3576   2.268   6.421   3.389  0.5124  0.0943 -0.2341
    7MOL   C445 3577   2.375   6.327   3.338 -0.6354  0.1084  0.2286
    7MOL   N446 3578   2.505   6.392   3.299  0.5513 -0.0414 -0.2344
    7MOL   C447 3579   2.554   6.389   3.168  0.0968  0.5240  0.0029
    7MOL   C448 3580   2.678   6.460   3.175 -0.1026  0.1884 -0.2740
    7MOL   C449 3581   2.767   6.467   3.064 -0.1676 -0.0616 -0.3608
    7MOL   C450 3582   2.720   6.414   2.943  0.7556  0.4227  0.5239
    7MOL   C451 3583   2.592   6.355   2.932 -0.1039  0.1647  0.2557
    7MOL   C452 3584   2.507   6.339   3.045 -0.7614 -0.3252  0.3940
    7MOL   C453 3585   2.698   6.512   3.308 -0.4849  0.5618  0.5683
    7MOL   C454 3586   2.590   6.459   3.384  0.3271  0.1308  0.3656
    7MOL   C455 3587   2.589   6.482   3.522 -0.3214 -0.6413  0.3310
    7MOL   C456 3588   2.692   6.554   3.584 -0.2182 -0.4273 -0.6236
    7MOL   C457 3589   2.795   6.616   3.515  0.0402  0.0389  0.6337
    7MOL   C458 3590   2.798   6.594   3.377  0.2129  0.3731 -0.0194
    7MOL   H459 3591   2.311   6.510   3.434 -1.6084  1.3552 -0.6019
    7MOL   H460 3592   2.213   6.364   3.464 -1.0979  1.5343 -0.2951
    7MOL   H461 3593   2.331   6.293   3.244  0.6197  0.4307 -0.4897
    7MOL   H462 3594   2.862   6.515   3.077 -0.7065  0.1456  3.1975
    7MOL   H463 3595   2.794   6.422   2.865 -1.8530 -0.3594 -2.1154
    7MOL   H464 3596   2.538   6.330   2.842  0.0640 -1.1382  0.5070
    7MOL   H465 3597   2.412   6.289   3.035 -0.8895  0.0156 -0.1143
    7MOL   H466 3598   2.523   6.437   3.595 -1.6817  0.3472 -0.2533
    7MOL   H467 3599   2.696   6.555   3.692 -1.2350  2.2471 -0.5742
    7MOL   H468 3600   2.881   6.664   3.559 -0.5904  0.7840  1.0683
    7MOL   H469 3601   2.875   6.636   3.314  1.0734 -2.3932 -0.9062
    7MOL   C470 3602   2.410   6.206   3.429 -0.1007 -0.4006  0.2055
    7MOL   C471 3603   2.306   6.100   3.451 -0.1129 -0.3089 -0.1605
    7MOL   N472 3604   2.221   6.074   3.335  0.6498  0.5312 -0.6382
    7MOL   C473 3605   2.087   6.104   3.325  0.5421 -0.2157  0.0361
    7MOL   C474 3606   2.037   6.072   3.197  0.3303  0.1142 -0.3407
    7MOL   C475 3607   1.905   6.105   3.165  1.3453 -0.0386 -0.2799
    7MOL   C476 3608   1.820   6.169   3.255 -0.8183 -0.6064 -0.2711
    7MOL   C477 3609   1.866   6.202   3.379 -0.3909 -0.5551 -0.5404
    7MOL   C478 3610   1.996   6.170   3.418 -0.4690  0.2408 -0.0100
    7MOL   C479 3611   2.142   6.010   3.120  0.4743 -0.0899  0.7509
    7MOL   C480 3612   2.251   6.008   3.213 -0.5642  0.1166 -0.2378
    7MOL   C481 3613   2.367   5.946   3.170  0.4562  0.0036 -0.4352
    7MOL   C482 3614   2.377   5.901   3.033  0.1020  0.0221  0.0032
    7MOL   C483 3615   2.270   5.907   2.942  0.1296 -0.2352 -0.1265
    7MOL   C484 3616   2.150   5.964   2.985  0.2295 -0.4041  0.1605
    7MOL   H485 3617   2.489   6.152   3.376 -1.7838 -1.2751 -1.4627
    7MOL   H486 3618   2.454   6.225   3.527  1.3014  3.3585 -1.0728
    7MOL   H487 3619   2.243   6.150   3.524 -1.4680 -1.3657 -0.5815
    7MOL   H488 3620   1.870   6.082   3.066 -0.3858  0.0952  0.2915
    7MOL   H489 3621   1.730   6.211   3.214  0.7908  1.2048 -2.0791
    7MOL   H490 3622   1.792   6.247   3.444 -1.6525 -2.2366 -0.7882
    7MOL   H491 3623   2.028   6.197   3.518  1.6391 -1.8418 -0.0743
    7MOL   H492 3624   2.456   5.937   3.231  0.3677  0.1087 -0.2916
    7MOL   H493 3625   2.472   5.857   3.004  0.2327  1.6381 -2.1193
    7MOL   H494 3626   2.287   5.881   2.838 -3.6706  0.7535 -1.0973
    7MOL   H495 3627   2.066   5.962   2.917  1.0366 -1.0088 -0.8394
    7MOL   C496 3628   2.366   5.981   3.520 -0.6865 -0.0519  0.4520
    7MOL   C497 3629   2.275   5.864   3.545  0.3042 -0.1781  0.0224
    7MOL   N498 3630   2.340   5.773   3.640 -0.4108  0.5235  0.5449
    7MOL   C499 3631   2.406   5.651   3.609 -0.1272 -0.0595 -0.3493
    7MOL   C500 3632   2.463   5.597   3.729 -0.1289  0.6060  0.5344
    7MOL   C501 3633   2.547   5.487   3.710  0.9088  0.2137  0.1121
    7MOL   C502 3634   2.564   5.422   3.586  0.0350  0.5414 -0.1510
    7MOL   C503 3635   2.506   5.480   3.472 -0.7132 -0.5572  0.1584
    7MOL   C504 3636   2.427   5.594   3.480 -0.5307 -0.3814  0.3029
    7MOL   C505 3637   2.420   5.686   3.835  0.7065 -0.2906 -0.2898
    7MOL   C506 3638   2.336   5.782   3.778  0.3926  0.4283  0.0951
    7MOL   C507 3639   2.282   5.880   3.863 -0.0072  0.6953  0.3576
    7MOL   C508 3640   2.300   5.873   4.001  0.1350  0.4942 -0.5363
    7MOL   C509 3641   2.379   5.776   4.055 -0.2232  0.6261 -0.8714
    7MOL   C510 3642   2.438   5.682   3.969 -0.6655 -0.3126 -0.0609
    7MOL   H511 3643   2.452   5.931   3.476 -0.3300  1.3816 -0.5089
    7MOL   H512 3644   2.408   6.021   3.612 -0.5824  2.6528 -0.7244
    7MOL   H513 3645   2.259   5.813   3.451  0.5611  1.3923 -0.8884
    7MOL   H514 3646   2.595   5.453   3.801  1.9090 -0.6111 -0.7182
    7MOL   H515 3647   2.638   5.343   3.591 -1.2651 -0.5907  2.0965
    7MOL   H516 3648   2.527   5.426   3.380  3.3883  1.1449 -0.0332
    7MOL   H517 3649   2.384   5.641   3.392 -0.6702 -1.5970 -0.2950
    7MOL   H518 3650   2.220   5.956   3.817  1.3381  0.6493 -1.5969
    7MOL   H519 3651   2.249   5.942   4.066  1.1904  2.2375 -1.5144
    7MOL   H520 3652   2.383   5.758   4.161  1.9553 -0.3052 -1.0631
    7MOL   H521 3653   2.495   5.598   4.006  2.1801  1.0574 -1.1937
    7MOL   H522 3654   2.180   5.905   3.580 -1.1312 -1.7676 -1.9714
    8MOL     C1 3655   5.726   5.471   2.221  0.1593 -0.1131  0.0768
    8MOL     C2 3656   5.816   5.363   2.142  0.0305 -0.9652  0.0655
    8MOL     N3 3657   5.788   5.220   2.160  0.5936 -0.3485 -0.2994
    8MOL     C4 3658   5.887   5.124   2.192  0.1271  0.6560  0.6478
    8MOL     C5 3659   5.820   4.996   2.214 -0.2062 -0.4407  0.1810
    8MOL     C6 3660   5.893   4.884   2.259 -0.2624  0.3141 -0.0767
    8MOL     C7 3661   6.028   4.902   2.271 -0.0465 -0.3682  0.3231
    8MOL     C8 3662   6.092   5.029   2.260  0.0922  0.0945 -0.3853
    8MOL     C9 3663   6.025   5.144   2.219  0.6983  0.7069  0.2942
    8MOL    C10 3664   5.684   5.017   2.180  0.0081 -0.7337  0.0672
    8MOL    C11 3665   5.662   5.155   2.151 -0.5408  0.4487 -0.0737
    8MOL    C12 3666   5.540   5.199   2.116  0.5601  0.7324 -0.9610
    8MOL    C13 3667   5.428   5.116   2.114  0.1490  0.2409  0.3805
    8MOL    C14 3668   5.444   4.981   2.160  0.6292 -0.3630  0.2185
    8MOL    C15 3669   5.573   4.930   2.193  0.5241 -0.1400  0.2565
    8MOL    H16 3670   5.711   5.428   2.320  0.8981 -0.6053 -0.0189
    8MOL    H17 3671   5.625   5.479   2.182 -0.5357 -1.2262  1.6175
    8MOL    H18 3672   5.908   5.379   2.198  0.6332  0.9283 -1.4099
    8MOL    H19 3673   5.847   4.787   2.272 -0.3129  0.3325 -0.1136
    8MOL    H20 3674   6.078   4.816   2.313  0.5528 -2.4758 -4.3950
    8MOL    H21 3675   6.198   5.041   2.282  0.1626 -0.2227 -0.5542
    8MOL    H22 3676   6.065   5.244   2.226  2.1229  0.0529  1.8775
    8MOL    H23 3677   5.516   5.302   2.094 -0.6994  0.2946 -1.7195
    8MOL    H24 3678   5.336   5.166   2.087 -0.6438 -1.1802  0.4074
    8MOL    H25 3679   5.351   4.928   2.172  1.2718 -2.0911 -2.1048
    8MOL    H26 3680   5.595   4.825   2.210 -0.7752 -0.1185  2.3816
    8MOL    H27 3681   5.769   5.570   2.236 -0.4344 -0.0991  1.7380
    8MOL    C28 3682   5.833   5.389   1.992  0.1088  0.7350 -0.4800
    8MOL    C29 3683   5.885   5.523   1.953 -0.2780  0.6156 -0.5360
    8MOL    N30 3684   6.016   5.555   2.016  0.0037  0.0988 -0.7843
    8MOL    C31 3685   6.037   5.663   2.106 -0.0205 -0.0542 -0.1344
    8MOL    C32 3686   6.170   5.665   2.155 -0.2429 -1.1606 -0.1739
    8MOL    C33 3687   6.206   5.758   2.257  0.1593 -0.0332 -0.4669
    8MOL    C34 3688   6.109   5.842   2.311 -0.1362  0.0111 -0.0609
    8MOL    C35 3689   5.979   5.834   2.265  0.5417 -0.7398 -0.2206
    8MOL    C36 3690   5.945   5.751   2.157  0.0710  0.7870  1.0257
    8MOL    C37 3691   6.237   5.566   2.077  0.0596  0.1102 -0.1616
    8MOL    C38 3692   6.140   5.492   2.001 -0.2570  0.0944 -0.0724
    8MOL    C39 3693   6.182   5.384   1.922  0.5783  0.7095 -0.3279
    8MOL    C40 3694   6.320   5.362   1.910 -0.6343 -0.2966 -0.8824
    8MOL    C41 3695   6.422   5.432   1.985  0.0245 -0.3180  0.0426
    8MOL    C42 3696   6.379   5.535   2.071 -0.2185 -0.9482  0.0325
    8MOL    H43 3697   5.878   5.307   1.936  2.3322  1.3028  0.4597
    8MOL    H44 3698   5.728   5.380   1.962  0.6388 -1.9036 -1.7106
    8MOL    H45 3699   5.812   5.600   1.976  0.3974  1.0733  0.1024
    8MOL    H46 3700   6.309   5.771   2.287 -0.1829  0.5097  0.5066
    8MOL    H47 3701   6.131   5.915   2.387  0.6127 -0.2890  0.0202
    8MOL    H48 3702   5.909   5.909   2.299  0.9385  0.3608 -1.7641
    8MOL    H49 3703   5.848   5.753   2.110  0.5240  0.5577  0.0689
    8MOL    H50 3704   6.106   5.327   1.870 -0.4841  0.8532  1.0432
    8MOL    H51 3705   6.342   5.275   1.850  0.3048 -0.0810 -0.8546
    8MOL    H52 3706   6.526   5.403   1.975  0.6389  1.4451  1.0903
    8MOL    H53 3707   6.450   5.597   2.124 -0.7520  0.8862 -1.3477
    8MOL    C54 3708   5.892   5.535   1.796  0.3761 -0.4884  0.0490
    8MOL    C55 3709   5.764   5.492   1.717 -0.6349  0.0478 -0.6442
    8MOL    N56 3710   5.664   5.590   1.730  0.4974  0.0759 -0.3845
    8MOL    C57 3711   5.537   5.575   1.793  0.2041 -0.4561  0.3454
    8MOL    C58 3712   5.459   5.688   1.783  0.2666 -0.0468 -0.6822
    8MOL    C59 3713   5.324   5.694   1.833  0.1288  0.3800  0.0690
    8MOL    C60 3714   5.276   5.584   1.897  0.0566 -0.3041 -0.7424
    8MOL    C61 3715   5.351   5.464   1.898 -0.3004 -0.7377 -0.7046
    8MOL    C62 3716   5.480   5.458   1.848 -0.0129  0.4498 -0.4416
    8MOL    C63 3717   5.544   5.789   1.721  1.0018  0.2815 -0.0352
    8MOL    C64 3718   5.668   5.724   1.687  0.0339  0.3364 -0.2980
    8MOL    C65 3719   5.767   5.796   1.611  0.1322 -0.5617  0.3288
    8MOL    C66 3720   5.747   5.928   1.584  0.2030  0.6559  0.6918
    8MOL    C67 3721   5.629   5.997   1.619 -0.5759 -0.0012  0.1846
    8MOL    C68 3722   5.529   5.928   1.696 -0.0519 -0.7216 -0.3219
    8MOL    H69 3723   5.915   5.638   1.768  1.2000 -0.7128 -0.1090
    8MOL    H70 3724   5.971   5.476   1.751  0.6258  0.2529 -0.5023
    8MOL    H71 3725   5.718   5.402   1.757  0.1936 -1.0164 -2.0228
    8MOL    H72 3726   5.264   5.783   1.827 -0.7593  0.0394  3.0318
    8MOL    H73 3727   5.180   5.580   1.946 -0.1333  3.1530 -0.7339
    8MOL    H74 3728   5.315   5.377   1.949 -1.7658 -0.2240 -0.8354
    8MOL    H75 3729   5.530   5.362   1.844  1.4768  1.2916 -2.1846
    8MOL    H76 3730   5.851   5.748   1.563  0.6271 -0.4542  1.0833
    8MOL    H77 3731   5.824   5.983   1.532 -0.1516 -0.0440 -0.5866
    8MOL    H78 3732   5.609   6.097   1.583  1.0626  0.4570  0.4758
    8MOL    H79 3733   5.435   5.981   1.708  0.9655  1.3926 -1.4184
    8MOL    C80 3734   5.774   5.446   1.576  0.1913  0.1202  0.1002
    8MOL    C81 3735   5.861   5.324   1.545 -0.7569 -0.4352 -0.3682
    8MOL    N82 3736   5.833   5.209   1.634 -0.1336  0.2550 -0.1073
    8MOL    C83 3737   5.931   5.125   1.692 -0.0490  0.3010  0.5047
    8MOL    C84 3738   5.871   5.035   1.785 -0.0649  0.3084  1.0348
    8MOL    C85 3739   5.953   4.949   1.857 -0.0228  0.4189 -0.7970
    8MOL    C86 3740   6.096   4.959   1.846  0.0571  0.0901  0.4435
    8MOL    C87 3741   6.153   5.054   1.758 -0.1996  0.3690  0.0673
    8MOL    C88 3742   6.076   5.135   1.682 -0.3480  0.1248  0.4416
    8MOL    C89 3743   5.728   5.047   1.766  0.0825  0.3921 -0.2687
    8MOL    C90 3744   5.711   5.147   1.664  0.1873  0.4402  0.0409
    8MOL    C91 3745   5.581   5.179   1.619  0.2758 -0.7633 -0.1962
    8MOL    C92 3746   5.471   5.112   1.668 -0.3706 -0.1168 -1.1162
    8MOL    C93 3747   5.487   5.014   1.767 -0.5997 -0.5647 -0.5445
    8MOL    C94 3748   5.617   4.987   1.824  0.1993  0.0863 -0.0825
    8MOL    H95 3749   5.681   5.440   1.521  0.1440  1.6420 -0.0072
    8MOL    H96 3750   5.829   5.530   1.532  3.6591 -1.5690  1.0436
    8MOL    H97 3751   5.961   5.361   1.566 -0.7207 -1.5861  1.7067
    8MOL    H98 3752   5.907   4.877   1.923 -1.2152  0.6696 -1.3388
    8MOL    H99 3753   6.160   4.890   1.900 -0.3878 -0.3593  0.3923
    8MOL   H100 3754   6.259   5.069   1.757 -0.1716  0.1055 -2.4341
    8MOL   H101 3755   6.120   5.206   1.613  1.3867 -0.4197  0.9480
    8MOL   H102 3756   5.554   5.251   1.542 -2.5341 -0.8865  0.6092
    8MOL   H103 3757   5.375   5.133   1.623 -0.2823  0.7938 -0.8946
    8MOL   H104 3758   5.397   4.966   1.801 -0.6370 -0.5340 -0.5990
    8MOL   H105 3759   5.630   4.910   1.899  1.4100 -0.8928 -1.2726
    8MOL   C106 3760   5.864   5.288   1.389  1.5978  0.1612 -0.1825
    8MOL   C107 3761   5.945   5.388   1.305 -0.0601  0.3145 -0.8678
    8MOL   N108 3762   6.086   5.402   1.361 -0.1035 -0.4318  0.3102
    8MOL   C109 3763   6.130   5.509   1.445  0.2756  0.2109 -0.2429
    8MOL   C110 3764   6.252   5.465   1.509  0.0457  0.1713 -1.0015
    8MOL   C111 3765   6.304   5.545   1.612 -0.0843 -0.3354 -0.2648
    8MOL   C112 3766   6.240   5.669   1.650 -0.5616 -0.3510  0.4336
    8MOL   C113 3767   6.126   5.712   1.583 -1.1381  0.8422  0.8419
    8MOL   C114 3768   6.067   5.628   1.485  0.3820  0.1862 -1.3236
    8MOL   C115 3769   6.291   5.346   1.444 -0.1064  0.4769 -0.4420
    8MOL   C116 3770   6.192   5.309   1.352 -0.0714  0.4350 -0.3678
    8MOL   C117 3771   6.209   5.199   1.265 -0.6049 -0.1459 -0.3943
    8MOL   C118 3772   6.331   5.126   1.265 -0.1371  0.0907  0.4480
    8MOL   C119 3773   6.420   5.160   1.364  0.5134 -0.0840  0.5431
    8MOL   C120 3774   6.400   5.263   1.449 -0.4306  0.0546 -0.0604
    8MOL   H121 3775   5.910   5.192   1.364  1.7049  0.2311 -0.2540
    8MOL   H122 3776   5.762   5.293   1.350  1.2267 -0.3162  0.7044
    8MOL   H123 3777   5.906   5.488   1.321  0.5531  0.4113  0.0701
    8MOL   H124 3778   6.400   5.527   1.658  0.6146  1.6608 -0.8967
    8MOL   H125 3779   6.283   5.729   1.728 -0.2039  0.7820 -0.6155
    8MOL   H126 3780   6.086   5.808   1.611 -2.4305  0.4757  0.2819
    8MOL   H127 3781   5.979   5.663   1.432  0.2920  1.6692 -0.2103
    8MOL   H128 3782   6.129   5.161   1.203 -1.2116 -1.9636  1.4221
    8MOL   H129 3783   6.354   5.050   1.192 -0.6666  0.3227  0.0365
    8MOL   H130 3784   6.505   5.094   1.375  0.6499  0.0324  0.1889
    8MOL   H131 3785   6.477   5.280   1.522  0.5114  0.5171 -1.1403
    8MOL   C132 3786   5.941   5.358   1.145  0.8116  0.1931 -0.0991
    8MOL   C133 3787   5.795   5.377   1.092  0.0983  0.1620 -0.2068
    8MOL   N134 3788   5.745   5.506   1.122  0.6754  0.3199 -0.2118
    8MOL   C135 3789   5.638   5.549   1.209  0.1172  0.5799  0.4572
    8MOL   C136 3790   5.635   5.690   1.214 -0.5380 -0.6402 -0.0984
    8MOL   C137 3791   5.550   5.755   1.302 -0.3778  0.6461 -0.3167
    8MOL   C138 3792   5.474   5.688   1.394 -0.4843 -0.8498 -0.3256
    8MOL   C139 3793   5.473   5.550   1.390  0.2736  0.1428  0.3653
    8MOL   C140 3794   5.550   5.476   1.300 -0.3600  0.2723 -0.4011
    8MOL   C141 3795   5.728   5.742   1.119 -0.0614  0.2923  0.2195
    8MOL   C142 3796   5.800   5.624   1.069  0.5666 -0.0347 -0.2349
    8MOL   C143 3797   5.900   5.651   0.972 -0.4529  0.7142 -0.5991
    8MOL   C144 3798   5.923   5.777   0.922 -1.3907  0.0122  0.3029
    8MOL   C145 3799   5.868   5.890   0.981  0.1200  0.9612 -0.7011
    8MOL   C146 3800   5.768   5.872   1.079  0.1620 -0.5121  0.4657
    8MOL   H147 3801   6.013   5.420   1.091 -0.0568  0.6452 -0.7533
    8MOL   H148 3802   5.969   5.257   1.116  0.7692  0.3850 -0.8186
    8MOL   H149 3803   5.736   5.306   1.150  0.0806  0.0882 -0.3157
    8MOL   H150 3804   5.558   5.863   1.309 -0.0408  0.5747  0.4609
    8MOL   H151 3805   5.405   5.731   1.465 -0.5604 -0.6539 -0.5149
    8MOL   H152 3806   5.398   5.505   1.454  0.2876  0.4169  0.5755
    8MOL   H153 3807   5.547   5.368   1.304  2.2667  0.1710 -0.3990
    8MOL   H154 3808   5.955   5.571   0.924 -0.9641  2.3286 -4.0373
    8MOL   H155 3809   6.002   5.793   0.850 -0.5954  0.5058  1.2830
    8MOL   H156 3810   5.893   5.986   0.937  1.1844  0.0627 -2.0901
    8MOL   H157 3811   5.707   5.952   1.118 -1.4396 -0.9478 -1.1232
    8MOL   C158 3812   5.781   5.341   0.938 -0.2702 -0.8219  0.3679
    8MOL   C159 3813   5.750   5.186   0.911  0.3242  0.4944 -0.2361
    8MOL   N160 3814   5.816   5.094   1.004 -0.0440 -0.3327  0.0815
    8MOL   C161 3815   5.934   5.030   0.974 -0.6103  1.1909 -0.0781
    8MOL   C162 3816   5.970   4.938   1.081  0.3651 -0.5374  0.3416
    8MOL   C163 3817   6.089   4.861   1.055  0.3160 -0.7564  0.3172
    8MOL   C164 3818   6.171   4.880   0.939 -0.1882  0.0079 -0.0980
    8MOL   C165 3819   6.131   4.972   0.837  0.3114  1.0405 -1.1855
    8MOL   C166 3820   6.013   5.047   0.856 -0.1331 -0.0969 -0.4141
    8MOL   C167 3821   5.872   4.955   1.180 -0.2470  0.6630 -0.3914
    8MOL   C168 3822   5.778   5.048   1.130 -0.0196 -0.0136 -0.4801
    8MOL   C169 3823   5.659   5.075   1.211  0.1974  0.2486 -0.1359
    8MOL   C170 3824   5.638   5.011   1.335  0.0517  0.2283 -0.3926
    8MOL   C171 3825   5.739   4.931   1.391 -0.2887 -0.1719  0.2328
    8MOL   C172 3826   5.850   4.898   1.308  0.7270  0.4515  0.5038
    8MOL   H173 3827   5.703   5.399   0.888  1.3725 -0.5020 -1.8716
    8MOL   H174 3828   5.878   5.362   0.894 -0.9242 -0.1872 -0.8095
    8MOL   H175 3829   5.783   5.167   0.809  1.5694 -0.8938  0.4206
    8MOL   H176 3830   6.116   4.794   1.136 -0.2751  0.2845  1.4015
    8MOL   H177 3831   6.268   4.839   0.916 -0.5990 -0.7347 -0.5081
    8MOL   H178 3832   6.190   4.984   0.747  2.6286  1.2168  0.2949
    8MOL   H179 3833   5.985   5.120   0.781  2.5718  0.7624 -0.6554
    8MOL   H180 3834   5.576   5.130   1.169 -0.3431 -1.4966 -1.3758
    8MOL   H181 3835   5.549   5.024   1.395  0.5666  1.3080  0.1434
    8MOL   H182 3836   5.729   4.888   1.490  0.1900 -0.6964  0.0577
    8MOL   H183 3837   5.926   4.828   1.339  2.0918  0.5419 -2.4663
    8MOL   C184 3838   5.596   5.168   0.896 -0.4010 -0.1337  0.1019
    8MOL   C185 3839   5.549   5.022   0.875  0.1882  0.1206 -0.0098
    8MOL   N186 3840   5.409   5.002   0.887 -0.1692  0.3750 -0.0136
    8MOL   C187 3841   5.350   4.932   0.994 -0.0389  0.0324 -0.4495
    8MOL   C188 3842   5.212   4.941   0.979 -0.3741  0.4080  0.2361
    8MOL   C189 3843   5.128   4.877   1.075 -0.4463 -0.6164 -0.5732
    8MOL   C190 3844   5.188   4.801   1.178 -0.1279 -0.3503  0.1886
    8MOL   C191 3845   5.331   4.804   1.196  0.4015 -0.6303  0.1827
    8MOL   C192 3846   5.412   4.867   1.100 -0.0428 -0.2781 -0.2346
    8MOL   C193 3847   5.181   5.023   0.857  0.3908  0.1181 -0.8208
    8MOL   C194 3848   5.308   5.054   0.803 -0.2335  0.2424  0.9512
    8MOL   C195 3849   5.318   5.130   0.688  0.0034  0.0804 -0.0985
    8MOL   C196 3850   5.203   5.186   0.624 -0.9001 -0.4263  0.0510
    8MOL   C197 3851   5.076   5.153   0.673  0.4900  0.0118 -0.3785
    8MOL   C198 3852   5.065   5.068   0.792 -0.1789 -0.5325 -0.1969
    8MOL   H199 3853   5.546   5.215   0.981  0.9322 -2.7516  2.4044
    8MOL   H200 3854   5.564   5.226   0.810 -0.1782 -1.2981 -0.7673
    8MOL   H201 3855   5.600   4.970   0.957 -0.5341  1.0878  1.0789
    8MOL   H202 3856   5.021   4.890   1.068 -0.7485 -1.0192  2.5804
    8MOL   H203 3857   5.125   4.761   1.256 -0.8813  2.6437  1.1801
    8MOL   H204 3858   5.374   4.755   1.282  0.2804 -2.2468 -0.6506
    8MOL   H205 3859   5.518   4.866   1.116 -0.1332 -0.7824  0.3564
    8MOL   H206 3860   5.411   5.164   0.645 -1.2707  0.6699 -2.4739
    8MOL   H207 3861   5.210   5.255   0.541 -0.2403  0.0210  0.4726
    8MOL   H208 3862   4.991   5.194   0.620  0.8573  1.3475  0.0579
    8MOL   H209 3863   4.975   5.028   0.837  0.0105 -0.7055  0.0301
    8MOL   C210 3864   5.612   4.950   0.755  0.2368  0.2401  0.1291
    8MOL   C211 3865   5.631   4.794   0.760  0.0927 -0.0520  0.7904
    8MOL   N212 3866   5.658   4.756   0.623  0.1289 -0.2499  0.1621
    8MOL   C213 3867   5.567   4.687   0.537 -0.2495  0.3454 -0.5613
    8MOL   C214 3868   5.630   4.668   0.411 -0.2489 -0.3062 -0.1857
    8MOL   C215 3869   5.558   4.593   0.313  0.3385  0.2642  0.1294
    8MOL   C216 3870   5.423   4.562   0.331  0.2062 -0.0227 -0.0133
    8MOL   C217 3871   5.361   4.581   0.458  0.3653 -0.2049 -0.6805
    8MOL   C218 3872   5.433   4.640   0.564  0.4270  0.2090 -0.0068
    8MOL   C219 3873   5.761   4.719   0.415 -0.1278 -0.2831  0.6845
    8MOL   C220 3874   5.780   4.771   0.551 -0.4072 -0.4584 -0.0715
    8MOL   C221 3875   5.898   4.838   0.580 -0.5786 -0.3928 -0.0730
    8MOL   C222 3876   6.004   4.842   0.483 -0.9122  0.0829  0.5346
    8MOL   C223 3877   5.986   4.783   0.355 -0.1422 -0.2962 -0.0041
    8MOL   C224 3878   5.866   4.725   0.319  0.0488 -0.7356 -0.7053
    8MOL   H225 3879   5.554   4.977   0.666 -2.6018 -0.0046  1.8479
    8MOL   H226 3880   5.707   4.998   0.733  0.0138  0.5131 -0.2458
    8MOL   H227 3881   5.535   4.749   0.786  0.0178  0.9031  2.2372
    8MOL   H228 3882   5.611   4.573   0.221  1.3272  0.7162  0.5920
    8MOL   H229 3883   5.386   4.489   0.259  1.6193 -0.6042 -0.1611
    8MOL   H230 3884   5.259   4.551   0.478 -0.4573  1.7203 -1.8598
    8MOL   H231 3885   5.377   4.651   0.656  0.6193  0.1390  0.1202
    8MOL   H232 3886   5.918   4.902   0.665 -0.1603 -1.6271  0.7674
    8MOL   H233 3887   6.095   4.897   0.500 -1.6467  1.3200  0.5886
    8MOL   H234 3888   6.068   4.780   0.284  0.0634  0.8742  0.1672
    8MOL   H235 3889   5.856   4.686   0.219  0.4759 -0.4071 -0.8788
    8MOL   C236 3890   5.733   4.745   0.870  0.1054  0.0023 -0.0056
    8MOL   C237 3891   5.800   4.610   0.844 -0.2415  0.7268  0.6559
    8MOL   N238 3892   5.909   4.580   0.933 -0.3810  0.2184  0.9084
    8MOL   C239 3893   6.046   4.562   0.893  0.2179  0.3932  0.7834
    8MOL   C240 3894   6.124   4.522   1.008  0.3669 -0.2007  0.9472
    8MOL   C241 3895   6.264   4.495   0.993 -0.2847 -0.3463  0.0608
    8MOL   C242 3896   6.332   4.530   0.873  0.1928  0.3789 -0.0247
    8MOL   C243 3897   6.251   4.566   0.760  0.3749 -0.6367 -0.2344
    8MOL   C244 3898   6.110   4.576   0.766 -0.1922 -0.0619 -0.2457
    8MOL   C245 3899   6.031   4.514   1.113  0.4691  0.0500  0.5631
    8MOL   C246 3900   5.897   4.553   1.069  0.0861 -0.4420  0.4451
    8MOL   C247 3901   5.786   4.562   1.156  0.2141  0.3115 -0.4196
    8MOL   C248 3902   5.802   4.527   1.294  0.5604 -0.1243 -0.1153
    8MOL   C249 3903   5.926   4.484   1.340 -0.4370  0.5274 -0.4295
    8MOL   C250 3904   6.037   4.479   1.248  0.4596  0.2422 -0.5886
    8MOL   H251 3905   5.813   4.818   0.881 -0.0001 -0.1705  2.0414
    8MOL   H252 3906   5.690   4.746   0.970  0.9421 -0.3506  0.3587
    8MOL   H253 3907   5.852   4.623   0.749 -1.4975 -1.0712 -0.2956
    8MOL   H254 3908   6.305   4.455   1.085  0.7712  0.7682  0.0974
    8MOL   H255 3909   6.438   4.507   0.872  0.4773  1.6217  0.3549
    8MOL   H256 3910   6.304   4.585   0.668 -0.9646  2.2490 -0.4508
    8MOL   H257 3911   6.066   4.606   0.673  0.5360 -0.2283 -0.6457
    8MOL   H258 3912   5.690   4.590   1.116 -1.3378 -4.2082 -0.1948
    8MOL   H259 3913   5.722   4.530   1.367 -1.9038 -1.8869 -2.6842
    8MOL   H260 3914   5.935   4.447   1.441 -1.4662 -1.2028 -0.9517
    8MOL   H261 3915   6.135   4.453   1.285  0.9513  2.0162 -0.6024
    8MOL   C262 3916   5.711   4.490   0.818 -0.2452 -1.0055 -0.6704
    8MOL   C263 3917   5.782   4.373   0.749 -0.1518  0.6431 -0.2049
    8MOL   N264 3918   5.717   4.247   0.774  0.0109  0.4779 -0.7487
    8MOL   C265 3919   5.753   4.145   0.861  0.2222 -0.6921 -0.3093
    8MOL   C266 3920   5.671   4.031   0.849  0.5626  0.1926  0.5053
    8MOL   C267 3921   5.709   3.910   0.916  0.0422  0.0155 -0.3899
    8MOL   C268 3922   5.825   3.910   0.995  0.4298  0.0009  0.0589
    8MOL   C269 3923   5.899   4.031   1.009  0.4180  0.1685 -0.2204
    8MOL   C270 3924   5.862   4.145   0.946 -0.2911  0.2395  0.1763
    8MOL   C271 3925   5.556   4.083   0.770  0.1591 -0.0937  0.9053
    8MOL   C272 3926   5.591   4.216   0.736 -0.1002  0.1728  0.2605
    8MOL   C273 3927   5.497   4.293   0.656  0.4393 -0.0036 -0.0708
    8MOL   C274 3928   5.367   4.254   0.628  0.4252  1.3739 -0.1594
    8MOL   C275 3929   5.329   4.122   0.663 -0.2976  0.2860  0.0560
    8MOL   C276 3930   5.429   4.038   0.721 -0.1760  0.6776  0.0059
    8MOL   H277 3931   5.677   4.458   0.916  0.8771 -0.8233 -0.2248
    8MOL   H278 3932   5.616   4.521   0.773 -0.2846  2.0763  1.4213
    8MOL   H279 3933   5.879   4.359   0.797 -0.7305 -1.0120  0.5157
    8MOL   H280 3934   5.643   3.827   0.895 -1.0494  1.6734 -4.0022
    8MOL   H281 3935   5.853   3.813   1.032  1.3227  0.3352  0.2735
    8MOL   H282 3936   5.990   4.020   1.065  0.1353 -0.5422  0.1007
    8MOL   H283 3937   5.927   4.228   0.968 -0.3400  0.2457  0.3012
    8MOL   H284 3938   5.528   4.394   0.632 -0.6613  0.3819  0.1334
    8MOL   H285 3939   5.291   4.321   0.592  0.4059  1.6896  0.4665
    8MOL   H286 3940   5.231   4.086   0.640  0.3903 -0.4477 -1.7955
    8MOL   H287 3941   5.394   3.939   0.747  0.9226  0.8697  2.3665
    8MOL   C288 3942   5.817   4.394   0.595 -0.2515  0.0960 -0.5050
    8MOL   C289 3943   5.828   4.267   0.502  0.4640 -0.2754  0.0032
    8MOL   N290 3944   5.831   4.304   0.362  0.3362  0.4009  0.0702
    8MOL   C291 3945   5.727   4.288   0.268 -0.1791  0.4387  0.0167
    8MOL   C292 3946   5.772   4.324   0.141 -0.0108 -0.1023 -1.0116
    8MOL   C293 3947   5.682   4.316   0.030 -0.0300 -0.1774 -0.5678
    8MOL   C294 3948   5.553   4.261   0.047  0.4393 -0.2452  0.4472
    8MOL   C295 3949   5.507   4.222   0.173 -0.3904  0.3597  0.5680
    8MOL   C296 3950   5.590   4.236   0.282 -0.0954 -0.1107 -0.4334
    8MOL   C297 3951   5.899   4.386   0.156 -0.3138  0.0420 -0.2597
    8MOL   C298 3952   5.932   4.374   0.296 -0.0152 -0.5394 -0.4166
    8MOL   C299 3953   6.056   4.423   0.348 -0.3665  0.2518  0.5543
    8MOL   C300 3954   6.142   4.477   0.253 -0.5781 -0.2699  0.6759
    8MOL   C301 3955   6.113   4.482   0.121 -0.1769 -0.1305  0.0675
    8MOL   C302 3956   5.992   4.436   0.068 -0.2158 -0.2103  0.5657
    8MOL   H303 3957   5.739   4.461   0.558 -1.8588  0.0657  2.6642
    8MOL   H304 3958   5.896   4.467   0.579  0.1902 -0.6634 -1.8772
    8MOL   H305 3959   5.738   4.206   0.509  0.8758 -1.1229 -1.7519
    8MOL   H306 3960   5.721   4.344   8.161  0.7760  0.3611 -0.0919
    8MOL   H307 3961   5.478   4.244   8.198 -0.1069  0.3327  0.8503
    8MOL   H308 3962   5.413   4.170   0.182 -0.7097  0.6049 -1.1304
    8MOL   H309 3963   5.546   4.210   0.377 -2.6164 -0.0944 -1.5628
    8MOL   H310 3964   6.087   4.411   0.451  0.9293  1.2372  0.2947
    8MOL   H311 3965   6.233   4.524   0.288 -1.2620  0.2032  1.8480
    8MOL   H312 3966   6.179   4.534   0.053 -0.0469 -1.1423 -0.5895
    8MOL   H313 3967   5.971   4.443   8.189  3.9886 -1.0215 -0.4326
    8MOL   C314 3968   5.927   4.152   0.542 -0.2332 -0.2766 -0.6323
    8MOL   C315 3969   5.983   4.060   0.431 -0.6600  0.3027  0.1672
    8MOL   N316 3970   6.093   3.982   0.488 -0.0486 -0.1646 -0.1171
    8MOL   C317 3971   6.224   3.983   0.455 -0.0327  0.8682  0.1606
    8MOL   C318 3972   6.296   3.879   0.522  0.1828  0.0267  0.4530
    8MOL   C319 3973   6.440   3.878   0.509 -0.3618  0.3814 -0.0753
    8MOL   C320 3974   6.500   3.967   0.425  0.7251  0.3610  0.3549
    8MOL   C321 3975   6.427   4.063   0.352  0.1810  0.2186 -0.4610
    8MOL   C322 3976   6.291   4.075   0.378 -0.3647  0.6236  0.4489
    8MOL   C323 3977   6.199   3.799   0.594 -0.1943 -0.1161 -0.3808
    8MOL   C324 3978   6.075   3.877   0.577  0.0946  0.0943  0.3663
    8MOL   C325 3979   5.956   3.835   0.647 -0.2239  0.6176  0.1652
    8MOL   C326 3980   5.957   3.715   0.724  0.1049 -0.6012  0.1507
    8MOL   C327 3981   6.077   3.646   0.744 -0.7691 -0.1730  0.2109
    8MOL   C328 3982   6.199   3.690   0.677  0.7722 -0.2834 -0.0976
    8MOL   H329 3983   6.018   4.193   0.586  0.7997 -1.5731 -1.5129
    8MOL   H330 3984   5.891   4.097   0.628 -0.3953  1.6358  0.5578
    8MOL   H331 3985   6.035   4.126   0.362  2.2035 -2.1748 -0.1517
    8MOL   H332 3986   6.495   3.796   0.553  0.4741 -0.3846 -2.4974
    8MOL   H333 3987   6.606   3.976   0.408  0.3526  0.2191 -2.2807
    8MOL   H334 3988   6.486   4.130   0.291 -0.0794  0.1775 -0.7578
    8MOL   H335 3989   6.236   4.152   0.326 -1.6592  0.0329  0.9038
    8MOL   H336 3990   5.860   3.883   0.633  0.3820  1.5849 -0.7495
    8MOL   H337 3991   5.865   3.693   0.777  1.5356  0.6138  3.2691
    8MOL   H338 3992   6.087   3.566   0.816  0.6179 -1.9761 -1.8908
    8MOL   H339 3993   6.293   3.638   0.690 -1.0450 -3.6075  0.3539
    8MOL   C340 3994   5.878   3.972   0.354  0.0485  0.0301 -0.4694
    8MOL   C341 3995   5.940   3.869   0.257 -0.1314 -0.5162  0.2849
    8MOL   N342 3996   5.848   3.768   0.214 -0.0946 -0.1133  0.1679
    8MOL   C343 3997   5.865   3.631   0.223 -0.1618  0.3959 -0.1292
    8MOL   C344 3998   5.754   3.561   0.166  0.1058 -0.1036 -0.4715
    8MOL   C345 3999   5.747   3.424   0.185  0.2075 -0.4389  0.9855
    8MOL   C346 4000   5.854   3.354   0.252 -0.3286  0.6116  0.5741
    8MOL   C347 4001   5.965   3.421   0.303 -0.4206 -0.5281  0.4048
    8MOL   C348 4002   5.965   3.562   0.296  0.1507  0.0582 -0.3406
    8MOL   C349 4003   5.673   3.660   0.102  0.2030 -0.1940 -0.0374
    8MOL   C350 4004   5.735   3.788   0.136  0.0146  0.3032 -0.0063
    8MOL   C351 4005   5.673   3.908   0.095 -0.2653 -0.7281 -0.2402
    8MOL   C352 4006   5.564   3.906   0.011  0.4749 -0.1057 -1.0883
    8MOL   C353 4007   5.498   3.786   8.210  0.5542  0.5798  0.0415
    8MOL   C354 4008   5.552   3.665   0.021 -1.1813  0.5216 -0.1764
    8MOL   H355 4009   5.814   3.925   0.429  1.6817  1.0294  1.6402
    8MOL   H356 4010   5.813   4.040   0.300  1.3786  0.6687 -1.2743
    8MOL   H357 4011   6.024   3.825   0.310  0.6526  1.9050  1.1541
    8MOL   H358 4012   5.667   3.369   0.138 -0.9245  1.0604  1.1270
    8MOL   H359 4013   5.833   3.250   0.271 -1.2040  0.5938 -0.4326
    8MOL   H360 4014   6.037   3.362   0.357 -1.6678 -1.8354  0.6476
    8MOL   H361 4015   6.046   3.617   0.343 -1.6584  1.2937  1.3779
    8MOL   H362 4016   5.717   4.005   0.111 -1.6689 -0.3872  1.8067
    8MOL   H363 4017   5.538   4.001   8.194  2.2811  0.2340 -1.4547
    8MOL   H364 4018   5.407   3.794   8.152 -0.0210 -1.0653  0.6966
    8MOL   H365 4019   5.489   3.577   0.019 -2.1803  1.1672  2.1557
    8MOL   C366 4020   6.006   3.938   0.134  0.1447  0.0683 -0.0769
    8MOL   C367 4021   6.092   3.833   0.057  0.3033  0.0403 -0.1697
    8MOL   N368 4022   6.096   3.868   8.142 -0.1952  0.4325  0.1879
    8MOL   C369 4023   6.008   3.814   8.046 -0.1784  0.1465 -0.1612
    8MOL   C370 4024   6.040   3.863   7.916  0.0682 -0.4310  0.1139
    8MOL   C371 4025   5.965   3.814   7.804 -0.0779 -0.0843 -0.2935
    8MOL   C372 4026   5.858   3.732   7.817 -0.5670  0.9336 -0.5080
    8MOL   C373 4027   5.833   3.678   7.946  0.1373 -0.3684 -0.0210
    8MOL   C374 4028   5.903   3.720   8.059  0.7245 -0.5248  0.6496
    8MOL   C375 4029   6.140   3.957   7.929 -0.3101  0.3281 -0.3141
    8MOL   C376 4030   6.174   3.962   8.068 -0.4423  0.4840 -0.0898
    8MOL   C377 4031   6.275   4.053   8.105 -0.4068 -0.2131  0.7739
    8MOL   C378 4032   6.342   4.132   8.013  0.4239  0.2889  0.3450
    8MOL   C379 4033   6.315   4.124   7.877 -0.6955 -0.4255 -0.2297
    8MOL   C380 4034   6.216   4.033   7.832 -0.2853 -0.0657  0.3713
    8MOL   H381 4035   5.931   3.977   0.064 -1.3759 -0.2659  1.3332
    8MOL   H382 4036   6.066   4.021   0.171  0.0798  0.5360 -1.0121
    8MOL   H383 4037   6.049   3.733   0.062  0.0141  0.1042 -1.2710
    8MOL   H384 4038   6.007   3.837   7.707  3.1264 -1.3270  0.7209
    8MOL   H385 4039   5.813   3.695   7.727 -1.2947  0.9007 -0.1359
    8MOL   H386 4040   5.747   3.614   7.959  1.0391 -1.5596  0.0748
    8MOL   H387 4041   5.873   3.671   8.151  0.7236 -3.1390 -0.6874
    8MOL   H388 4042   6.301   4.059   8.209  0.6376 -0.8598  0.5563
    8MOL   H389 4043   6.418   4.191   8.063 -0.0384  1.0855  0.1184
    8MOL   H390 4044   6.380   4.182   7.812 -0.4210 -1.0259 -0.4904
    8MOL   H391 4045   6.189   4.023   7.728  0.9036 -1.6485  0.1994
    8MOL   C392 4046   6.238   3.812   0.112 -0.7922  0.7431  0.3458
    8MOL   C393 4047   6.331   3.702   0.043 -0.1585  0.2011 -0.9885
    8MOL   N394 4048   6.464   3.685   0.104 -1.2166 -0.4885 -0.8078
    8MOL   C395 4049   6.585   3.748   0.061  0.7661  0.8174  0.3058
    8MOL   C396 4050   6.691   3.710   0.149 -0.1455  0.3821 -0.1949
    8MOL   C397 4051   6.817   3.754   0.115 -0.1657 -0.3975  0.3424
    8MOL   C398 4052   6.840   3.838   0.006  0.5897  0.2324 -0.1151
    8MOL   C399 4053   6.735   3.883   8.154  0.0315  0.1685 -0.5997
    8MOL   C400 4054   6.608   3.832   8.178  0.7136 -0.5858 -1.3938
    8MOL   C401 4055   6.631   3.632   0.255 -0.3493  0.0884  0.2099
    8MOL   C402 4056   6.493   3.622   0.230 -0.0768  0.9672 -0.1810
    8MOL   C403 4057   6.410   3.558   0.324 -0.0957  0.0714 -0.1766
    8MOL   C404 4058   6.468   3.507   0.441 -0.1599  0.0887  0.8482
    8MOL   C405 4059   6.605   3.529   0.469  0.0838  0.2183 -0.0682
    8MOL   C406 4060   6.689   3.576   0.372 -0.2197 -1.0107  0.2696
    8MOL   H407 4061   6.289   3.908   0.117  0.7419 -0.0765  0.7149
    8MOL   H408 4062   6.231   3.782   0.216  1.0625 -0.7143  0.0831
    8MOL   H409 4063   6.345   3.729   8.166 -3.1965  1.2558 -1.1869
    8MOL   H410 4064   6.897   3.726   0.181 -0.3174  1.2635  1.2812
    8MOL   H411 4065   6.942   3.869   8.219  1.2649 -1.9647 -0.3034
    8MOL   H412 4066   6.763   3.954   8.078  1.4642 -1.4839 -1.6513
    8MOL   H413 4067   6.532   3.845   8.102  0.2996 -1.9068 -1.2216
    8MOL   H414 4068   6.303   3.558   0.304 -0.1531  1.0085  0.0992
    8MOL   H415 4069   6.410   3.463   0.520  2.7957 -0.3164  2.8448
    8MOL   H416 4070   6.639   3.506   0.569  0.7537  0.4796 -0.2330
    8MOL   H417 4071   6.795   3.579   0.394  0.0854 -2.6576 -0.9346
    8MOL   C418 4072   6.244   3.576   0.039  0.1389 -0.1512 -0.4967
    8MOL   C419 4073   6.325   3.447   0.001  0.1062  0.0285 -0.3287
    8MOL   N420 4074   6.252   3.322   0.038 -0.5276 -0.3080  0.5516
    8MOL   C421 4075   6.294   3.216   0.125  0.4007  0.1576  0.9580
    8MOL   C422 4076   6.191   3.119   0.134 -0.4048 -0.3253 -0.1177
    8MOL   C423 4077   6.198   3.019   0.237 -0.1006  0.1312 -0.1587
    8MOL   C424 4078   6.308   3.019   0.325  0.0131  0.8430 -0.2861
    8MOL   C425 4079   6.415   3.099   0.296  0.2595 -0.2136 -0.4592
    8MOL   C426 4080   6.411   3.200   0.199  0.2344 -1.0923  0.0312
    8MOL   C427 4081   6.094   3.148   0.026 -0.1398 -0.1295 -0.1604
    8MOL   C428 4082   6.133   3.278   8.205  0.0231  0.1264  0.4891
    8MOL   C429 4083   6.051   3.339   8.108  0.3914  0.5330 -0.3210
    8MOL   C430 4084   5.926   3.288   8.080  0.1335  0.3030  0.2518
    8MOL   C431 4085   5.884   3.167   8.133  0.8037 -0.2233  0.2198
    8MOL   C432 4086   5.976   3.090   8.205  0.0130  1.0981  0.2160
    8MOL   H433 4087   6.186   3.567   0.130 -0.9930 -2.2373 -1.3960
    8MOL   H434 4088   6.170   3.585   8.186  0.2706 -1.6956 -0.7982
    8MOL   H435 4089   6.414   3.440   0.064  0.5520  2.7214 -0.6282
    8MOL   H436 4090   6.124   2.943   0.253 -2.2090  1.5595 -2.7445
    8MOL   H437 4091   6.317   2.946   0.404 -2.4659  0.9064  0.0952
    8MOL   H438 4092   6.507   3.084   0.351  1.7471 -0.3168 -2.9073
    8MOL   H439 4093   6.493   3.270   0.191  1.0892 -2.2586 -1.7784
    8MOL   H440 4094   6.085   3.425   8.053  0.9294 -0.0201 -0.8651
    8MOL   H441 4095   5.862   3.343   8.013 -0.1800 -0.2010  0.1437
    8MOL   H442 4096   5.786   3.127   8.107  1.2186 -1.2618  0.2112
    8MOL   H443 4097   5.953   2.993   0.020  0.6284  0.8209 -0.0830
    8MOL   C444 4098   6.384   3.459   8.088  0.5224 -0.5407  0.2849
    8MOL   C445 4099   6.482   3.351   8.035 -0.5954 -0.3522  0.0937
    8MOL   N446 4100   6.501   3.369   7.884  0.0856  0.1833  0.4057
    8MOL   C447 4101   6.436   3.297   7.786 -0.8429 -0.7770  0.7739
    8MOL   C448 4102   6.469   3.349   7.658  0.6233 -0.4751  0.4923
    8MOL   C449 4103   6.416   3.280   7.539 -0.4745 -0.4064  0.0022
    8MOL   C450 4104   6.338   3.161   7.557 -0.1772 -0.2936 -0.6052
    8MOL   C451 4105   6.305   3.114   7.688 -0.3718  0.8680  0.4275
    8MOL   C452 4106   6.349   3.184   7.800  0.9043  0.3963  0.6031
    8MOL   C453 4107   6.555   3.463   7.675 -1.0042  0.0679  0.1996
    8MOL   C454 4108   6.576   3.471   7.816  0.0121 -0.1458 -0.4765
    8MOL   C455 4109   6.651   3.583   7.868  0.1492 -0.3670  0.1392
    8MOL   C456 4110   6.700   3.687   7.786 -0.0004 -0.4575  0.4263
    8MOL   C457 4111   6.681   3.674   7.643  0.0627 -0.4128 -0.3187
    8MOL   C458 4112   6.610   3.565   7.588  0.0300 -0.2769 -0.3710
    8MOL   H459 4113   6.301   3.483   8.021  1.1567  1.7319  0.2585
    8MOL   H460 4114   6.444   3.550   8.087  3.0674 -2.1669 -1.5600
    8MOL   H461 4115   6.440   3.252   8.053 -0.2883 -0.2786  1.2628
    8MOL   H462 4116   6.437   3.319   7.441  3.4655  2.6771  1.9168
    8MOL   H463 4117   6.302   3.099   7.476 -0.9336 -0.3766 -0.2033
    8MOL   H464 4118   6.251   3.022   7.704  1.6828 -0.2212  1.1967
    8MOL   H465 4119   6.328   3.150   7.901  0.0292 -0.8879 -0.0026
    8MOL   H466 4120   6.667   3.599   7.973 -0.7823  1.4185  0.0318
    8MOL   H467 4121   6.755   3.773   7.819  1.5328  0.7327 -4.7109
    8MOL   H468 4122   6.730   3.737   7.570 -1.3516  1.6919  0.4799
    8MOL   H469 4123   6.584   3.565   7.484 -0.4125 -1.3076 -0.2675
    8MOL   C470 4124   6.608   3.338   8.124 -0.8179  0.5917 -0.3275
    8MOL   C471 4125   6.739   3.270   8.070  0.6534  0.0369 -0.3814
    8MOL   N472 4126   6.860   3.307   8.150  0.2117 -0.8035 -0.0570
    8MOL   C473 4127   6.976   3.378   8.106 -0.0583 -0.3083  0.5873
    8MOL   C474 4128   7.063   3.405   8.218 -0.2058  0.4034 -0.2350
    8MOL   C475 4129   7.183   3.473   8.199 -0.2554  0.7814 -0.1356
    8MOL   C476 4130   7.213   3.515   8.070  0.0449  0.4721  0.7557
    8MOL   C477 4131   7.127   3.495   7.956 -0.1111 -0.0031 -0.7074
    8MOL   C478 4132   7.011   3.418   7.979  0.3832  0.3602  0.9770
    8MOL   C479 4133   6.994   3.340   0.103  0.7618 -0.3691 -0.0217
    8MOL   C480 4134   6.867   3.293   0.060  0.6591 -0.2410 -0.3016
    8MOL   C481 4135   6.776   3.239   0.159  0.0654 -0.6165  0.1556
    8MOL   C482 4136   6.805   3.244   0.298  0.1814  0.2797 -1.3920
    8MOL   C483 4137   6.927   3.296   0.332  0.0944 -0.0261 -0.0327
    8MOL   C484 4138   7.023   3.339   0.237  0.1157  0.4082  0.6640
    8MOL   H485 4139   6.635   3.440   8.151 -0.7787  0.3578  0.5250
    8MOL   H486 4140   6.583   3.286   8.217 -1.4136 -0.0295 -0.8293
    8MOL   H487 4141   6.753   3.312   7.970 -1.3716  1.9948  0.1336
    8MOL   H488 4142   7.249   3.486   0.056 -1.8030 -2.7880  1.7318
    8MOL   H489 4143   7.305   3.565   8.043 -0.9673  1.3717 -1.1496
    8MOL   H490 4144   7.145   3.536   7.858 -1.6815 -0.9854 -1.4371
    8MOL   H491 4145   6.947   3.406   7.893  3.1546  0.7346 -1.2399
    8MOL   H492 4146   6.685   3.188   0.130 -0.9601  0.4019  1.5149
    8MOL   H493 4147   6.732   3.220   0.374  0.4948  1.0095 -0.8512
    8MOL   H494 4148   6.949   3.291   0.437  3.1946  0.9602 -0.6040
    8MOL   H495 4149   7.120   3.379   0.264 -0.4557  0.2594  3.0862
    8MOL   C496 4150   6.727   3.122   8.045  0.3759  0.6762 -0.2278
    8MOL   C497 4151   6.865   3.050   8.012  0.2603 -0.3421 -0.8529
    8MOL   N498 4152   6.845   2.944   7.914  0.9023  0.3574 -0.4265
    8MOL   C499 4153   6.830   2.965   7.778 -0.2232  0.1818 -0.0019
    8MOL   C500 4154   6.817   2.844   7.708  0.4641 -0.2911 -0.4025
    8MOL   C501 4155   6.800   2.843   7.570 -0.5283 -0.6627  0.1258
    8MOL   C502 4156   6.790   2.968   7.503 -0.2202 -0.5800  0.2049
    8MOL   C503 4157   6.800   3.087   7.574 -0.2501  0.8977 -0.2828
    8MOL   C504 4158   6.833   3.088   7.710 -0.0047 -0.6492 -0.3222
    8MOL   C505 4159   6.826   2.738   7.803 -0.2265 -0.1521 -0.4841
    8MOL   C506 4160   6.847   2.806   7.934  1.2730  0.7201  0.3817
    8MOL   C507 4161   6.867   2.730   8.051 -0.5644 -1.3970  0.1955
    8MOL   C508 4162   6.866   2.592   8.045  0.5754 -0.2874  0.3851
    8MOL   C509 4163   6.851   2.525   7.920  0.1219 -0.5849 -0.2871
    8MOL   C510 4164   6.844   2.599   7.801  0.2331 -0.6550 -0.1560
    8MOL   H511 4165   6.692   3.066   8.132 -0.1005  1.6947  0.2404
    8MOL   H512 4166   6.659   3.093   7.965 -1.4642 -1.1514  1.9147
    8MOL   H513 4167   6.917   3.011   8.100 -0.0988 -0.9328 -0.8958
    8MOL   H514 4168   6.799   2.746   7.523  0.3591 -1.1304  1.0649
    8MOL   H515 4169   6.764   2.969   7.398 -2.4693 -0.5046  0.7343
    8MOL   H516 4170   6.786   3.187   7.536 -0.1284  1.1048  0.2163
    8MOL   H517 4171   6.842   3.186   7.756 -1.0416 -1.0016  0.6504
    8MOL   H518 4172   6.884   2.778   8.146 -1.7086  0.4565 -0.5126
    8MOL   H519 4173   6.875   2.533   8.135 -1.0671 -2.2415 -0.7087
    8MOL   H520 4174   6.870   2.418   7.920  1.5726 -0.3384 -0.9556
    8MOL   H521 4175   6.829   2.546   7.709 -1.8424 -0.8471  0.2595
    8MOL   H522 4176   6.931   3.119   7.959  0.5258 -0.4398 -0.6517
    9MOL     C1 4177   2.004   4.160   3.418 -0.3351  0.2698 -0.3967
    9MOL     C2 4178   1.980   4.101   3.563 -0.5716 -0.2933 -0.6127
    9MOL     N3 4179   2.079   4.158   3.650 -0.4667  0.0459 -0.6426
    9MOL     C4 4180   2.180   4.084   3.715  0.6246 -0.3829 -0.3974
    9MOL     C5 4181   2.252   4.174   3.806  0.2800 -0.3448  1.1049
    9MOL     C6 4182   2.361   4.117   3.883  0.1746  0.1729  0.2497
    9MOL     C7 4183   2.379   3.976   3.873  0.5967 -0.7938  0.3821
    9MOL     C8 4184   2.308   3.891   3.785  0.9739  0.0901 -0.5809
    9MOL     C9 4185   2.212   3.954   3.702  0.0140 -0.5007  0.3671
    9MOL    C10 4186   2.195   4.297   3.793  0.2261  0.7856 -0.2068
    9MOL    C11 4187   2.088   4.289   3.698  0.4758 -0.6871 -0.2057
    9MOL    C12 4188   2.015   4.409   3.667 -0.4120 -0.1608 -0.2630
    9MOL    C13 4189   2.045   4.530   3.721  0.2421  0.1514 -0.6607
    9MOL    C14 4190   2.143   4.536   3.820  0.6303  0.0185 -0.1214
    9MOL    C15 4191   2.218   4.423   3.849 -0.5340  0.2181  0.3915
    9MOL    H16 4192   1.979   4.266   3.411 -1.0126  0.1858  0.5959
    9MOL    H17 4193   1.936   4.108   3.351 -0.8492 -1.3355  1.3182
    9MOL    H18 4194   1.997   3.993   3.561  0.8771 -0.0561 -1.8103
    9MOL    H19 4195   2.416   4.171   3.959 -0.3407  1.0235  0.0219
    9MOL    H20 4196   2.443   3.928   3.946 -1.0244 -0.8867  1.7544
    9MOL    H21 4197   2.311   3.783   3.792 -0.7430 -0.0066 -1.2171
    9MOL    H22 4198   2.152   3.885   3.645  1.1860 -0.2827 -1.1369
    9MOL    H23 4199   1.939   4.400   3.591 -0.7356  0.1153  0.0237
    9MOL    H24 4200   1.988   4.618   3.696  0.5040  0.4755 -0.1273
    9MOL    H25 4201   2.163   4.629   3.871 -1.2237  0.2414  0.2075
    9MOL    H26 4202   2.296   4.423   3.923  0.2103 -1.5982 -0.3538
    9MOL    H27 4203   2.109   4.142   3.395  0.2312  1.1656  1.3080
    9MOL    C28 4204   1.825   4.115   3.607 -0.6272 -0.3155 -0.1420
    9MOL    C29 4205   1.773   4.005   3.701  0.7928  0.4612 -0.5444
    9MOL    N30 4206   1.864   3.970   3.814 -0.0527  0.5246 -0.0061
    9MOL    C31 4207   1.913   3.842   3.839 -0.0394  0.2065  0.3242
    9MOL    C32 4208   2.001   3.839   3.953 -0.3079  0.0006 -0.0708
    9MOL    C33 4209   2.064   3.718   3.994  0.4316  0.5711  0.4877
    9MOL    C34 4210   2.052   3.605   3.911  0.0483 -0.6444  0.1157
    9MOL    C35 4211   1.974   3.614   3.786  0.3638 -0.4449 -0.2435
    9MOL    C36 4212   1.902   3.726   3.756  0.2972  0.6869  0.2205
    9MOL    C37 4213   2.003   3.971   4.003  0.4551 -0.5878  0.3187
    9MOL    C38 4214   1.902   4.038   3.929  0.0875 -0.2460 -0.4178
    9MOL    C39 4215   1.872   4.175   3.962  0.0805  0.4867  0.2899
    9MOL    C40 4216   1.952   4.245   4.052  1.1122 -0.0619 -0.0090
    9MOL    C41 4217   2.061   4.178   4.118  0.1669 -0.5076 -0.1151
    9MOL    C42 4218   2.077   4.040   4.100 -0.0505  0.1351 -0.3177
    9MOL    H43 4219   1.820   4.205   3.667  1.8979 -0.6146  0.5874
    9MOL    H44 4220   1.755   4.135   3.526 -2.1286 -1.6906  0.7879
    9MOL    H45 4221   1.757   3.914   3.644  0.5345 -0.5438  1.1102
    9MOL    H46 4222   2.133   3.729   4.076  0.3436  2.3265  0.3635
    9MOL    H47 4223   2.117   3.520   3.927  1.9822  0.6693 -0.5285
    9MOL    H48 4224   1.974   3.533   3.714 -0.2813 -1.6802  1.1359
    9MOL    H49 4225   1.835   3.733   3.671  0.1864 -1.3587  0.1307
    9MOL    H50 4226   1.805   4.228   3.896 -0.2563  0.2167  0.4148
    9MOL    H51 4227   1.933   4.351   4.064 -0.2087 -0.4006  1.0204
    9MOL    H52 4228   2.119   4.237   4.188  0.2883 -2.9932  1.9576
    9MOL    H53 4229   2.162   3.988   4.141 -0.2171 -0.0141 -0.1674
    9MOL    C54 4230   1.636   4.036   3.776 -0.6164 -0.2890  0.1146
    9MOL    C55 4231   1.507   4.018   3.698 -0.8351  0.4023  0.1369
    9MOL    N56 4232   1.501   3.894   3.619 -0.0659  0.2017 -0.2344
    9MOL    C57 4233   1.449   3.881   3.494  0.1623  0.2640  0.0858
    9MOL    C58 4234   1.441   3.746   3.456  0.6409 -0.0308  0.3127
    9MOL    C59 4235   1.395   3.706   3.328 -0.1074  1.1369 -0.4273
    9MOL    C60 4236   1.365   3.807   3.236 -0.4482 -0.3022  0.5201
    9MOL    C61 4237   1.371   3.945   3.269 -0.4237  0.1931  0.0350
    9MOL    C62 4238   1.409   3.980   3.399  0.5804 -0.3089  0.1771
    9MOL    C63 4239   1.486   3.668   3.568 -0.3735 -0.1306 -0.5935
    9MOL    C64 4240   1.515   3.762   3.674  0.2885 -0.1219  0.1443
    9MOL    C65 4241   1.567   3.713   3.802 -0.9581 -0.0952  0.5313
    9MOL    C66 4242   1.581   3.579   3.827  0.1352  0.2050  0.5316
    9MOL    C67 4243   1.552   3.490   3.727  1.2915  0.5378  0.4975
    9MOL    C68 4244   1.494   3.530   3.601 -0.0454  0.0750  0.2626
    9MOL    H69 4245   1.629   3.975   3.866  0.9225  0.3696  0.6903
    9MOL    H70 4246   1.646   4.139   3.808 -0.5633 -0.7839  1.7422
    9MOL    H71 4247   1.509   4.100   3.626  0.3154  0.1529 -0.1265
    9MOL    H72 4248   1.401   3.602   3.299 -0.3098  0.8424  0.5768
    9MOL    H73 4249   1.357   3.776   3.133  0.2604 -0.3168  0.4660
    9MOL    H74 4250   1.349   4.023   3.197 -0.0365 -0.8411 -1.2373
    9MOL    H75 4251   1.411   4.085   3.421  0.3711  0.1409 -1.8690
    9MOL    H76 4252   1.595   3.778   3.883 -0.3690 -0.7014  0.8102
    9MOL    H77 4253   1.625   3.538   3.917  0.2937 -1.5758 -0.3212
    9MOL    H78 4254   1.560   3.384   3.745  3.5164  0.2979 -1.6314
    9MOL    H79 4255   1.459   3.450   3.538 -0.3995  2.0020 -2.0403
    9MOL    C80 4256   1.376   4.012   3.784  0.0951 -0.2100  0.4018
    9MOL    C81 4257   1.365   4.121   3.892 -0.2848  0.8815  0.3305
    9MOL    N82 4258   1.424   4.252   3.856 -0.1008  0.0895  0.7546
    9MOL    C83 4259   1.505   4.327   3.938 -0.2659  0.3597 -0.6655
    9MOL    C84 4260   1.557   4.442   3.861  0.2364  0.5743 -0.0986
    9MOL    C85 4261   1.640   4.528   3.933 -0.0995  0.2820  0.6254
    9MOL    C86 4262   1.680   4.513   4.064  0.0030 -0.5345  0.6822
    9MOL    C87 4263   1.634   4.401   4.132  0.8211  0.4077 -0.2096
    9MOL    C88 4264   1.551   4.305   4.068 -0.3810 -0.2899  0.2721
    9MOL    C89 4265   1.500   4.425   3.726  0.2712  0.2710  0.1591
    9MOL    C90 4266   1.404   4.319   3.735 -0.3403  0.4811  0.2559
    9MOL    C91 4267   1.319   4.291   3.619 -0.5447 -0.1910 -0.4439
    9MOL    C92 4268   1.329   4.376   3.509 -0.3142 -0.2846 -0.6013
    9MOL    C93 4269   1.424   4.487   3.509 -0.3955  0.8295  0.6044
    9MOL    C94 4270   1.508   4.512   3.617 -0.8305 -0.6864  0.2060
    9MOL    H95 4271   1.291   4.007   3.716 -1.1057 -0.4133  1.9065
    9MOL    H96 4272   1.369   3.911   3.823  2.1570 -0.5104  0.0692
    9MOL    H97 4273   1.420   4.084   3.978 -2.9873 -1.2646  1.2123
    9MOL    H98 4274   1.674   4.621   3.888  1.8424  1.3640  4.1833
    9MOL    H99 4275   1.747   4.581   4.114  1.0497  0.2053 -1.6396
    9MOL   H100 4276   1.659   4.387   4.236 -2.4907 -3.3802  0.2028
    9MOL   H101 4277   1.520   4.214   4.118 -0.2957 -0.2412  0.4144
    9MOL   H102 4278   1.252   4.207   3.624  1.3009 -1.6674 -0.1069
    9MOL   H103 4279   1.254   4.357   3.434 -0.6486 -1.2639 -0.0198
    9MOL   H104 4280   1.434   4.556   3.427 -0.0518  1.1194  0.8889
    9MOL   H105 4281   1.582   4.589   3.605 -0.6803 -1.1956 -2.5784
    9MOL   C106 4282   1.219   4.143   3.948 -1.1057  0.0128 -0.2471
    9MOL   C107 4283   1.157   4.014   4.007  0.6578  0.2754  0.1652
    9MOL   N108 4284   1.225   3.969   4.129  0.7173 -0.2894  0.2973
    9MOL   C109 4285   1.284   3.846   4.153 -0.2710 -0.1025 -1.2544
    9MOL   C110 4286   1.325   3.835   4.288  0.1138  0.0955  0.3849
    9MOL   C111 4287   1.391   3.717   4.337  0.5901  0.0310  0.5673
    9MOL   C112 4288   1.425   3.622   4.240  0.5428 -0.0453  0.6921
    9MOL   C113 4289   1.399   3.635   4.101 -0.9646  0.5233 -0.2487
    9MOL   C114 4290   1.313   3.744   4.061  0.0447  0.1299 -0.1817
    9MOL   C115 4291   1.294   3.959   4.351  0.0792 -0.0362 -1.0857
    9MOL   C116 4292   1.228   4.036   4.250  0.2777 -0.1414  0.6271
    9MOL   C117 4293   1.178   4.166   4.281  0.3644  0.4856 -0.0136
    9MOL   C118 4294   1.198   4.224   4.406 -0.7152  0.0186 -0.1184
    9MOL   C119 4295   1.263   4.144   4.512 -0.6025 -0.1066 -1.2241
    9MOL   C120 4296   1.310   4.015   4.480  0.1308  0.4117 -0.0251
    9MOL   H121 4297   1.237   4.214   4.029  1.2807 -1.9489  1.0311
    9MOL   H122 4298   1.167   4.181   3.861  1.0360  0.6471 -1.2845
    9MOL   H123 4299   1.172   3.934   3.935 -0.4137 -1.1519  1.4924
    9MOL   H124 4300   1.417   3.716   4.442  2.0291  0.2115  0.2094
    9MOL   H125 4301   1.478   3.535   4.277 -1.3914 -2.2057 -1.3760
    9MOL   H126 4302   1.408   3.549   4.037  1.3710  1.4859 -1.2569
    9MOL   H127 4303   1.292   3.740   3.955 -3.7291  1.8801  0.4079
    9MOL   H128 4304   1.129   4.217   4.199  3.0505 -0.2640 -2.1664
    9MOL   H129 4305   1.160   4.319   4.442 -1.9725 -0.5322  0.0534
    9MOL   H130 4306   1.287   4.193   4.606  2.3077 -1.8887 -0.9745
    9MOL   H131 4307   1.360   3.960   4.558 -0.5420  0.1054  0.1937
    9MOL   C132 4308   1.006   4.019   4.023 -0.2705  0.3267 -0.0643
    9MOL   C133 4309   0.916   4.027   3.899  0.1524 -1.0717 -0.0150
    9MOL   N134 4310   0.969   3.953   3.781  0.4781  0.4927 -0.6018
    9MOL   C135 4311   0.993   4.008   3.655  0.6931  0.0651 -0.3811
    9MOL   C136 4312   1.043   3.905   3.568  0.3646  0.0317 -0.0450
    9MOL   C137 4313   1.082   3.933   3.442 -1.0495 -0.3871 -0.1891
    9MOL   C138 4314   1.077   4.066   3.388  0.1845  0.3701 -0.0605
    9MOL   C139 4315   1.015   4.166   3.466  0.1900 -0.2514  0.2220
    9MOL   C140 4316   0.980   4.140   3.601 -0.3370  0.0738  0.1039
    9MOL   C141 4317   1.056   3.784   3.642 -0.8214  0.7259  0.9352
    9MOL   C142 4318   1.015   3.819   3.774 -0.0227  0.6441  0.0760
    9MOL   C143 4319   1.019   3.731   3.873  0.4578  0.4308 -0.0436
    9MOL   C144 4320   1.075   3.600   3.854  0.1730 -0.4191 -0.4640
    9MOL   C145 4321   1.123   3.563   3.722  0.5823 -0.6200  0.2385
    9MOL   C146 4322   1.109   3.655   3.614  0.1031  0.1622  0.1168
    9MOL   H147 4323   0.984   3.927   4.075 -1.2079  1.2083  1.1227
    9MOL   H148 4324   0.977   4.099   4.091 -0.0248  0.9746 -0.6995
    9MOL   H149 4325   0.921   4.134   3.876 -0.5869 -1.3940 -1.7977
    9MOL   H150 4326   1.114   3.849   3.383  0.4529 -1.0307  1.4918
    9MOL   H151 4327   1.119   4.072   3.289  2.5799 -0.5162  0.8654
    9MOL   H152 4328   1.002   4.268   3.432 -1.2788 -0.7769 -0.8631
    9MOL   H153 4329   0.952   4.214   3.674  1.9242 -0.4844  1.5643
    9MOL   H154 4330   0.986   3.750   3.974 -0.4487 -2.5111  0.2513
    9MOL   H155 4331   1.074   3.528   3.934 -2.9797  0.1405  0.0741
    9MOL   H156 4332   1.151   3.462   3.696  0.6401 -0.6530  0.4207
    9MOL   H157 4333   1.138   3.640   3.511 -0.1768  2.8544 -0.3980
    9MOL   C158 4334   0.764   3.985   3.927  0.8153  0.0522 -0.6116
    9MOL   C159 4335   0.672   4.082   4.013 -0.4725  0.3672 -0.1944
    9MOL   N160 4336   0.661   4.223   3.983 -0.3428 -0.3163  0.5763
    9MOL   C161 4337   0.729   4.314   4.059  0.2648 -0.4834  0.5771
    9MOL   C162 4338   0.721   4.440   3.991  1.0426 -0.2499  0.2386
    9MOL   C163 4339   0.802   4.541   4.034  0.2100 -0.1162 -0.6115
    9MOL   C164 4340   0.883   4.532   4.150 -0.3335 -0.0125  0.1065
    9MOL   C165 4341   0.889   4.413   4.225 -0.1323 -0.2961  0.6203
    9MOL   C166 4342   0.814   4.308   4.175  0.4970  0.4541  0.0107
    9MOL   C167 4343   0.618   4.423   3.891 -0.0291 -0.5335  0.2505
    9MOL   C168 4344   0.583   4.292   3.890 -0.1436  0.0462  0.8422
    9MOL   C169 4345   0.490   4.241   3.787  0.4463  0.6046  0.2009
    9MOL   C170 4346   0.418   4.330   3.710 -0.3702  0.6218 -0.2954
    9MOL   C171 4347   0.448   4.466   3.711 -0.4935  0.9354 -0.7719
    9MOL   C172 4348   0.547   4.512   3.802  0.0361 -0.3285  0.1001
    9MOL   H173 4349   0.713   3.971   3.832 -2.3741  1.5072  0.7724
    9MOL   H174 4350   0.767   3.884   3.966  0.6267  0.3675  0.2424
    9MOL   H175 4351   0.727   4.086   4.107  1.2177 -0.8149 -1.1074
    9MOL   H176 4352   0.795   4.639   3.988  1.2468  0.2607  0.0231
    9MOL   H177 4353   0.946   4.612   4.185  0.7150 -1.0131  0.5357
    9MOL   H178 4354   0.962   4.403   4.304  1.5505 -0.0376 -0.8770
    9MOL   H179 4355   0.822   4.215   4.230 -0.4355 -0.4911 -1.3886
    9MOL   H180 4356   0.463   4.136   3.785 -0.6432  0.9018 -0.9600
    9MOL   H181 4357   0.340   4.293   3.644 -0.4095 -0.2517  0.2377
    9MOL   H182 4358   0.390   4.527   3.643  0.5916  0.5665 -2.0589
    9MOL   H183 4359   0.576   4.616   3.806  0.9496 -0.6409  2.9011
    9MOL   C184 4360   0.535   4.012   4.052 -0.0894  0.7953  0.6437
    9MOL   C185 4361   0.560   3.906   4.164  0.7539  0.1890  0.4176
    9MOL   N186 4362   0.624   3.970   4.280  0.6835 -0.2879  0.5953
    9MOL   C187 4363   0.737   3.924   4.340  0.3315  0.1439 -0.4672
    9MOL   C188 4364   0.775   4.008   4.449  0.6169 -0.4357 -0.1548
    9MOL   C189 4365   0.897   3.977   4.516 -0.5013  0.2407 -0.1345
    9MOL   C190 4366   0.989   3.877   4.466  0.3923 -0.1642  0.1356
    9MOL   C191 4367   0.944   3.799   4.358 -0.0942 -0.5217 -0.7435
    9MOL   C192 4368   0.821   3.816   4.304  0.4316  0.1910 -0.3894
    9MOL   C193 4369   0.671   4.108   4.461 -0.6461 -0.1056 -0.2651
    9MOL   C194 4370   0.577   4.079   4.357 -0.4757  0.4433 -0.3155
    9MOL   C195 4371   0.461   4.158   4.341  0.0502  0.4175  0.8148
    9MOL   C196 4372   0.455   4.278   4.412  0.4556 -0.3795 -0.2794
    9MOL   C197 4373   0.535   4.294   4.529  0.4974  0.4687  0.6597
    9MOL   C198 4374   0.645   4.209   4.545 -0.2939  0.2062 -0.1290
    9MOL   H199 4375   0.466   4.092   4.082 -0.9555  0.6648 -0.9372
    9MOL   H200 4376   0.493   3.956   3.969  1.6594 -0.0315  0.3048
    9MOL   H201 4377   0.636   3.842   4.119 -0.0783  0.6582 -1.7069
    9MOL   H202 4378   0.921   4.024   4.610 -3.0903 -0.2815  0.8276
    9MOL   H203 4379   1.084   3.860   4.514 -0.4787  0.5445  2.1460
    9MOL   H204 4380   1.009   3.722   4.318 -0.3578 -0.3690 -1.4729
    9MOL   H205 4381   0.797   3.749   4.222 -0.7703 -2.0750  1.7413
    9MOL   H206 4382   0.378   4.133   4.276  0.4122 -0.9412  0.8642
    9MOL   H207 4383   0.369   4.343   4.404  0.5231 -0.5643 -3.2840
    9MOL   H208 4384   0.517   4.378   4.594  0.7015  1.9906 -1.1865
    9MOL   H209 4385   0.710   4.244   4.623  1.0203  1.1451 -1.6076
    9MOL   C210 4386   0.442   3.820   4.206 -0.4608  0.0078 -0.2355
    9MOL   C211 4387   0.398   3.710   4.099  0.6645  0.8344 -0.6352
    9MOL   N212 4388   0.508   3.643   4.032  1.0614  0.5008  0.0514
    9MOL   C213 4389   0.532   3.654   3.896 -0.4082  0.2390  0.2923
    9MOL   C214 4390   0.648   3.570   3.864  0.2963 -0.5828 -0.0743
    9MOL   C215 4391   0.695   3.564   3.735 -0.0379  0.2085 -0.0546
    9MOL   C216 4392   0.633   3.640   3.633  0.3079  0.1604 -0.0120
    9MOL   C217 4393   0.521   3.716   3.656  0.4723 -0.4724  0.9451
    9MOL   C218 4394   0.469   3.726   3.789 -0.1304 -0.1475  1.0083
    9MOL   C219 4395   0.686   3.507   3.988 -0.6200  0.5865  0.9609
    9MOL   C220 4396   0.606   3.565   4.089 -0.2209  0.1030 -0.4071
    9MOL   C221 4397   0.627   3.539   4.225 -0.3131  0.2705  0.1277
    9MOL   C222 4398   0.740   3.453   4.255  0.8656  0.3971 -0.0847
    9MOL   C223 4399   0.817   3.389   4.152 -0.2293 -0.8835 -0.3685
    9MOL   C224 4400   0.794   3.428   4.018 -0.7539  0.4907 -0.8031
    9MOL   H225 4401   0.472   3.755   4.288 -1.5986 -0.0954  0.0992
    9MOL   H226 4402   0.358   3.882   4.236 -0.2623  0.2938 -0.2733
    9MOL   H227 4403   0.339   3.765   4.026  0.9653  1.4763 -0.4004
    9MOL   H228 4404   0.772   3.497   3.700  0.1631  1.1286 -1.4321
    9MOL   H229 4405   0.669   3.631   3.532  0.7851  0.0883  0.1611
    9MOL   H230 4406   0.463   3.750   3.571 -2.2284 -2.5426  1.8931
    9MOL   H231 4407   0.374   3.776   3.798  0.8447  1.9233  0.1138
    9MOL   H232 4408   0.574   3.585   4.308 -0.9559 -2.9159  1.5550
    9MOL   H233 4409   0.760   3.430   4.359  1.5427 -0.1431 -0.3302
    9MOL   H234 4410   0.904   3.332   4.182 -1.6715 -2.8246  0.2905
    9MOL   H235 4411   0.858   3.408   3.934  0.5838 -1.7026  0.6884
    9MOL   C236 4412   0.292   3.614   4.162  0.2312  0.5345  0.8506
    9MOL   C237 4413   0.150   3.663   4.129 -0.1568  0.6682  0.8659
    9MOL   N238 4414   0.126   3.658   3.988 -0.1713 -0.3064  0.8277
    9MOL   C239 4415   0.120   3.772   3.912  0.2416  0.0389  0.4035
    9MOL   C240 4416   0.102   3.734   3.779  0.0578 -0.1252 -0.0492
    9MOL   C241 4417   0.101   3.832   3.673 -0.1706 -0.0713 -0.0641
    9MOL   C242 4418   0.084   3.965   3.705 -0.5453  0.4174 -0.1062
    9MOL   C243 4419   0.107   4.007   3.839 -0.7480 -0.1605 -0.9302
    9MOL   C244 4420   0.120   3.909   3.939 -0.4678  0.2615  0.3379
    9MOL   C245 4421   0.104   3.593   3.769  0.0439  0.6469  0.0267
    9MOL   C246 4422   0.121   3.549   3.897  0.2394 -0.0426 -0.3018
    9MOL   C247 4423   0.132   3.415   3.930  0.2526  0.5360 -0.0664
    9MOL   C248 4424   0.122   3.319   3.829 -0.5269  1.0522 -0.1693
    9MOL   C249 4425   0.097   3.356   3.699 -0.1168 -0.1214  0.4189
    9MOL   C250 4426   0.091   3.492   3.667 -0.0861  0.7450  0.2977
    9MOL   H251 4427   0.315   3.512   4.130  0.2221  0.9748 -0.6391
    9MOL   H252 4428   0.311   3.605   4.268  1.2755 -2.8351  0.4592
    9MOL   H253 4429   0.143   3.765   4.168 -0.8562  1.1676 -0.5542
    9MOL   H254 4430   0.099   3.801   3.570  2.9668 -1.9141  0.3465
    9MOL   H255 4431   0.086   4.045   3.632  0.2860  0.4883 -0.0085
    9MOL   H256 4432   0.110   4.111   3.865 -2.2818 -0.5813  1.0177
    9MOL   H257 4433   0.132   3.951   4.038  1.9778 -0.4321  0.3777
    9MOL   H258 4434   0.149   3.383   4.032  0.7139 -0.0323 -0.3134
    9MOL   H259 4435   0.134   3.213   3.844 -1.5338  0.8326 -0.9114
    9MOL   H260 4436   0.090   3.273   3.631  0.0495  0.9718 -0.9513
    9MOL   H261 4437   0.088   3.524   3.564  3.5904  4.4098  1.1764
    9MOL   C262 4438   0.029   3.597   4.202  0.0490  0.2141 -0.2473
    9MOL   C263 4439   0.040   3.606   4.360  0.0055 -0.3838  0.0621
    9MOL   N264 4440   0.111   3.726   4.408  0.8449 -0.1052 -0.1616
    9MOL   C265 4441   0.218   3.730   4.500 -0.7594  0.3093  0.4465
    9MOL   C266 4442   0.262   3.864   4.513  0.2680  0.1924 -0.1472
    9MOL   C267 4443   0.385   3.891   4.575  0.4351 -0.3204 -0.4290
    9MOL   C268 4444   0.468   3.782   4.618 -0.6562  0.4935 -1.0610
    9MOL   C269 4445   0.425   3.642   4.611  0.2338 -0.1786 -0.0217
    9MOL   C270 4446   0.293   3.626   4.550  0.6604  0.5205 -0.7760
    9MOL   C271 4447   0.169   3.941   4.436 -0.1077 -0.9154 -0.1944
    9MOL   C272 4448   0.073   3.859   4.382  0.8441 -0.6847 -0.1970
    9MOL   C273 4449   8.203   3.916   4.299 -0.5459  0.0208  0.2847
    9MOL   C274 4450   8.193   4.050   4.268  0.4291  0.6885 -0.2279
    9MOL   C275 4451   0.056   4.135   4.329 -0.3822  0.4046  0.4638
    9MOL   C276 4452   0.164   4.082   4.410 -0.2869 -0.0745  0.3239
    9MOL   H277 4453   8.171   3.657   4.171  1.4453  3.1777  1.4945
    9MOL   H278 4454   0.015   3.491   4.177  1.3387  0.1545 -0.7192
    9MOL   H279 4455   0.097   3.517   4.386 -0.7847 -0.9787 -0.2123
    9MOL   H280 4456   0.423   3.992   4.581 -2.1786  0.5997  1.5693
    9MOL   H281 4457   0.566   3.808   4.656 -0.9407  2.2104 -1.4952
    9MOL   H282 4458   0.479   3.552   4.638 -0.9070 -1.1309 -0.8887
    9MOL   H283 4459   0.255   3.525   4.544  1.2469  0.3403 -1.5757
    9MOL   H284 4460   8.138   3.843   4.252  0.6224 -1.1542  0.4658
    9MOL   H285 4461   8.115   4.090   4.205  1.1443  0.6316 -1.1585
    9MOL   H286 4462   0.046   4.240   4.304 -3.5355 -0.3476 -1.6779
    9MOL   H287 4463   0.236   4.154   4.446 -0.2604  0.0820 -0.0409
    9MOL   C288 4464   8.127   3.607   4.432 -0.3808  0.0654  0.1526
    9MOL   C289 4465   8.065   3.472   4.459 -0.1641  0.5546 -0.3465
    9MOL   N290 4466   8.158   3.383   4.523  0.0896 -0.3547 -0.5638
    9MOL   C291 4467   8.159   3.251   4.487  0.1150 -0.0303 -0.3636
    9MOL   C292 4468   0.034   3.182   4.553 -0.0724  0.2818  0.1261
    9MOL   C293 4469   0.066   3.051   4.518 -0.1208 -0.5921  0.6582
    9MOL   C294 4470   8.217   2.981   4.419  0.1444  0.0767 -0.4011
    9MOL   C295 4471   8.103   3.044   4.362 -1.2110  0.0908  0.0978
    9MOL   C296 4472   8.076   3.173   4.400  0.3290  0.0672 -0.0141
    9MOL   C297 4473   0.093   3.278   4.646 -0.5369 -0.6497  0.3113
    9MOL   C298 4474   0.018   3.400   4.631 -0.4911 -0.0946 -0.5389
    9MOL   C299 4475   0.042   3.506   4.720  0.1252  0.0922  0.4588
    9MOL   C300 4476   0.146   3.506   4.816  0.1996  0.6808 -0.2261
    9MOL   C301 4477   0.222   3.390   4.826 -0.4315  1.1005  0.5726
    9MOL   C302 4478   0.199   3.278   4.740 -0.1255 -0.3106 -0.1401
    9MOL   H303 4479   8.135   3.654   4.530  2.9917  0.1404 -0.1162
    9MOL   H304 4480   8.065   3.673   4.371  0.2852  0.8002  0.2649
    9MOL   H305 4481   8.032   3.425   4.367 -0.7160 -0.1992  0.2377
    9MOL   H306 4482   0.147   3.003   4.572 -0.4628 -1.4778  0.3970
    9MOL   H307 4483   0.028   2.883   4.396  1.1381 -0.3890  2.9537
    9MOL   H308 4484   8.045   2.989   4.290 -1.1072  0.1020  0.0056
    9MOL   H309 4485   7.983   3.219   4.368 -0.5839 -2.0842 -0.5845
    9MOL   H310 4486   0.000   3.605   4.708  1.5273  0.5762 -0.5706
    9MOL   H311 4487   0.167   3.597   4.871  0.5483  1.2514 -1.2947
    9MOL   H312 4488   0.309   3.382   4.889 -1.8288 -1.1179  2.2940
    9MOL   H313 4489   0.255   3.187   4.755 -0.0130 -0.2238 -0.0329
    9MOL   C314 4490   7.938   3.495   4.547  0.0323  0.3834  0.3821
    9MOL   C315 4491   7.816   3.568   4.491 -0.4661 -0.2366  0.8149
    9MOL   N316 4492   7.752   3.506   4.374 -0.4066  0.3936 -0.2048
    9MOL   C317 4493   7.728   3.568   4.251 -0.1120  0.1071 -0.3658
    9MOL   C318 4494   7.666   3.476   4.162 -0.1908  0.3085 -0.5408
    9MOL   C319 4495   7.642   3.515   4.028  0.9650 -0.1544 -0.1520
    9MOL   C320 4496   7.673   3.637   3.977 -0.0394  0.0656 -0.3021
    9MOL   C321 4497   7.738   3.733   4.060 -0.8176  1.0661 -0.9203
    9MOL   C322 4498   7.759   3.694   4.198  0.0203  0.5277 -0.6926
    9MOL   C323 4499   7.653   3.351   4.237  0.3359  0.4303  0.1085
    9MOL   C324 4500   7.694   3.378   4.371 -0.7359  0.3251 -0.3975
    9MOL   C325 4501   7.681   3.281   4.476 -0.9489  0.5409  0.1874
    9MOL   C326 4502   7.644   3.151   4.440  0.8301  0.1202  0.4850
    9MOL   C327 4503   7.608   3.122   4.311 -0.0264  0.1183  0.2522
    9MOL   C328 4504   7.607   3.222   4.210 -0.5142 -0.2241 -0.9972
    9MOL   H329 4505   7.900   3.408   4.600 -3.5648  2.2152  0.9376
    9MOL   H330 4506   7.968   3.561   4.629 -2.2171  0.2219  1.3741
    9MOL   H331 4507   7.854   3.665   4.458  0.0502 -0.3210  1.1525
    9MOL   H332 4508   7.598   3.440   3.964  1.0314 -0.0174 -0.3593
    9MOL   H333 4509   7.642   3.655   3.875 -0.7645 -0.6567 -0.2128
    9MOL   H334 4510   7.759   3.832   4.023 -0.3853  0.3382 -2.6633
    9MOL   H335 4511   7.813   3.766   4.257  0.9040 -1.1428  0.5805
    9MOL   H336 4512   7.710   3.299   4.578  0.2024 -1.2789  0.2139
    9MOL   H337 4513   7.640   3.082   4.523 -1.5450 -0.9101 -0.4396
    9MOL   H338 4514   7.579   3.020   4.292  0.4161  0.0688 -0.1827
    9MOL   H339 4515   7.570   3.196   4.111  1.5592  1.3556 -2.2218
    9MOL   C340 4516   7.704   3.615   4.586  0.1186  0.0690 -1.0786
    9MOL   C341 4517   7.756   3.702   4.703 -0.3830  0.1113  0.0700
    9MOL   N342 4518   7.839   3.819   4.662 -0.9149  0.3527 -0.2440
    9MOL   C343 4519   7.965   3.853   4.720  0.2278 -0.1285  0.1898
    9MOL   C344 4520   8.021   3.961   4.652 -0.1017  0.1613 -0.3001
    9MOL   C345 4521   8.151   4.000   4.698  0.2751 -0.0189  0.4535
    9MOL   C346 4522   8.219   3.933   4.794  0.4828  0.5674 -0.2807
    9MOL   C347 4523   8.157   3.827   4.857  0.4338 -1.1025 -0.3568
    9MOL   C348 4524   8.027   3.788   4.823 -0.0757  0.2361 -0.2573
    9MOL   C349 4525   7.927   4.005   4.555  0.0143 -0.5387 -0.0709
    9MOL   C350 4526   7.814   3.918   4.567  0.7323 -0.1133  0.3282
    9MOL   C351 4527   7.706   3.937   4.477  0.4974  0.1315 -0.3343
    9MOL   C352 4528   7.703   4.046   4.388  0.5601 -0.0362  0.1317
    9MOL   C353 4529   7.810   4.132   4.375  0.0086 -0.2855  0.0519
    9MOL   C354 4530   7.924   4.110   4.458  0.1669  0.2534  1.3060
    9MOL   H355 4531   7.629   3.672   4.532  0.7072  0.8465 -1.0893
    9MOL   H356 4532   7.651   3.532   4.633 -0.7345  1.4066  0.3560
    9MOL   H357 4533   7.824   3.637   4.758 -0.7443  1.4196  2.1670
    9MOL   H358 4534   8.205   4.079   4.646 -0.0801  2.4898  3.7607
    9MOL   H359 4535   0.094   3.950   4.823  0.2444  1.0601  0.2841
    9MOL   H360 4536   8.218   3.780   4.932  3.0899  3.3328  0.4510
    9MOL   H361 4537   7.998   3.698   4.875 -1.2285 -0.2575 -1.7145
    9MOL   H362 4538   7.610   3.887   4.476  0.5357  0.0669 -1.9197
    9MOL   H363 4539   7.610   4.068   4.337  0.5586 -2.0381 -0.7440
    9MOL   H364 4540   7.803   4.219   4.311 -1.5623  0.2359  0.8821
    9MOL   H365 4541   8.012   4.172   4.458 -0.2017  0.8244 -1.1987
    9MOL   C366 4542   7.642   3.760   4.798 -0.3959 -0.2133 -0.5388
    9MOL   C367 4543   7.627   3.671   4.929 -0.1440  0.3064 -0.2050
    9MOL   N368 4544   7.745   3.665   5.015 -0.8084  0.0970 -0.0274
    9MOL   C369 4545   7.824   3.546   5.033 -0.3216 -0.4335  0.2324
    9MOL   C370 4546   7.942   3.574   5.103  0.5723 -0.2263  0.2728
    9MOL   C371 4547   8.046   3.477   5.119 -0.0246  0.4643  0.5642
    9MOL   C372 4548   8.013   3.343   5.077  0.5776 -0.1455  0.8275
    9MOL   C373 4549   7.887   3.315   5.023  0.6638  0.3860 -0.0367
    9MOL   C374 4550   7.793   3.417   4.995  0.0347  0.9307 -0.4155
    9MOL   C375 4551   7.927   3.714   5.147  0.1557 -0.3381  0.2110
    9MOL   C376 4552   7.813   3.767   5.084  0.5094 -0.0286 -0.4718
    9MOL   C377 4553   7.785   3.902   5.100  0.2382  0.0119  0.6550
    9MOL   C378 4554   7.860   3.983   5.181 -0.2564 -0.4287  0.3871
    9MOL   C379 4555   7.975   3.935   5.244  0.3555 -0.0850  0.5076
    9MOL   C380 4556   8.007   3.802   5.224 -0.0676  0.9673  0.4538
    9MOL   H381 4557   7.674   3.861   4.825  1.7047 -1.3514  1.3819
    9MOL   H382 4558   7.551   3.772   4.739 -1.5510  0.4009  1.3500
    9MOL   H383 4559   7.618   3.567   4.896 -0.0049  0.1343  0.2959
    9MOL   H384 4560   8.142   3.508   5.157  0.8826  0.3441 -1.5706
    9MOL   H385 4561   8.083   3.264   5.100  0.0163 -0.8533  0.1543
    9MOL   H386 4562   7.865   3.210   5.007  2.9044  0.2945 -2.9273
    9MOL   H387 4563   7.698   3.388   4.953  0.4471 -0.1951 -0.5967
    9MOL   H388 4564   7.697   3.942   5.053  1.3037 -1.6180 -2.9863
    9MOL   H389 4565   7.842   4.086   5.205  4.8912  1.2023 -2.0084
    9MOL   H390 4566   8.038   4.002   5.299 -1.0518  1.5116  0.2117
    9MOL   H391 4567   8.107   3.774   5.256 -0.3856 -1.0777 -0.3082
    9MOL   C392 4568   7.493   3.693   5.006  0.2132 -0.3358 -0.0283
    9MOL   C393 4569   7.369   3.615   4.948  0.2512 -0.0890  0.6906
    9MOL   N394 4570   7.389   3.466   4.965 -0.0038  0.0125  0.2606
    9MOL   C395 4571   7.378   3.371   4.857  0.2465  0.3520 -0.4591
    9MOL   C396 4572   7.417   3.244   4.912  0.9141 -0.4431  0.2157
    9MOL   C397 4573   7.424   3.134   4.821 -0.6977  0.2692 -0.3548
    9MOL   C398 4574   7.413   3.162   4.678 -0.5758 -0.3664 -0.1871
    9MOL   C399 4575   7.366   3.284   4.632 -0.2108 -0.9791  0.6146
    9MOL   C400 4576   7.354   3.395   4.722  0.1492  0.6874 -0.0726
    9MOL   C401 4577   7.421   3.263   5.052 -0.3560 -0.1885  0.0844
    9MOL   C402 4578   7.398   3.397   5.086  0.1804  0.3980  0.1949
    9MOL   C403 4579   7.392   3.437   5.218  0.4439  0.1629  0.1878
    9MOL   C404 4580   7.409   3.340   5.321  0.2263 -0.5316 -0.1332
    9MOL   C405 4581   7.444   3.209   5.289 -0.3988 -0.0191  0.3314
    9MOL   C406 4582   7.456   3.169   5.151 -0.1603  0.4346  0.3939
    9MOL   H407 4583   7.500   3.654   5.108  2.2685  0.5142  0.1972
    9MOL   H408 4584   7.467   3.798   5.022  0.3899 -0.8452  4.0875
    9MOL   H409 4585   7.379   3.633   4.841  0.5644 -0.7395  0.6065
    9MOL   H410 4586   7.453   3.034   4.850 -1.4303 -0.4114 -1.9529
    9MOL   H411 4587   7.427   3.087   4.601  0.4785  0.5680 -0.9334
    9MOL   H412 4588   7.346   3.285   4.526 -0.4891  1.0489  0.6822
    9MOL   H413 4589   7.314   3.489   4.686 -3.4839 -1.2691 -1.4515
    9MOL   H414 4590   7.377   3.542   5.238  1.4780  1.2154 -4.1359
    9MOL   H415 4591   7.406   3.370   5.424  1.8231 -1.2821  0.1454
    9MOL   H416 4592   7.447   3.138   5.370  0.9435 -1.9836 -1.3750
    9MOL   H417 4593   7.489   3.072   5.119  1.9404  1.7239 -1.5143
    9MOL   C418 4594   7.226   3.668   4.997 -0.0651 -0.1565  0.3772
    9MOL   C419 4595   7.169   3.806   4.949 -0.1263  0.1256 -0.3343
    9MOL   N420 4596   7.236   3.856   4.827 -0.2261  0.1568  0.1121
    9MOL   C421 4597   7.332   3.954   4.818 -0.1645  0.1872 -0.0491
    9MOL   C422 4598   7.367   3.977   4.686 -0.6314  1.2858 -0.0401
    9MOL   C423 4599   7.448   4.082   4.655 -0.0164 -0.2645  0.4081
    9MOL   C424 4600   7.503   4.166   4.751 -0.0738  0.3101  0.2140
    9MOL   C425 4601   7.466   4.139   4.888  0.9321  0.0632  0.1279
    9MOL   C426 4602   7.382   4.034   4.919  0.1180 -0.0836 -0.4071
    9MOL   C427 4603   7.305   3.881   4.604  0.2370  0.1358  0.0212
    9MOL   C428 4604   7.237   3.799   4.696  0.6804 -0.2506  0.1131
    9MOL   C429 4605   7.170   3.681   4.655  0.1791  0.1421  0.8055
    9MOL   C430 4606   7.174   3.645   4.519  0.5037  0.1692 -0.2824
    9MOL   C431 4607   7.239   3.732   4.425 -0.4150  0.1794 -0.2940
    9MOL   C432 4608   7.303   3.850   4.466 -0.5146  0.6155 -0.0017
    9MOL   H433 4609   7.164   3.583   4.966  0.7372 -0.8047  0.5527
    9MOL   H434 4610   7.231   3.667   5.106  0.6580  0.4922  0.3487
    9MOL   H435 4611   7.194   3.872   5.032 -0.0191 -2.5476  1.8087
    9MOL   H436 4612   7.467   4.100   4.550 -0.7449  0.5563  0.4149
    9MOL   H437 4613   7.569   4.249   4.728  1.1907 -0.5389  0.7076
    9MOL   H438 4614   7.489   4.204   4.970  0.6886  1.2997 -0.7748
    9MOL   H439 4615   7.359   4.021   5.024  2.8012  1.9053  0.4949
    9MOL   H440 4616   7.102   3.627   4.718 -0.7330 -0.3422 -0.5557
    9MOL   H441 4617   7.120   3.555   4.493  0.7477 -0.2894  0.7658
    9MOL   H442 4618   7.251   3.704   4.322  1.3366  2.3513 -0.7176
    9MOL   H443 4619   7.360   3.911   4.397 -0.5099  0.2373 -0.3393
    9MOL   C444 4620   7.011   3.801   4.949 -1.0451 -0.4618  0.6892
    9MOL   C445 4621   6.949   3.782   5.089  0.8163 -0.1198  0.0540
    9MOL   N446 4622   7.003   3.883   5.179 -0.5716  0.3141  0.2508
    9MOL   C447 4623   7.090   3.858   5.291  0.2994  0.2041 -0.0027
    9MOL   C448 4624   7.135   3.982   5.338 -0.5993  0.6915 -0.6091
    9MOL   C449 4625   7.234   3.985   5.439 -0.1055 -0.3620 -0.0594
    9MOL   C450 4626   7.273   3.869   5.502 -0.0722 -0.1342  0.8132
    9MOL   C451 4627   7.219   3.745   5.460 -0.1580  0.0470 -0.5892
    9MOL   C452 4628   7.136   3.738   5.350 -0.2711 -0.0432  0.0339
    9MOL   C453 4629   7.059   4.081   5.271  0.3850 -0.5271  0.3187
    9MOL   C454 4630   6.980   4.016   5.171  0.0952 -0.1227  0.5577
    9MOL   C455 4631   6.910   4.092   5.075 -0.5087 -0.3783  0.1101
    9MOL   C456 4632   6.914   4.234   5.077  0.0478 -0.0822  0.0747
    9MOL   C457 4633   6.989   4.303   5.184 -0.1791  0.7973  0.8517
    9MOL   C458 4634   7.068   4.221   5.271  0.1968 -0.6245  0.2705
    9MOL   H459 4635   6.973   3.888   4.896  2.5675 -1.2110 -3.5093
    9MOL   H460 4636   6.962   3.722   4.891  0.8554 -0.7855 -0.5448
    9MOL   H461 4637   6.995   3.691   5.126  0.8115  0.2446  0.9629
    9MOL   H462 4638   7.273   4.077   5.479 -0.9969 -0.1157  0.2296
    9MOL   H463 4639   7.351   3.869   5.577  0.8982 -0.1521 -0.1829
    9MOL   H464 4640   7.244   3.650   5.505 -0.8471  1.3323  2.6211
    9MOL   H465 4641   7.099   3.639   5.326  0.1756  0.4305 -2.8104
    9MOL   H466 4642   6.846   4.043   5.004 -0.9092 -1.9790  1.5244
    9MOL   H467 4643   6.871   4.289   4.995  0.4295  1.0128  0.6042
    9MOL   H468 4644   6.994   4.411   5.188 -2.0909  0.9244  0.2143
    9MOL   H469 4645   7.126   4.267   5.349 -0.9734  2.0461 -0.3645
    9MOL   C470 4646   6.794   3.764   5.096 -0.1724  0.1471  0.4334
    9MOL   C471 4647   6.736   3.640   5.025 -0.4017 -0.0722  0.3826
    9MOL   N472 4648   6.826   3.528   5.023 -0.1361  0.7929 -0.2172
    9MOL   C473 4649   6.877   3.467   4.909 -0.5780 -0.0950 -0.2459
    9MOL   C474 4650   6.981   3.375   4.946 -0.0157 -0.0060 -0.0411
    9MOL   C475 4651   7.054   3.307   4.844  0.9219 -0.0310 -0.9196
    9MOL   C476 4652   7.015   3.329   4.705  0.8641  0.8466 -0.0829
    9MOL   C477 4653   6.906   3.407   4.671 -0.0020 -0.3110 -0.0055
    9MOL   C478 4654   6.843   3.483   4.772 -0.6230  0.5747 -0.7765
    9MOL   C479 4655   6.982   3.374   5.090  0.6085  0.1923 -0.8226
    9MOL   C480 4656   6.881   3.464   5.133  0.2278 -0.1152  0.1322
    9MOL   C481 4657   6.856   3.478   5.269  0.0463 -0.0700 -0.3000
    9MOL   C482 4658   6.919   3.409   5.367  0.1526 -0.2135 -0.4096
    9MOL   C483 4659   7.025   3.324   5.322  0.1189  0.3056  0.7590
    9MOL   C484 4660   7.054   3.305   5.185 -0.6811  0.3388 -0.1224
    9MOL   H485 4661   6.766   3.756   5.201 -3.2738 -0.0154 -0.3633
    9MOL   H486 4662   6.743   3.852   5.057 -2.9991 -1.3062  0.7629
    9MOL   H487 4663   6.732   3.666   4.919 -2.1260 -2.6280 -0.2256
    9MOL   H488 4664   7.131   3.237   4.874 -0.4958 -1.9557 -1.6766
    9MOL   H489 4665   7.059   3.270   4.626 -2.3273 -0.7551 -0.7712
    9MOL   H490 4666   6.857   3.414   4.575  0.6734  0.6577 -0.2919
    9MOL   H491 4667   6.758   3.543   4.744 -1.6395 -0.2163  0.5478
    9MOL   H492 4668   6.778   3.546   5.300 -1.2859 -2.1164  0.9487
    9MOL   H493 4669   6.896   3.425   5.471 -2.2184 -1.8165 -0.6417
    9MOL   H494 4670   7.085   3.277   5.398  0.9243 -0.0156 -0.0810
    9MOL   H495 4671   7.141   3.245   5.163 -1.7428 -0.6535 -1.7182
    9MOL   C496 4672   6.587   3.600   5.060 -0.0707 -0.1963  0.2691
    9MOL   C497 4673   6.552   3.474   4.980 -0.7205 -0.8726  0.2702
    9MOL   N498 4674   6.423   3.432   5.031 -0.3986 -0.0099  0.2616
    9MOL   C499 4675   6.402   3.346   5.139 -0.3178 -0.2003 -0.4666
    9MOL   C500 4676   6.267   3.308   5.148  1.0678 -0.1104  0.6150
    9MOL   C501 4677   6.224   3.220   5.254  0.0271  0.3083 -0.1828
    9MOL   C502 4678   6.325   3.159   5.336  0.9375 -0.0524 -0.3313
    9MOL   C503 4679   6.458   3.178   5.311 -0.3371 -0.1891  0.1684
    9MOL   C504 4680   6.494   3.284   5.224 -0.6884 -0.0450  0.1137
    9MOL   C505 4681   6.200   3.371   5.040 -0.2809 -0.0288  0.2304
    9MOL   C506 4682   6.299   3.438   4.969  0.1981 -0.0146 -0.2992
    9MOL   C507 4683   6.266   3.485   4.839 -0.5561 -0.3976 -0.3566
    9MOL   C508 4684   6.132   3.480   4.792 -0.5153 -0.4406  0.3597
    9MOL   C509 4685   6.033   3.426   4.874 -0.2724  0.2921  0.6344
    9MOL   C510 4686   6.068   3.379   4.999 -0.3075 -0.1679 -0.0629
    9MOL   H511 4687   6.579   3.576   5.166  0.1399 -2.4120 -0.2082
    9MOL   H512 4688   6.513   3.679   5.043 -0.7140 -0.8178  0.1770
    9MOL   H513 4689   6.620   3.390   4.996  1.7729  0.7297 -1.6164
    9MOL   H514 4690   6.120   3.196   5.274  0.0840 -0.7709 -1.1180
    9MOL   H515 4691   6.291   3.079   5.400 -2.4624  1.2762 -0.3502
    9MOL   H516 4692   6.533   3.130   5.372 -1.2184  1.0110  2.2454
    9MOL   H517 4693   6.599   3.288   5.203 -0.4924 -0.0467  1.0552
    9MOL   H518 4694   6.345   3.531   4.782 -1.2261 -0.1402 -1.0936
    9MOL   H519 4695   6.097   3.518   4.697  1.3120 -1.2598 -0.6654
    9MOL   H520 4696   5.929   3.432   4.844 -0.0757 -1.6965 -0.5445
    9MOL   H521 4697   5.988   3.331   5.053  0.9724 -0.0440  2.0245
    9MOL   H522 4698   6.551   3.482   4.872 -1.8318  0.4703  0.3673
   10MOL     C1 4699   2.825   3.970   0.068  0.0783  0.2817 -0.4964
   10MOL     C2 4700   2.845   3.897   8.162 -0.0623 -0.1546 -0.2560
   10MOL     N3 4701   2.848   3.754   8.183  0.6975  0.2387 -0.4501
   10MOL     C4 4702   2.961   3.676   8.175  0.2179 -1.1095 -0.4890
   10MOL     C5 4703   2.937   3.541   8.203  0.4188  1.4514 -0.3121
   10MOL     C6 4704   3.039   3.444   8.199 -1.0805 -0.6124  0.2045
   10MOL     C7 4705   3.172   3.481   8.165 -0.0937 -0.3140  1.2185
   10MOL     C8 4706   3.191   3.617   8.132 -0.4305 -0.6980 -0.2197
   10MOL     C9 4707   3.088   3.712   8.136 -0.0701 -0.8880 -0.5714
   10MOL    C10 4708   2.794   3.536   0.012  0.2080 -0.2003 -0.3284
   10MOL    C11 4709   2.749   3.669   8.219  0.5051  0.1308 -0.0566
   10MOL    C12 4710   2.614   3.696   0.030  0.0324 -0.4082  0.7397
   10MOL    C13 4711   2.525   3.591   0.064  0.6370 -0.6868 -0.3818
   10MOL    C14 4712   2.573   3.460   0.066 -0.1956 -0.2203 -0.4910
   10MOL    C15 4713   2.706   3.435   0.050  0.2912  0.1949 -0.7060
   10MOL    H16 4714   2.819   4.076   0.045 -0.0452 -0.1372 -2.5235
   10MOL    H17 4715   2.916   3.955   0.127  2.0220  0.8139 -3.2687
   10MOL    H18 4716   2.939   3.947   8.137 -0.2671  0.5557  0.3711
   10MOL    H19 4717   3.021   3.340   8.219 -0.5024 -0.6922  0.3051
   10MOL    H20 4718   3.249   3.406   8.156 -0.4373 -0.3481 -1.7707
   10MOL    H21 4719   3.292   3.648   8.112 -0.6818  0.4233  0.2281
   10MOL    H22 4720   3.116   3.812   8.108 -2.6358 -0.0888 -0.3616
   10MOL    H23 4721   2.573   3.796   0.033 -1.2461 -0.9149  0.4357
   10MOL    H24 4722   2.423   3.608   0.093  1.2016  1.9210  0.1665
   10MOL    H25 4723   2.505   3.386   0.106 -1.0522  0.4430 -0.7037
   10MOL    H26 4724   2.747   3.335   0.052  0.3871  0.2650  1.0424
   10MOL    H27 4725   2.730   3.953   0.119  0.0450 -0.5340 -0.8226
   10MOL    C28 4726   2.749   3.930   8.044 -0.3088 -0.1930  0.0456
   10MOL    C29 4727   2.749   4.074   7.986  0.0076  0.1240  0.2895
   10MOL    N30 4728   2.875   4.142   7.974  0.1256 -0.7313 -0.2219
   10MOL    C31 4729   2.901   4.277   7.995  0.2430  0.5225 -0.3332
   10MOL    C32 4730   3.030   4.309   7.958  0.7307  0.4062 -0.4225
   10MOL    C33 4731   3.069   4.446   7.955  0.1202  0.2481 -0.4278
   10MOL    C34 4732   2.976   4.548   7.993 -0.1077  0.4159  0.6410
   10MOL    C35 4733   2.851   4.512   8.048  0.2562 -0.4937  0.6301
   10MOL    C36 4734   2.814   4.377   8.050 -0.8454 -0.3255  0.3958
   10MOL    C37 4735   3.091   4.190   7.914 -0.0665 -0.3839  0.6691
   10MOL    C38 4736   2.988   4.096   7.905  0.7069 -0.1868  0.3450
   10MOL    C39 4737   3.010   3.973   7.838  0.1945 -1.0561 -0.5322
   10MOL    C40 4738   3.136   3.942   7.767  0.3777 -0.1934 -0.0811
   10MOL    C41 4739   3.236   4.042   7.775 -0.2922  0.8680  0.9025
   10MOL    C42 4740   3.216   4.158   7.848 -0.0440  0.3180  0.1416
   10MOL    H43 4741   2.771   3.862   7.961  0.2190  1.0965 -0.8840
   10MOL    H44 4742   2.649   3.902   8.077 -0.3423 -0.0700  0.0459
   10MOL    H45 4743   2.687   4.135   8.052 -1.2594 -0.1837 -0.5995
   10MOL    H46 4744   3.170   4.465   7.921 -0.4162 -0.5691 -2.5626
   10MOL    H47 4745   2.998   4.653   7.983 -1.8607  0.6267 -1.5200
   10MOL    H48 4746   2.784   4.591   8.078  0.4784 -1.4419  3.6984
   10MOL    H49 4747   2.722   4.340   8.093 -0.6298 -0.8645  0.3979
   10MOL    H50 4748   2.941   3.891   7.828 -0.7680 -0.8215  3.4673
   10MOL    H51 4749   3.148   3.851   7.710 -0.4163 -0.3188 -0.0653
   10MOL    H52 4750   3.330   4.031   7.724 -1.5443 -2.8812 -0.8012
   10MOL    H53 4751   3.304   4.220   7.856 -0.7153  1.4677 -1.1592
   10MOL    C54 4752   2.677   4.088   7.849  0.3334 -0.4804  0.4358
   10MOL    C55 4753   2.528   4.047   7.848  0.0808 -0.1547  0.3582
   10MOL    N56 4754   2.441   4.089   7.963 -0.3363  0.5814  0.5071
   10MOL    C57 4755   2.352   4.004   8.031  0.2650 -0.8605  0.3516
   10MOL    C58 4756   2.277   4.083   8.125  0.3793  0.6441 -0.3396
   10MOL    C59 4757   2.192   4.011   8.216  0.1301 -0.2010  0.3927
   10MOL    C60 4758   2.175   3.871   8.213  0.1122  0.3165  0.0335
   10MOL    C61 4759   2.244   3.798   8.111  0.7586 -0.2353  0.0573
   10MOL    C62 4760   2.332   3.869   8.025 -0.1426 -0.4803 -0.2765
   10MOL    C63 4761   2.317   4.218   8.104 -1.0274  0.9176  0.1643
   10MOL    C64 4762   2.417   4.220   8.002  0.0727 -0.4458  0.0947
   10MOL    C65 4763   2.474   4.347   7.961  0.3205  0.1728 -0.3951
   10MOL    C66 4764   2.428   4.467   8.016 -0.1497 -0.5635  0.4097
   10MOL    C67 4765   2.328   4.464   8.115 -0.0816  0.1137  0.2433
   10MOL    C68 4766   2.280   4.339   8.160 -0.3041  0.4315 -0.5866
   10MOL    H69 4767   2.684   4.190   7.810 -3.0079 -0.4346 -0.1957
   10MOL    H70 4768   2.730   4.029   7.774 -2.6468  0.4763 -2.5731
   10MOL    H71 4769   2.532   3.938   7.855 -1.1599 -0.2283  0.1014
   10MOL    H72 4770   2.148   4.078   0.061  1.9426  1.1514  0.2760
   10MOL    H73 4771   2.107   3.827   0.056  0.2513 -1.5940 -0.9965
   10MOL    H74 4772   2.226   3.691   8.102  0.5850 -0.3966  1.9255
   10MOL    H75 4773   2.382   3.816   7.945 -0.1362 -0.1873 -0.4689
   10MOL    H76 4774   2.555   4.352   7.890  1.4818 -0.3348  0.8792
   10MOL    H77 4775   2.462   4.566   7.990  0.3912 -0.2227  2.3255
   10MOL    H78 4776   2.298   4.560   8.155 -0.7532  0.1604 -0.3488
   10MOL    H79 4777   2.205   4.325   0.008  2.0223 -1.0698  1.5454
   10MOL    C80 4778   2.460   4.079   7.715 -0.3120 -0.3134  1.0519
   10MOL    C81 4779   2.529   4.019   7.586  0.9268  0.7337 -0.8515
   10MOL    N82 4780   2.548   3.869   7.593  0.5139  0.2798  0.3555
   10MOL    C83 4781   2.672   3.805   7.580  0.2586 -0.3440 -0.2774
   10MOL    C84 4782   2.656   3.666   7.610  0.1335  0.2008 -0.3141
   10MOL    C85 4783   2.773   3.588   7.611 -0.1735  0.7357 -0.1226
   10MOL    C86 4784   2.900   3.642   7.589 -0.7727 -0.2212  0.1946
   10MOL    C87 4785   2.914   3.780   7.556  0.3879  0.2275 -0.0550
   10MOL    C88 4786   2.798   3.860   7.556  0.4892 -0.3134  0.1773
   10MOL    C89 4787   2.517   3.642   7.639  0.1926 -0.7519  0.1704
   10MOL    C90 4788   2.450   3.767   7.624  0.6510  0.0087 -0.1943
   10MOL    C91 4789   2.309   3.772   7.638  0.0180 -0.3289 -0.3085
   10MOL    C92 4790   2.235   3.661   7.672 -0.1939  0.2095  0.9743
   10MOL    C93 4791   2.303   3.542   7.703 -0.8050 -0.4184 -0.0562
   10MOL    C94 4792   2.441   3.529   7.682 -0.1222  0.1795 -0.5786
   10MOL    H95 4793   2.355   4.050   7.711 -0.2186 -0.5251  0.1513
   10MOL    H96 4794   2.449   4.186   7.700 -0.2625 -0.5487 -0.7130
   10MOL    H97 4795   2.630   4.061   7.588  1.1352  0.2250 -0.2753
   10MOL    H98 4796   2.761   3.482   7.627  0.9580  0.1962 -2.6047
   10MOL    H99 4797   2.990   3.582   7.585 -0.2962  0.4895  0.2251
   10MOL   H100 4798   3.008   3.828   7.535  1.1709 -0.8627  0.9168
   10MOL   H101 4799   2.816   3.966   7.543 -1.3641 -0.4639 -4.5915
   10MOL   H102 4800   2.247   3.859   7.619  0.9762  0.3565 -0.3221
   10MOL   H103 4801   2.128   3.668   7.669 -0.2443 -0.8028 -0.0052
   10MOL   H104 4802   2.249   3.456   7.738  1.2981 -1.4609  0.6564
   10MOL   H105 4803   2.487   3.431   7.684 -0.8047 -0.1261  2.3718
   10MOL   C106 4804   2.473   4.071   7.457 -0.0600 -0.2126 -0.1166
   10MOL   C107 4805   2.516   4.215   7.429  0.1625 -0.5888  0.5770
   10MOL   N108 4806   2.647   4.209   7.364 -1.0052 -0.8108 -0.1659
   10MOL   C109 4807   2.762   4.263   7.422 -0.5044  0.6301 -0.9339
   10MOL   C110 4808   2.871   4.255   7.332  0.5594  0.2072  0.2514
   10MOL   C111 4809   2.998   4.303   7.368 -0.3394 -0.1100  0.3363
   10MOL   C112 4810   3.021   4.344   7.507  0.6552 -0.2063 -0.3266
   10MOL   C113 4811   2.906   4.358   7.590  0.6750  0.2024 -0.1276
   10MOL   C114 4812   2.778   4.313   7.553  0.3165 -0.3385 -0.3900
   10MOL   C115 4813   2.812   4.202   7.208  0.0849  0.8461 -0.8412
   10MOL   C116 4814   2.678   4.169   7.231 -0.1866 -0.2451 -0.1477
   10MOL   C117 4815   2.595   4.118   7.130 -0.6043  0.5849 -0.0967
   10MOL   C118 4816   2.654   4.095   7.004  0.6212 -0.4390 -0.0581
   10MOL   C119 4817   2.785   4.128   6.977 -0.2673  0.6050 -0.3478
   10MOL   C120 4818   2.864   4.179   7.084  0.5769 -0.5082  0.2220
   10MOL   H121 4819   2.506   4.004   7.377 -1.0309  2.8117 -3.1571
   10MOL   H122 4820   2.365   4.078   7.457 -0.0104  0.7084 -1.2784
   10MOL   H123 4821   2.509   4.269   7.523 -0.9432 -1.3667  0.9645
   10MOL   H124 4822   3.076   4.297   7.293 -2.1909 -0.8394 -1.6055
   10MOL   H125 4823   3.114   4.375   7.551 -0.0811 -0.4628  1.4645
   10MOL   H126 4824   2.923   4.405   7.686 -0.0281  0.8230 -0.3046
   10MOL   H127 4825   2.698   4.322   7.625  0.6407  4.2759 -0.4718
   10MOL   H128 4826   2.491   4.093   7.147 -0.6202  0.1307 -0.8162
   10MOL   H129 4827   2.596   4.050   6.925  1.9947  0.0135 -1.3526
   10MOL   H130 4828   2.834   4.106   6.884 -0.3280  0.1093 -0.2660
   10MOL   H131 4829   2.968   4.201   7.071  0.3133 -0.3365 -1.7093
   10MOL   C132 4830   2.432   4.303   7.337  0.0671  0.3000 -0.3963
   10MOL   C133 4831   2.493   4.440   7.303  0.3075 -0.1359 -0.8845
   10MOL   N134 4832   2.452   4.501   7.177  0.1827  0.3622  0.1667
   10MOL   C135 4833   2.535   4.574   7.088  0.6694 -0.1049 -0.3324
   10MOL   C136 4834   2.463   4.629   6.979  0.9815 -0.8032 -0.1243
   10MOL   C137 4835   2.527   4.722   6.893  0.2302  0.3330 -0.3001
   10MOL   C138 4836   2.663   4.754   6.907 -0.4061  0.0276  0.5690
   10MOL   C139 4837   2.741   4.688   7.006 -0.3943 -0.2266 -0.1902
   10MOL   C140 4838   2.673   4.602   7.096  0.5896  0.0126  0.4899
   10MOL   C141 4839   2.330   4.574   6.993  0.5676 -0.3635 -0.3931
   10MOL   C142 4840   2.326   4.502   7.115  0.5007 -0.9164 -0.5537
   10MOL   C143 4841   2.201   4.446   7.159  0.8935 -0.3706  0.7244
   10MOL   C144 4842   2.093   4.454   7.071 -0.3321  0.6120  0.6709
   10MOL   C145 4843   2.097   4.524   6.955  0.3654 -0.1812 -0.5539
   10MOL   C146 4844   2.218   4.572   6.912  0.4528 -0.3420  0.5713
   10MOL   H147 4845   2.402   4.250   7.247 -0.1773 -1.5498  0.7574
   10MOL   H148 4846   2.339   4.317   7.393 -0.2149 -1.3314 -0.4296
   10MOL   H149 4847   2.598   4.424   7.276  1.2971  1.0315  2.0314
   10MOL   H150 4848   2.477   4.771   6.812  1.1008 -0.8141 -1.5428
   10MOL   H151 4849   2.711   4.824   6.840  0.0702  1.0300  1.9580
   10MOL   H152 4850   2.848   4.696   7.012 -0.0984 -2.3763 -1.7246
   10MOL   H153 4851   2.725   4.550   7.176 -0.5792 -3.3870 -0.8835
   10MOL   H154 4852   2.187   4.394   7.253  1.4018 -1.7339  0.0652
   10MOL   H155 4853   1.999   4.414   7.104 -0.0224 -0.8847 -0.1995
   10MOL   H156 4854   2.002   4.535   6.903  0.7483  0.7169 -1.0889
   10MOL   H157 4855   2.231   4.621   6.817 -0.4985 -2.1796 -0.5176
   10MOL   C158 4856   2.472   4.549   7.421  0.0910 -0.6410  0.5799
   10MOL   C159 4857   2.327   4.602   7.439  0.0768  0.3744 -0.0773
   10MOL   N160 4858   2.304   4.620   7.584  0.1944  0.1107 -0.5617
   10MOL   C161 4859   2.188   4.574   7.654 -0.2571  0.4555  0.8403
   10MOL   C162 4860   2.195   4.627   7.789 -0.1198  0.0379  0.3238
   10MOL   C163 4861   2.088   4.609   7.875  0.4356 -0.9538  0.1439
   10MOL   C164 4862   1.983   4.524   7.836 -0.3840 -0.3452  0.1823
   10MOL   C165 4863   1.986   4.447   7.714 -0.0017 -0.2250  0.8242
   10MOL   C166 4864   2.080   4.486   7.619 -0.7523 -0.5383 -0.3072
   10MOL   C167 4865   2.309   4.712   7.793 -1.1793 -0.7652  1.0033
   10MOL   C168 4866   2.374   4.705   7.668  0.3737  0.6154 -0.5433
   10MOL   C169 4867   2.495   4.775   7.649 -0.1227  0.0628 -0.1290
   10MOL   C170 4868   2.551   4.857   7.754 -0.5881  0.3811 -1.0785
   10MOL   C171 4869   2.490   4.847   7.882  0.1099 -0.2559  0.1595
   10MOL   C172 4870   2.362   4.794   7.895  0.3049 -0.0894 -0.4281
   10MOL   H173 4871   2.502   4.501   7.514 -0.5657 -0.9981  0.6130
   10MOL   H174 4872   2.537   4.631   7.389 -1.4621  0.7617  0.9501
   10MOL   H175 4873   2.252   4.536   7.397  0.7046  1.0965 -2.3903
   10MOL   H176 4874   2.093   4.652   7.974  0.8787  0.6268 -0.5561
   10MOL   H177 4875   1.898   4.512   7.902 -0.9895 -1.5746 -0.7983
   10MOL   H178 4876   1.909   4.377   7.686  0.6502 -1.4932  2.0902
   10MOL   H179 4877   2.092   4.438   7.523  0.4127 -0.5057 -0.1922
   10MOL   H180 4878   2.536   4.785   7.550  0.5464  0.4920  0.1868
   10MOL   H181 4879   2.642   4.910   7.729  1.4098 -3.0815 -1.3629
   10MOL   H182 4880   2.533   4.896   7.969  0.7244 -1.4199  0.5278
   10MOL   H183 4881   2.317   4.791   7.994 -0.3889 -2.0002 -0.7831
   10MOL   C184 4882   2.307   4.731   7.359  0.6640 -0.5419 -0.7799
   10MOL   C185 4883   2.169   4.796   7.359  0.4365  0.6312  0.4776
   10MOL   N186 4884   2.180   4.943   7.362  0.5515 -0.2706  0.3161
   10MOL   C187 4885   2.175   5.015   7.480  0.2367 -0.1834  0.2182
   10MOL   C188 4886   2.200   5.154   7.450 -0.8096  0.2192  0.3333
   10MOL   C189 4887   2.193   5.241   7.554  1.0380  0.6135 -0.2481
   10MOL   C190 4888   2.152   5.207   7.688  0.5027 -0.2162 -0.2446
   10MOL   C191 4889   2.128   5.071   7.710 -1.0158  0.4707 -0.3954
   10MOL   C192 4890   2.144   4.976   7.609  0.4781 -1.1348  0.1426
   10MOL   C193 4891   2.226   5.164   7.313 -0.2715  0.1415 -0.1809
   10MOL   C194 4892   2.218   5.034   7.258  0.0351 -0.5932 -0.0559
   10MOL   C195 4893   2.249   5.015   7.121 -0.4764 -0.3272  0.2624
   10MOL   C196 4894   2.293   5.121   7.039  0.3557  0.2680  0.0517
   10MOL   C197 4895   2.298   5.248   7.094 -1.0304 -0.2618  1.0015
   10MOL   C198 4896   2.260   5.270   7.227  0.1473 -0.5409  0.2935
   10MOL   H199 4897   2.387   4.797   7.392 -0.6889 -0.2244  2.0131
   10MOL   H200 4898   2.327   4.715   7.253 -0.1767 -0.7761 -0.9059
   10MOL   H201 4899   2.119   4.773   7.453 -1.7775  0.8961 -0.6179
   10MOL   H202 4900   2.219   5.342   7.525  2.0350 -0.1017 -1.9153
   10MOL   H203 4901   2.145   5.278   7.769  1.4852  0.2698 -0.5722
   10MOL   H204 4902   2.095   5.032   7.805 -2.7566  0.5672 -0.9498
   10MOL   H205 4903   2.112   4.874   7.625  0.7265 -1.1433  0.6132
   10MOL   H206 4904   2.247   4.919   7.072  1.4547  0.0270 -0.5481
   10MOL   H207 4905   2.312   5.091   6.937 -0.3229  0.5415 -0.1641
   10MOL   H208 4906   2.315   5.327   7.022 -1.4293 -0.6948  0.4247
   10MOL   H209 4907   2.246   5.373   7.256 -2.1558 -0.4236 -1.1643
   10MOL   C210 4908   2.068   4.743   7.249 -0.1542 -0.2546  0.4309
   10MOL   C211 4909   1.918   4.804   7.244 -0.6697  0.1906  0.6275
   10MOL   N212 4910   1.843   4.732   7.134  0.6094 -0.1250 -0.3593
   10MOL   C213 4911   1.797   4.787   7.010  1.1141 -0.2500 -0.2104
   10MOL   C214 4912   1.723   4.690   6.941 -0.2192 -0.1025 -0.3324
   10MOL   C215 4913   1.661   4.732   6.818  0.4058 -0.3976 -0.0181
   10MOL   C216 4914   1.677   4.866   6.774  0.3216  0.1106  0.0659
   10MOL   C217 4915   1.751   4.955   6.845 -0.0398  0.4788  0.6883
   10MOL   C218 4916   1.813   4.920   6.964 -0.0017 -1.1876  0.3333
   10MOL   C219 4917   1.714   4.575   7.028 -0.4069  0.3046  0.3519
   10MOL   C220 4918   1.791   4.601   7.145  0.4689  0.4388  0.3420
   10MOL   C221 4919   1.800   4.502   7.239 -0.8976 -0.0133 -0.7531
   10MOL   C222 4920   1.724   4.383   7.223  0.1236  0.5444 -0.6712
   10MOL   C223 4921   1.653   4.346   7.111 -0.0231 -0.4210  0.8229
   10MOL   C224 4922   1.651   4.450   7.011 -0.3191 -0.0240  0.0226
   10MOL   H225 4923   2.113   4.746   7.150 -0.0793 -0.7125  0.4510
   10MOL   H226 4924   2.053   4.639   7.277  1.0861 -1.4063 -2.8858
   10MOL   H227 4925   1.918   4.907   7.209 -1.4600 -0.2197 -0.6252
   10MOL   H228 4926   1.600   4.661   6.764  1.7293 -1.9024  0.4280
   10MOL   H229 4927   1.616   4.899   6.691 -0.9404  0.2561  1.0463
   10MOL   H230 4928   1.754   5.058   6.813 -1.8408  0.8798  1.7501
   10MOL   H231 4929   1.866   5.000   7.013 -3.2030  2.5598 -2.0230
   10MOL   H232 4930   1.859   4.522   7.328  0.2634 -1.8422 -1.0958
   10MOL   H233 4931   1.733   4.315   7.307  3.3744  0.3503 -1.1132
   10MOL   H234 4932   1.598   4.257   7.085  0.9828 -1.2266  1.4570
   10MOL   H235 4933   1.587   4.424   6.927  2.1826 -1.5033 -1.4740
   10MOL   C236 4934   1.840   4.814   7.375 -0.2224  0.2247  0.2149
   10MOL   C237 4935   1.796   4.955   7.418 -0.4960  0.3055  0.1922
   10MOL   N238 4936   1.713   5.012   7.316 -0.0869  0.1418  0.3426
   10MOL   C239 4937   1.742   5.116   7.227 -0.1455 -1.2054 -0.3099
   10MOL   C240 4938   1.630   5.149   7.152 -0.0974  0.4824  0.6210
   10MOL   C241 4939   1.647   5.254   7.062 -0.2774 -0.1913 -0.1108
   10MOL   C242 4940   1.764   5.320   7.041 -0.6829 -1.1179 -0.2656
   10MOL   C243 4941   1.876   5.283   7.117 -0.3888 -0.1236 -0.4981
   10MOL   C244 4942   1.865   5.184   7.214  0.5704 -0.6479 -0.2453
   10MOL   C245 4943   1.525   5.058   7.185 -0.1988  0.1786  0.8940
   10MOL   C246 4944   1.585   4.966   7.280  0.3884  0.2022 -0.1216
   10MOL   C247 4945   1.501   4.865   7.336 -0.1482 -0.3799 -0.2597
   10MOL   C248 4946   1.367   4.864   7.310  0.5656 -0.3688 -0.0294
   10MOL   C249 4947   1.308   4.951   7.221 -0.2432 -0.9513 -0.5623
   10MOL   C250 4948   1.387   5.050   7.151  0.8066 -0.0264  0.3038
   10MOL   H251 4949   1.752   4.750   7.383 -1.1960  1.5067 -0.1353
   10MOL   H252 4950   1.897   4.764   7.452  0.6248 -0.9771 -1.1587
   10MOL   H253 4951   1.884   5.020   7.422 -1.2115  1.2294  1.1524
   10MOL   H254 4952   1.562   5.284   7.002 -1.7843 -2.2069  0.9275
   10MOL   H255 4953   1.772   5.399   6.968  0.4228 -1.4818 -0.5529
   10MOL   H256 4954   1.971   5.334   7.103 -0.6089 -0.4543 -3.6852
   10MOL   H257 4955   1.951   5.148   7.269  0.4145 -1.9594 -0.8424
   10MOL   H258 4956   1.538   4.800   7.414  1.5674 -1.4774 -1.9633
   10MOL   H259 4957   1.307   4.790   7.361 -0.4780  0.5785  0.1103
   10MOL   H260 4958   1.201   4.953   7.213 -0.5489 -1.6184  2.9514
   10MOL   H261 4959   1.343   5.108   7.071 -1.4228 -0.7149  0.9933
   10MOL   C262 4960   1.740   4.961   7.562 -0.2576 -0.0141 -0.1261
   10MOL   C263 4961   1.685   5.099   7.596  0.0016  1.1601  0.5430
   10MOL   N264 4962   1.596   5.092   7.713  0.0725 -0.8365 -0.1230
   10MOL   C265 4963   1.463   5.135   7.719  0.0544  0.2124 -0.3137
   10MOL   C266 4964   1.404   5.095   7.842 -0.0411 -0.3635  0.0456
   10MOL   C267 4965   1.265   5.118   7.869 -0.1020 -0.5265 -0.2196
   10MOL   C268 4966   1.182   5.175   7.776 -0.1846  0.2291 -0.8741
   10MOL   C269 4967   1.240   5.216   7.654  0.1681 -0.2114  0.2661
   10MOL   C270 4968   1.377   5.200   7.624 -1.3890  0.3752  0.5307
   10MOL   C271 4969   1.508   5.036   7.914  0.3805 -0.1625  0.2699
   10MOL   C272 4970   1.626   5.043   7.839  0.3439 -0.3496  0.3096
   10MOL   C273 4971   1.754   5.008   7.888  0.4098  0.3824  0.4610
   10MOL   C274 4972   1.758   4.959   8.020  0.4595  0.2576  0.4339
   10MOL   C275 4973   1.641   4.936   8.093  0.0790 -0.6711  0.1175
   10MOL   C276 4974   1.517   4.984   8.048  0.1214  0.4278  0.2512
   10MOL   H277 4975   1.657   4.892   7.573 -0.4974  0.7294  2.9920
   10MOL   H278 4976   1.823   4.939   7.629 -2.0517 -1.6199  1.6488
   10MOL   H279 4977   1.619   5.136   7.518 -0.7747 -1.7563 -0.2351
   10MOL   H280 4978   1.230   5.098   7.969  0.5673  1.5827  0.4645
   10MOL   H281 4979   1.080   5.196   7.803 -0.1937 -1.4342  0.4485
   10MOL   H282 4980   1.167   5.258   7.586 -1.4081  1.1119  2.6795
   10MOL   H283 4981   1.415   5.197   7.523 -0.7243 -1.5909  0.8084
   10MOL   H284 4982   1.846   5.018   7.832  0.1935 -0.4932 -0.0543
   10MOL   H285 4983   1.851   4.935   8.068  0.8223  1.0166  0.1111
   10MOL   H286 4984   1.646   4.906   8.197  1.5205  0.2044  0.3119
   10MOL   H287 4985   1.440   4.992   8.123  0.5353  0.4277  0.6832
   10MOL   C288 4986   1.793   5.214   7.605  0.5351  0.3109 -0.2575
   10MOL   C289 4987   1.738   5.352   7.623  0.2093 -0.3752  0.7185
   10MOL   N290 4988   1.840   5.441   7.672 -0.2146  0.2070  0.1297
   10MOL   C291 4989   1.845   5.486   7.804  0.4371 -0.1077 -0.1839
   10MOL   C292 4990   1.942   5.581   7.820 -0.3409 -0.0324 -0.2030
   10MOL   C293 4991   1.972   5.646   7.941 -0.5634 -0.0905  0.7192
   10MOL   C294 4992   1.879   5.627   8.049 -0.2723 -0.3075  1.0980
   10MOL   C295 4993   1.776   5.535   8.034 -0.3726  0.5308  0.4238
   10MOL   C296 4994   1.761   5.456   7.914 -0.3563 -0.0365 -0.2970
   10MOL   C297 4995   1.996   5.601   7.686 -0.1476 -0.1531 -0.1858
   10MOL   C298 4996   1.944   5.499   7.596  0.9059  0.1570  1.1187
   10MOL   C299 4997   1.987   5.489   7.457 -0.7547 -0.5530 -0.5523
   10MOL   C300 4998   2.082   5.580   7.412  0.5956  0.0782  0.0793
   10MOL   C301 4999   2.131   5.678   7.497 -0.2828  0.2091 -0.4755
   10MOL   C302 5000   2.095   5.693   7.629  0.1152  0.2272 -0.2553
   10MOL   H303 5001   1.860   5.179   7.683  1.1818  0.2273 -0.8435
   10MOL   H304 5002   1.857   5.215   7.516  2.5222  0.8770  1.1583
   10MOL   H305 5003   1.656   5.346   7.695  0.4456  0.6083  1.0823
   10MOL   H306 5004   2.054   5.714   7.958 -0.8550  0.7252 -1.0500
   10MOL   H307 5005   1.890   5.687   8.138 -1.8849  1.4336  0.1656
   10MOL   H308 5006   1.700   5.518   8.109  0.4939  0.8110  1.3628
   10MOL   H309 5007   1.691   5.374   7.909  1.0120 -1.2020 -0.5851
   10MOL   H310 5008   1.958   5.411   7.388  1.3884  0.7148 -2.9614
   10MOL   H311 5009   2.112   5.572   7.309  0.8784 -2.9528  0.3609
   10MOL   H312 5010   2.191   5.754   7.448  1.1465 -1.5970 -1.5907
   10MOL   H313 5011   2.147   5.764   7.691 -0.3477  0.7041 -0.4045
   10MOL   C314 5012   1.677   5.408   7.488 -0.2201  0.1442  0.6909
   10MOL   C315 5013   1.643   5.559   7.496  0.1029 -0.2906 -0.5898
   10MOL   N316 5014   1.636   5.617   7.359  0.0142  0.9198  0.6598
   10MOL   C317 5015   1.718   5.714   7.304  0.0124 -0.2544  0.7883
   10MOL   C318 5016   1.668   5.747   7.169  0.6291  0.0788 -0.0171
   10MOL   C319 5017   1.745   5.839   7.091 -0.6968 -0.0925 -0.0257
   10MOL   C320 5018   1.853   5.906   7.151  0.2052 -0.2602  0.2173
   10MOL   C321 5019   1.886   5.881   7.288  0.0997 -0.1469  0.3037
   10MOL   C322 5020   1.823   5.785   7.361 -0.1982 -0.3517  0.5073
   10MOL   C323 5021   1.551   5.670   7.149  1.0592  0.4262 -0.3825
   10MOL   C324 5022   1.535   5.585   7.262  0.4565 -0.7343  0.1089
   10MOL   C325 5023   1.443   5.480   7.264 -0.5001  0.4792  0.3500
   10MOL   C326 5024   1.365   5.458   7.148  0.2659 -0.0176  0.2743
   10MOL   C327 5025   1.368   5.551   7.040 -0.0671 -0.2613  0.3988
   10MOL   C328 5026   1.461   5.658   7.038  0.6258 -0.0822  0.2301
   10MOL   H329 5027   1.737   5.378   7.402  1.1033 -1.0129  1.9984
   10MOL   H330 5028   1.581   5.358   7.474  1.0072 -1.7397 -1.5116
   10MOL   H331 5029   1.723   5.613   7.547 -0.2568 -2.3787  2.3235
   10MOL   H332 5030   1.712   5.861   6.991 -0.8023 -0.3104 -0.0403
   10MOL   H333 5031   1.902   5.984   7.096  0.4437  0.0044  0.8051
   10MOL   H334 5032   1.970   5.933   7.332  1.0284 -0.0243 -1.5190
   10MOL   H335 5033   1.868   5.771   7.458  0.6932  0.7542  0.2643
   10MOL   H336 5034   1.431   5.419   7.353 -1.1547  1.7132  1.1202
   10MOL   H337 5035   1.299   5.372   7.145  0.0242  0.1100  1.7251
   10MOL   H338 5036   1.304   5.523   6.957  0.4280 -1.7932  0.5101
   10MOL   H339 5037   1.462   5.719   6.949 -0.7618 -1.2863 -0.6522
   10MOL   C340 5038   1.524   5.594   7.589  0.0261 -0.2640  0.4696
   10MOL   C341 5039   1.523   5.747   7.620 -0.6645 -0.3207  0.2889
   10MOL   N342 5040   1.386   5.801   7.633 -0.5079 -0.1775 -0.1783
   10MOL   C343 5041   1.323   5.897   7.550 -0.0545 -0.2248 -0.4523
   10MOL   C344 5042   1.206   5.949   7.610 -0.2465  0.5223  0.5200
   10MOL   C345 5043   1.135   6.056   7.547 -1.0823 -0.6035  0.0915
   10MOL   C346 5044   1.190   6.110   7.429 -0.2993 -0.3728  0.9786
   10MOL   C347 5045   1.307   6.055   7.367  0.8191 -0.1884  0.3753
   10MOL   C348 5046   1.371   5.944   7.423 -0.2087  0.0779  0.2117
   10MOL   C349 5047   1.188   5.872   7.727 -0.4391 -0.1862  0.4313
   10MOL   C350 5048   1.298   5.780   7.740  0.0841  0.0515  0.9282
   10MOL   C351 5049   1.302   5.686   7.846  0.1249  0.2603 -0.3577
   10MOL   C352 5050   1.196   5.685   7.936 -0.0565 -0.3726 -0.0098
   10MOL   C353 5051   1.083   5.762   7.919  0.3318  0.1461 -0.3382
   10MOL   C354 5052   1.083   5.857   7.821  0.4002 -0.2920  0.3879
   10MOL   H355 5053   1.433   5.551   7.546  0.5600 -0.4161 -0.5146
   10MOL   H356 5054   1.535   5.536   7.681 -0.6291 -0.6576  0.3018
   10MOL   H357 5055   1.568   5.805   7.539 -2.7206 -0.5902 -1.0986
   10MOL   H358 5056   1.052   6.103   7.598 -0.4641  2.5325 -1.6715
   10MOL   H359 5057   1.133   6.191   7.386  0.1345 -1.3670 -1.5627
   10MOL   H360 5058   1.354   6.090   7.277  1.3666 -3.9694 -0.8730
   10MOL   H361 5059   1.454   5.909   7.363 -1.3164 -0.9377 -0.7259
   10MOL   H362 5060   1.375   5.606   7.845  0.7169  0.8092 -1.9479
   10MOL   H363 5061   1.211   5.619   8.020  1.8654 -0.8950 -0.7353
   10MOL   H364 5062   0.992   5.742   7.974  1.1825 -0.6034  0.8284
   10MOL   H365 5063   1.002   5.927   7.808  1.3630  0.1751 -3.9659
   10MOL   C366 5064   1.621   5.787   7.725  0.5454 -0.5995 -0.3097
   10MOL   C367 5065   1.607   5.938   7.773  0.1251 -1.0163  0.3021
   10MOL   N368 5066   1.677   5.968   7.894 -0.2058 -0.2301 -0.3321
   10MOL   C369 5067   1.615   6.007   8.014 -0.1894  0.9303 -0.0623
   10MOL   C370 5068   1.698   6.092   8.090  0.3678  0.5945  0.3579
   10MOL   C371 5069   1.640   6.154   8.207  0.9454  0.3224 -0.1185
   10MOL   C372 5070   1.503   6.137   0.008  0.9143  0.0176 -0.9646
   10MOL   C373 5071   1.423   6.055   8.159 -0.5859  0.0213 -0.2171
   10MOL   C374 5072   1.481   5.984   8.057 -0.0150  0.1869 -0.4973
   10MOL   C375 5073   1.833   6.077   8.027  0.8262 -0.2381 -0.2928
   10MOL   C376 5074   1.814   6.000   7.909  0.3706  0.0085  0.5943
   10MOL   C377 5075   1.921   5.966   7.819 -0.5946 -0.1590  0.0980
   10MOL   C378 5076   2.048   6.000   7.859  0.0271  0.3886 -0.7039
   10MOL   C379 5077   2.070   6.078   7.975 -0.0900 -0.1215  0.6357
   10MOL   C380 5078   1.967   6.122   8.056  0.1437 -0.1093  0.4013
   10MOL   H381 5079   1.599   5.727   7.813 -1.3176  1.4599  0.6793
   10MOL   H382 5080   1.722   5.753   7.702 -0.3533 -2.0622 -2.2401
   10MOL   H383 5081   1.505   5.959   7.803 -0.0877 -0.9704 -0.4601
   10MOL   H384 5082   1.703   6.220   0.036 -1.0935  1.1837  1.2189
   10MOL   H385 5083   1.454   6.193   0.086  1.2386 -1.0055 -0.0045
   10MOL   H386 5084   1.321   6.029   8.184  0.0743 -1.4546  1.0577
   10MOL   H387 5085   1.419   5.915   8.001  1.4394 -0.2098 -1.6637
   10MOL   H388 5086   1.910   5.904   7.731  0.6920  0.1702 -0.3051
   10MOL   H389 5087   2.126   5.968   7.792  0.4870 -2.1297  0.9517
   10MOL   H390 5088   2.172   6.113   7.982 -0.5990  1.4395  0.4745
   10MOL   H391 5089   2.007   6.182   8.137  2.3234  1.5012 -1.7930
   10MOL   C392 5090   1.638   6.049   7.667 -0.6432 -0.1830 -0.6941
   10MOL   C393 5091   1.606   6.194   7.697  0.8651 -0.1212 -0.0114
   10MOL   N394 5092   1.675   6.290   7.623 -0.2052 -0.3032  0.9762
   10MOL   C395 5093   1.767   6.384   7.672 -0.1751 -0.1787 -0.0456
   10MOL   C396 5094   1.815   6.465   7.566  0.2411  0.1268 -0.2831
   10MOL   C397 5095   1.911   6.562   7.596  0.7781  0.0248  0.2213
   10MOL   C398 5096   1.952   6.586   7.726 -0.1490 -0.0978 -0.0421
   10MOL   C399 5097   1.904   6.510   7.830 -0.1088 -0.9970 -0.5094
   10MOL   C400 5098   1.811   6.406   7.807  0.3396  0.8517 -0.0178
   10MOL   C401 5099   1.753   6.417   7.444 -0.5358 -0.3262  0.1597
   10MOL   C402 5100   1.663   6.316   7.483 -0.1478  0.0802  0.2773
   10MOL   C403 5101   1.589   6.258   7.382 -0.1916 -0.6868 -0.2286
   10MOL   C404 5102   1.606   6.293   7.245 -0.2193 -0.3757 -0.0485
   10MOL   C405 5103   1.695   6.393   7.206  0.1107  0.0394  1.1924
   10MOL   C406 5104   1.770   6.450   7.307  0.6327 -0.2214  0.0768
   10MOL   H407 5105   1.734   6.031   7.619  0.4317 -0.4310  1.4868
   10MOL   H408 5106   1.571   6.021   7.585 -1.6243 -0.4144  0.1719
   10MOL   H409 5107   1.625   6.210   7.803 -1.6169 -1.9527  0.7538
   10MOL   H410 5108   1.942   6.628   7.516 -2.1167 -0.9612 -1.7748
   10MOL   H411 5109   2.009   6.675   7.749 -1.7466  0.8734  0.2610
   10MOL   H412 5110   1.918   6.515   7.937 -0.3416 -0.3532 -0.5059
   10MOL   H413 5111   1.780   6.345   7.890  2.5780 -2.7464 -1.7009
   10MOL   H414 5112   1.519   6.182   7.414 -0.6039  0.4243  1.5593
   10MOL   H415 5113   1.540   6.247   7.173  0.8152 -0.5549 -0.9010
   10MOL   H416 5114   1.713   6.415   7.102  0.1473  1.6506  1.5207
   10MOL   H417 5115   1.837   6.531   7.282  2.0208 -1.5559 -0.6094
   10MOL   C418 5116   1.450   6.227   7.696  0.5391  0.1791  0.2277
   10MOL   C419 5117   1.408   6.374   7.725 -0.2900  0.1482  0.3027
   10MOL   N420 5118   1.264   6.376   7.710 -0.4874  0.0966 -0.0593
   10MOL   C421 5119   1.195   6.450   7.608 -0.1611 -0.0705 -0.6091
   10MOL   C422 5120   1.056   6.432   7.625 -0.0005 -0.0863 -1.1156
   10MOL   C423 5121   0.968   6.500   7.533 -0.5759  0.0030  0.5404
   10MOL   C424 5122   1.017   6.582   7.432  0.2251  0.5225  0.1540
   10MOL   C425 5123   1.153   6.601   7.424  0.3027  0.2556  0.3230
   10MOL   C426 5124   1.242   6.541   7.513 -0.3396 -0.7464 -0.6662
   10MOL   C427 5125   1.037   6.346   7.744  0.0301 -0.3722  0.0033
   10MOL   C428 5126   1.168   6.311   7.792 -0.2726  0.0705 -0.0578
   10MOL   C429 5127   1.183   6.216   7.897 -0.9996 -0.3020 -0.4088
   10MOL   C430 5128   1.066   6.168   7.966 -0.3861 -0.1755  0.0057
   10MOL   C431 5129   0.940   6.214   7.922 -0.5989 -0.2956  0.9275
   10MOL   C432 5130   0.929   6.305   7.818  0.2548 -0.0899  0.4446
   10MOL   H433 5131   1.407   6.190   7.602  2.7034 -1.0323 -0.3078
   10MOL   H434 5132   1.411   6.156   7.769 -0.5059 -0.3019 -0.7700
   10MOL   H435 5133   1.458   6.442   7.656 -1.4558  0.8287  0.1017
   10MOL   H436 5134   0.862   6.496   7.549 -0.5506  2.6669  1.5208
   10MOL   H437 5135   0.954   6.631   7.359  2.3512  3.4396  0.1908
   10MOL   H438 5136   1.197   6.668   7.351  0.2220 -0.1421 -0.0962
   10MOL   H439 5137   1.347   6.556   7.493 -0.0164  0.9324  2.0844
   10MOL   H440 5138   1.280   6.183   7.931  0.0810  0.9428 -2.2319
   10MOL   H441 5139   1.079   6.099   8.049 -0.5005 -0.6272 -0.3512
   10MOL   H442 5140   0.854   6.173   7.974  1.7714 -1.7174  3.9119
   10MOL   H443 5141   0.831   6.342   7.790  0.7890  0.0668 -1.2564
   10MOL   C444 5142   1.463   6.426   7.861  0.0350 -0.2248  0.0613
   10MOL   C445 5143   1.372   6.522   7.950  0.6977 -0.0995 -0.3516
   10MOL   N446 5144   1.440   6.556   8.080  0.0434  0.0323  0.0754
   10MOL   C447 5145   1.394   6.531   8.209 -0.3180  0.0472  0.6097
   10MOL   C448 5146   1.466   6.606   0.074 -0.1962  0.2522 -0.4519
   10MOL   C449 5147   1.420   6.606   0.209 -0.3279  0.3402  0.6506
   10MOL   C450 5148   1.301   6.530   0.243 -0.2742  0.2723  0.0800
   10MOL   C451 5149   1.235   6.452   0.148  0.0777 -0.6746 -0.2858
   10MOL   C452 5150   1.281   6.456   0.018  0.0875  0.1069  0.5226
   10MOL   C453 5151   1.580   6.658   0.003  0.2525 -0.2823 -0.7533
   10MOL   C454 5152   1.558   6.626   8.095  0.1591 -0.1857 -0.1656
   10MOL   C455 5153   1.647   6.680   7.994  0.3596  0.5139 -0.1041
   10MOL   C456 5154   1.747   6.765   8.026 -0.4411 -0.2241 -0.2325
   10MOL   C457 5155   1.770   6.797   8.161  0.1111 -0.0228  0.4634
   10MOL   C458 5156   1.698   6.736   0.036  0.6060  0.2744 -0.1972
   10MOL   H459 5157   1.481   6.337   7.922  0.2489 -0.7249 -0.7161
   10MOL   H460 5158   1.563   6.464   7.837 -0.0984 -1.3977 -2.5403
   10MOL   H461 5159   1.281   6.467   7.977 -0.2285  1.1101 -0.9874
   10MOL   H462 5160   1.472   6.664   0.284 -1.6086  0.5233  1.4134
   10MOL   H463 5161   1.276   6.510   0.346 -3.2309 -0.1055 -0.6427
   10MOL   H464 5162   1.153   6.386   0.171 -0.9744  1.0488  1.0267
   10MOL   H465 5163   1.216   6.393   8.185  0.5247 -0.9773  1.1680
   10MOL   H466 5164   1.630   6.664   7.889  0.6693  0.2260 -0.1092
   10MOL   H467 5165   1.816   6.801   7.951 -0.2765  0.8451  0.4278
   10MOL   H468 5166   1.854   6.864   8.167  0.7285 -0.4406 -2.4380
   10MOL   H469 5167   1.714   6.767   0.138  2.1823  3.3225 -1.3249
   10MOL   C470 5168   1.322   6.649   7.876  0.0195  1.3460 -0.5034
   10MOL   C471 5169   1.217   6.724   7.958  0.4760  0.6293 -0.3006
   10MOL   N472 5170   1.219   6.864   7.916 -0.2086  0.3551 -0.1911
   10MOL   C473 5171   1.280   6.967   7.985  0.5591 -0.1690 -0.0820
   10MOL   C474 5172   1.263   7.093   7.915  0.1112  1.0422  0.7570
   10MOL   C475 5173   1.314   7.217   7.968 -0.0308 -0.0414 -0.9667
   10MOL   C476 5174   1.380   7.215   8.094  0.0244  0.4106 -0.2935
   10MOL   C477 5175   1.396   7.091   8.166  0.1987  0.1764 -1.2921
   10MOL   C478 5176   1.359   6.967   8.100  0.0667 -0.0488  0.3604
   10MOL   C479 5177   1.193   7.057   7.799 -0.4245 -0.5271  0.4034
   10MOL   C480 5178   1.169   6.912   7.796 -0.0265 -0.4255  0.6339
   10MOL   C481 5179   1.108   6.850   7.685 -0.1191  0.7088  0.2517
   10MOL   C482 5180   1.067   6.926   7.573 -0.2891  0.5024 -0.5755
   10MOL   C483 5181   1.078   7.064   7.580  0.3271  0.5616 -0.1656
   10MOL   C484 5182   1.136   7.133   7.693 -0.8279 -0.5551 -0.1970
   10MOL   H485 5183   1.413   6.705   7.855 -0.4283  1.7073 -1.5073
   10MOL   H486 5184   1.272   6.626   7.782  1.0349  2.0819 -1.2336
   10MOL   H487 5185   1.255   6.723   8.060  1.0549 -0.4448 -0.5287
   10MOL   H488 5186   1.292   7.310   7.917  1.1121  0.9784  0.3677
   10MOL   H489 5187   1.405   7.307   8.145  1.0765  0.6223 -1.1744
   10MOL   H490 5188   1.437   7.092   0.039 -1.9807  2.0004 -0.3824
   10MOL   H491 5189   1.385   6.876   8.152 -1.8689 -1.8312 -1.7239
   10MOL   H492 5190   1.103   6.742   7.683  1.8559  0.6037 -2.1549
   10MOL   H493 5191   1.028   6.879   7.484 -0.7770  0.0241 -0.1144
   10MOL   H494 5192   1.040   7.120   7.496 -3.3866 -0.8525  0.4762
   10MOL   H495 5193   1.142   7.241   7.696  3.9673 -0.7277  0.8986
   10MOL   C496 5194   1.081   6.655   7.958  0.2648 -0.0161 -0.3127
   10MOL   C497 5195   0.971   6.734   8.026  0.2883 -0.6391 -0.2337
   10MOL   N498 5196   0.842   6.670   8.021  0.1451  0.1762 -0.3066
   10MOL   C499 5197   0.738   6.681   7.930 -0.4371  0.0390  0.9290
   10MOL   C500 5198   0.626   6.605   7.971 -0.1080  0.3526  0.7804
   10MOL   C501 5199   0.510   6.610   7.886  0.6665 -0.6616 -0.1068
   10MOL   C502 5200   0.495   6.701   7.783  0.2303  0.0123 -0.8192
   10MOL   C503 5201   0.603   6.785   7.755 -0.5046  0.5410  0.5953
   10MOL   C504 5202   0.727   6.771   7.819 -0.0615  0.0925  0.7419
   10MOL   C505 5203   0.669   6.527   8.083  0.6690  0.0585 -0.6222
   10MOL   C506 5204   0.798   6.574   8.115 -0.2102  0.8727  0.1333
   10MOL   C507 5205   0.869   6.511   8.214 -0.1975  0.0006  0.1576
   10MOL   C508 5206   0.810   6.411   0.062 -0.5667  0.2324  0.7034
   10MOL   C509 5207   0.685   6.363   0.035  0.8515 -0.8189  0.3191
   10MOL   C510 5208   0.604   6.427   8.162 -1.0154 -0.0346  0.3453
   10MOL   H511 5209   1.041   6.624   7.862  1.8382  4.4847 -2.5723
   10MOL   H512 5210   1.085   6.561   8.012  1.2446  0.6140  0.7447
   10MOL   H513 5211   0.962   6.830   7.975 -0.0082 -0.9434 -0.7621
   10MOL   H514 5212   0.426   6.552   7.919 -0.6446  0.6849 -1.0191
   10MOL   H515 5213   0.403   6.712   7.727 -0.1164  1.1836 -0.0431
   10MOL   H516 5214   0.589   6.854   7.673  0.8062 -0.3300 -0.3738
   10MOL   H517 5215   0.809   6.832   7.785 -1.6116  1.0366 -1.4637
   10MOL   H518 5216   0.968   6.538   0.019 -0.2342 -0.1964  0.4367
   10MOL   H519 5217   0.871   6.364   0.139  2.8598 -0.5772 -2.3866
   10MOL   H520 5218   0.650   6.275   0.086  0.9600 -0.8093  0.4092
   10MOL   H521 5219   0.508   6.387   8.130 -0.2504  0.4636 -2.7525
   10MOL   H522 5220   1.002   6.751   8.129  3.2552 -0.2447 -1.1673
   11MOL     C1 5221   0.082   3.208   0.644 -0.0257 -0.0266  0.1638
   11MOL     C2 5222   8.208   3.252   0.750  0.9600 -0.3128 -0.0577
   11MOL     N3 5223   0.011   3.174   0.866  0.4240 -0.3065 -0.1136
   11MOL     C4 5224   8.158   3.074   0.915  0.2789  0.0718 -0.9244
   11MOL     C5 5225   8.215   3.030   1.040  0.3942 -0.0735 -1.1327
   11MOL     C6 5226   8.157   2.918   1.106 -0.0115  0.1797  0.1120
   11MOL     C7 5227   8.043   2.853   1.050 -0.6007 -0.1368 -0.2250
   11MOL     C8 5228   7.985   2.900   0.927  0.1247 -0.0523  0.1208
   11MOL     C9 5229   8.042   3.014   0.864 -0.9904 -0.4206  0.0946
   11MOL    C10 5230   0.101   3.110   1.065 -0.0783  0.1776  0.2166
   11MOL    C11 5231   0.120   3.198   0.954 -0.0443  0.1501 -0.1014
   11MOL    C12 5232   0.231   3.291   0.954  0.0366  0.9810  0.6674
   11MOL    C13 5233   0.303   3.310   1.069  0.0354 -0.8069  0.3386
   11MOL    C14 5234   0.284   3.226   1.185 -0.5325  0.1744 -0.1783
   11MOL    C15 5235   0.194   3.124   1.173  0.6996  0.7318  0.4817
   11MOL    H16 5236   0.067   3.105   0.611  0.3721  0.5492 -1.8855
   11MOL    H17 5237   0.182   3.232   0.680 -0.1980  2.9717 -1.1738
   11MOL    H18 5238   8.113   3.212   0.715  1.5114 -0.3748 -1.5107
   11MOL    H19 5239   8.192   2.885   1.203  1.6591 -0.0142 -0.5341
   11MOL    H20 5240   7.997   2.769   1.100  1.2162 -0.6857  0.5580
   11MOL    H21 5241   7.889   2.867   0.891 -0.3474 -0.0593  1.3600
   11MOL    H22 5242   8.000   3.034   0.767  1.0481 -1.3722 -0.9945
   11MOL    H23 5243   0.241   3.353   0.867 -0.2899 -1.8191 -1.4397
   11MOL    H24 5244   0.380   3.387   1.067 -0.2428 -0.5547 -1.2552
   11MOL    H25 5245   0.343   3.222   1.275 -2.0711 -1.0243  0.7993
   11MOL    H26 5246   0.177   3.063   1.261  0.5669 -1.0520 -0.7450
   11MOL    H27 5247   0.066   3.271   0.556 -0.1214  2.2887  1.7971
   11MOL    C28 5248   8.184   3.406   0.782 -0.6588  0.4053  0.1754
   11MOL    C29 5249   8.140   3.456   0.924  0.2085 -0.1679  0.4395
   11MOL    N30 5250   8.141   3.600   0.929  0.7171  0.1364  0.8514
   11MOL    C31 5251   0.001   3.673   1.005 -0.1597 -1.0000  0.1426
   11MOL    C32 5252   8.190   3.810   1.004 -1.1219 -0.2722 -0.4013
   11MOL    C33 5253   0.039   3.899   1.078 -0.7220 -0.3123 -1.0579
   11MOL    C34 5254   0.147   3.856   1.148 -0.4295  0.8641 -0.1036
   11MOL    C35 5255   0.188   3.719   1.147 -0.1087  0.2346  0.4519
   11MOL    C36 5256   0.116   3.626   1.076 -0.9305  0.1840 -0.3037
   11MOL    C37 5257   8.084   3.826   0.915 -0.0877 -1.4191  0.3804
   11MOL    C38 5258   8.053   3.694   0.867  0.9664  0.9838 -0.4366
   11MOL    C39 5259   7.947   3.672   0.786 -0.0076  0.4209  0.6497
   11MOL    C40 5260   7.865   3.779   0.740  0.2522  0.5873  0.1027
   11MOL    C41 5261   7.902   3.910   0.770 -0.4853 -0.0710 -0.5293
   11MOL    C42 5262   8.003   3.936   0.870 -0.1386  0.0150  0.2417
   11MOL    H43 5263   0.051   3.454   0.754 -0.9629  0.4604 -0.7599
   11MOL    H44 5264   8.122   3.451   0.705  1.7052 -0.8377 -2.5364
   11MOL    H45 5265   8.222   3.417   0.985  0.0968 -0.7021  0.2492
   11MOL    H46 5266   0.007   4.002   1.087  0.1449 -0.1903  0.8073
   11MOL    H47 5267   0.193   3.928   1.214  1.5477 -1.7142  1.4012
   11MOL    H48 5268   0.279   3.686   1.193 -0.1249  0.7480  0.8645
   11MOL    H49 5269   0.136   3.521   1.094 -3.0748 -0.4996 -1.7602
   11MOL    H50 5270   7.915   3.572   0.761  0.6028  0.7085 -1.3219
   11MOL    H51 5271   7.777   3.762   0.681  0.2267  2.3563 -0.4080
   11MOL    H52 5272   7.837   3.993   0.746 -0.9094 -0.6339 -1.3264
   11MOL    H53 5273   8.030   4.035   0.903  2.2119 -0.5627  0.0989
   11MOL    C54 5274   8.016   3.396   0.991  0.7547 -0.4505 -0.0621
   11MOL    C55 5275   8.002   3.426   1.140 -0.1635  0.3057 -0.0979
   11MOL    N56 5276   7.867   3.406   1.188 -0.0663 -0.1219 -0.0683
   11MOL    C57 5277   7.783   3.514   1.212 -0.6574  0.1756  0.3578
   11MOL    C58 5278   7.660   3.461   1.260  0.0956 -0.5807  0.1312
   11MOL    C59 5279   7.555   3.549   1.282  0.4680  0.5296  0.0085
   11MOL    C60 5280   7.562   3.684   1.247  0.4140  0.0069  0.6602
   11MOL    C61 5281   7.685   3.742   1.211  0.8330  0.0973  0.7791
   11MOL    C62 5282   7.797   3.658   1.189 -0.1914 -0.1476 -0.0754
   11MOL    C63 5283   7.675   3.318   1.267  0.1286  0.3339  0.2507
   11MOL    C64 5284   7.796   3.292   1.214  0.5207 -0.0786  0.2423
   11MOL    C65 5285   7.839   3.159   1.202 -0.5035  0.1013  0.4377
   11MOL    C66 5286   7.764   3.050   1.242  0.6564 -0.3337 -0.1591
   11MOL    C67 5287   7.643   3.080   1.301  0.1295  1.1303  0.4455
   11MOL    C68 5288   7.597   3.209   1.310 -0.3062 -0.4419 -0.0672
   11MOL    H69 5289   7.928   3.437   0.941  1.7217  2.1581  0.2799
   11MOL    H70 5290   8.014   3.288   0.982  2.1041 -0.8073  3.2602
   11MOL    H71 5291   8.019   3.534   1.144 -2.0642  0.6547 -0.9036
   11MOL    H72 5292   7.460   3.508   1.312  1.9759 -2.7473  0.5875
   11MOL    H73 5293   7.478   3.747   1.271  1.0013  0.7898  0.6636
   11MOL    H74 5294   7.688   3.849   1.201 -1.3145  0.1472  0.3478
   11MOL    H75 5295   7.889   3.709   1.165  0.0167  0.1948  1.3999
   11MOL    H76 5296   7.935   3.135   1.159 -1.3563 -1.7065 -0.4786
   11MOL    H77 5297   7.799   2.948   1.232  2.0343  0.3353 -2.4811
   11MOL    H78 5298   7.584   3.003   1.349 -0.7174  2.4043  1.4819
   11MOL    H79 5299   7.508   3.235   1.365  0.4277 -0.5526  1.1911
   11MOL    C80 5300   8.117   3.373   1.233 -0.1759 -0.1870 -0.6079
   11MOL    C81 5301   8.093   3.393   1.386  0.4257  1.0923 -0.4427
   11MOL    N82 5302   8.182   3.304   1.460 -0.5924  0.4433 -0.1327
   11MOL    C83 5303   8.150   3.187   1.523  0.5890 -0.1793 -0.1215
   11MOL    C84 5304   0.038   3.131   1.587  0.0310 -0.1705 -0.5925
   11MOL    C85 5305   0.021   3.012   1.663  0.4690  0.5225 -0.3719
   11MOL    C86 5306   8.123   2.947   1.665  0.1691  0.7019  0.1406
   11MOL    C87 5307   8.014   3.000   1.599 -0.8922 -0.4506  0.0021
   11MOL    C88 5308   8.023   3.120   1.535 -0.6932 -0.5995  0.7058
   11MOL    C89 5309   0.143   3.217   1.558 -0.8932 -0.0283 -0.4279
   11MOL    C90 5310   0.091   3.320   1.476  0.8183  0.2115 -0.5322
   11MOL    C91 5311   0.174   3.431   1.435  0.1914 -0.3937  0.1042
   11MOL    C92 5312   0.314   3.433   1.465 -0.0605  0.8099 -0.4644
   11MOL    C93 5313   0.363   3.323   1.541  0.4111  1.3990  0.8239
   11MOL    C94 5314   0.284   3.217   1.580  0.3397 -0.1331 -0.2709
   11MOL    H95 5315   8.131   3.267   1.213 -0.7493 -0.1471 -1.2161
   11MOL    H96 5316   8.213   3.416   1.206  1.8995 -2.7254  2.3699
   11MOL    H97 5317   7.996   3.345   1.390  1.2857 -0.6910 -0.3727
   11MOL    H98 5318   0.105   2.966   1.712  1.1386  0.5549 -1.4641
   11MOL    H99 5319   8.113   2.852   1.715 -2.1041 -0.5280 -2.5025
   11MOL   H100 5320   7.919   2.953   1.618 -0.6226 -0.9501  0.1222
   11MOL   H101 5321   7.930   3.162   1.500  0.1735 -1.6157 -3.0522
   11MOL   H102 5322   0.133   3.524   1.400 -0.3581 -0.3614  0.8301
   11MOL   H103 5323   0.372   3.518   1.433 -0.6042  1.1848 -0.4561
   11MOL   H104 5324   0.468   3.321   1.568  0.9926 -0.5443 -1.4472
   11MOL   H105 5325   0.318   3.141   1.649  0.4599 -0.4238 -0.6508
   11MOL   C106 5326   8.065   3.535   1.441  0.6727  0.0910  0.2912
   11MOL   C107 5327   8.031   3.537   1.589 -0.0502 -0.2879  0.4703
   11MOL   N108 5328   8.032   3.673   1.637 -0.3266 -0.1579 -0.3058
   11MOL   C109 5329   8.132   3.730   1.723  0.5437  0.5506 -0.0268
   11MOL   C110 5330   8.097   3.865   1.743 -0.0771  0.6655 -0.0317
   11MOL   C111 5331   8.197   3.942   1.807 -0.5162 -0.3287 -0.0356
   11MOL   C112 5332   0.089   3.878   1.863  0.2007 -0.2517 -0.3196
   11MOL   C113 5333   0.114   3.745   1.850  0.0413  0.5131  0.4187
   11MOL   C114 5334   0.022   3.668   1.772  0.0417 -0.1936 -0.4385
   11MOL   C115 5335   7.971   3.891   1.683 -0.2167  0.6263  0.0792
   11MOL   C116 5336   7.938   3.774   1.615 -0.0453  0.1300 -0.1273
   11MOL   C117 5337   7.817   3.772   1.543 -0.2258  0.2228 -0.0086
   11MOL   C118 5338   7.742   3.890   1.526 -0.5572  0.9403 -0.2423
   11MOL   C119 5339   7.777   4.006   1.592 -0.5715  0.0597  0.4817
   11MOL   C120 5340   7.889   4.005   1.672 -0.5160  0.2705 -0.1423
   11MOL   H121 5341   8.151   3.603   1.436 -0.5528  1.5419 -1.7948
   11MOL   H122 5342   7.978   3.574   1.388  0.1312 -0.2172  0.9483
   11MOL   H123 5343   8.106   3.480   1.642 -0.1982 -2.3042 -1.4460
   11MOL   H124 5344   8.179   4.048   1.820 -1.7648 -0.8532  2.8265
   11MOL   H125 5345   0.155   3.935   1.928 -1.6636 -1.8972  3.1591
   11MOL   H126 5346   0.206   3.705   1.890  1.0293  1.5864 -0.7688
   11MOL   H127 5347   0.053   3.566   1.758  2.5512  0.5677 -0.7413
   11MOL   H128 5348   7.777   3.681   1.501 -1.0920  0.3820  0.4610
   11MOL   H129 5349   7.650   3.876   1.471  1.0842 -0.3277 -2.7449
   11MOL   H130 5350   7.715   4.095   1.593  1.4600  1.5153  0.4773
   11MOL   H131 5351   7.911   4.100   1.720 -1.1842  1.0751 -1.3933
   11MOL   C132 5352   7.904   3.451   1.627 -0.1493 -0.0370  0.1165
   11MOL   C133 5353   7.803   3.497   1.745  0.1322  0.3649 -0.1770
   11MOL   N134 5354   7.677   3.416   1.740  0.5838  0.5653 -0.6723
   11MOL   C135 5355   7.551   3.456   1.686  1.0304 -0.0673 -0.0983
   11MOL   C136 5356   7.456   3.348   1.706 -0.5516  0.7310 -0.1550
   11MOL   C137 5357   7.328   3.366   1.648  0.0161 -0.1777  0.1185
   11MOL   C138 5358   7.290   3.478   1.578  0.0624 -0.6609  1.0671
   11MOL   C139 5359   7.377   3.591   1.573  0.4622 -0.8355 -0.3140
   11MOL   C140 5360   7.509   3.577   1.625  0.0205 -0.3865 -0.5593
   11MOL   C141 5361   7.521   3.240   1.767  0.1107 -0.2612 -0.3193
   11MOL   C142 5362   7.658   3.280   1.777 -0.3581 -0.7175  0.8713
   11MOL   C143 5363   7.754   3.186   1.815  0.2105 -0.2975 -0.0924
   11MOL   C144 5364   7.713   3.055   1.851  0.0298  0.2262 -0.1296
   11MOL   C145 5365   7.576   3.011   1.847  0.6043 -0.6739 -0.2380
   11MOL   C146 5366   7.482   3.110   1.806 -0.6523  0.4510 -0.2923
   11MOL   H147 5367   7.834   3.446   1.543  2.4811 -0.6745 -2.0864
   11MOL   H148 5368   7.937   3.348   1.643  2.6779  0.6304 -1.2090
   11MOL   H149 5369   7.778   3.600   1.721  1.3962  0.7366  0.0426
   11MOL   H150 5370   7.255   3.287   1.663  0.3361 -0.0227  2.7441
   11MOL   H151 5371   7.195   3.489   1.528  2.1485  3.0989 -2.3613
   11MOL   H152 5372   7.348   3.678   1.517  0.6525 -0.4258  0.2202
   11MOL   H153 5373   7.574   3.664   1.625 -1.2328  0.5689 -0.3080
   11MOL   H154 5374   7.860   3.207   1.815  0.2956 -0.7017  0.2733
   11MOL   H155 5375   7.787   2.981   1.877  0.3475 -0.1830 -2.1027
   11MOL   H156 5376   7.552   2.915   1.889 -0.4979  0.2437  1.2561
   11MOL   H157 5377   7.376   3.093   1.814 -0.0638 -2.4656  2.0785
   11MOL   C158 5378   7.865   3.507   1.885 -0.1696 -0.2964  0.9073
   11MOL   C159 5379   7.781   3.584   1.989 -0.3579  0.3457  0.5951
   11MOL   N160 5380   7.832   3.568   2.123 -0.0823  0.0217 -0.4068
   11MOL   C161 5381   7.763   3.507   2.228  0.1919 -0.0714 -0.6738
   11MOL   C162 5382   7.845   3.528   2.346  0.1857 -0.0640 -0.4300
   11MOL   C163 5383   7.809   3.471   2.465  0.2875  0.2325 -0.4440
   11MOL   C164 5384   7.691   3.399   2.473  0.2812  0.6367  0.4686
   11MOL   C165 5385   7.609   3.376   2.358 -0.1460  0.2273 -0.3312
   11MOL   C166 5386   7.645   3.435   2.239  0.2064 -0.4829 -0.6256
   11MOL   C167 5387   7.971   3.592   2.307  0.0829 -0.2109 -0.2590
   11MOL   C168 5388   7.958   3.612   2.164  0.0878  0.2782  0.8168
   11MOL   C169 5389   8.064   3.681   2.092 -0.0319 -0.0197 -0.5882
   11MOL   C170 5390   8.182   3.720   2.165  0.3744  0.1433 -0.3155
   11MOL   C171 5391   8.197   3.696   2.305  0.1898  1.0497 -0.5812
   11MOL   C172 5392   8.086   3.637   2.372  0.1418  0.3556  0.0919
   11MOL   H173 5393   7.881   3.407   1.924 -2.0388 -0.9272  0.1190
   11MOL   H174 5394   7.963   3.556   1.893  0.6253 -1.4908 -1.1986
   11MOL   H175 5395   7.682   3.538   1.989 -0.3732  0.2500 -2.4944
   11MOL   H176 5396   7.870   3.486   2.553 -1.4848  1.8732  0.5426
   11MOL   H177 5397   7.670   3.352   2.568  1.6101 -2.1176 -0.5446
   11MOL   H178 5398   7.518   3.324   2.381  0.5760 -0.5614  0.8005
   11MOL   H179 5399   7.574   3.429   2.158 -1.7353  0.3731  0.9747
   11MOL   H180 5400   8.064   3.706   1.987  0.7093  2.1951 -0.0954
   11MOL   H181 5401   0.029   3.757   2.096  0.5920 -1.7423 -1.1432
   11MOL   H182 5402   0.060   3.734   2.349  0.9129  1.1690 -2.1048
   11MOL   H183 5403   8.094   3.624   2.479 -0.8130  0.3482  0.1636
   11MOL   C184 5404   7.752   3.736   1.951  0.6101 -0.0545  0.4508
   11MOL   C185 5405   7.701   3.828   2.062  0.0991 -0.0259 -0.0602
   11MOL   N186 5406   7.720   3.969   2.027  0.1670  0.5391  0.2748
   11MOL   C187 5407   7.814   4.057   2.083 -0.4730 -0.8079 -0.3170
   11MOL   C188 5408   7.797   4.192   2.027  0.6313  0.1810  0.3083
   11MOL   C189 5409   7.892   4.290   2.063  0.0411 -0.3060 -0.2225
   11MOL   C190 5410   7.984   4.265   2.171 -0.1438 -0.3609 -0.5787
   11MOL   C191 5411   7.995   4.137   2.222 -0.5109 -0.1208 -0.1744
   11MOL   C192 5412   7.917   4.030   2.178  0.8086 -0.7204 -0.4026
   11MOL   C193 5413   7.692   4.182   1.933 -0.2597 -0.4483  0.6966
   11MOL   C194 5414   7.646   4.051   1.934 -0.0109 -0.0982 -0.3293
   11MOL   C195 5415   7.531   4.011   1.850 -0.3309  0.0328 -0.5924
   11MOL   C196 5416   7.465   4.105   1.769  0.9911 -0.4067  0.9536
   11MOL   C197 5417   7.513   4.241   1.772  0.2410 -0.2403 -0.4649
   11MOL   C198 5418   7.623   4.275   1.854  0.0646  0.1423  0.6939
   11MOL   H199 5419   7.849   3.768   1.915  0.5526  0.4185  0.7137
   11MOL   H200 5420   7.702   3.741   1.854  0.9607 -0.9548  0.2166
   11MOL   H201 5421   7.770   3.806   2.142 -0.8324  0.5414  0.9186
   11MOL   H202 5422   7.873   4.384   2.014 -1.8243 -0.0022  1.0415
   11MOL   H203 5423   8.051   4.339   2.214 -2.4480  0.2311  2.0710
   11MOL   H204 5424   8.058   4.121   2.308 -0.4899 -0.7997 -0.3162
   11MOL   H205 5425   7.931   3.930   2.216 -2.0223 -0.5015  1.4010
   11MOL   H206 5426   7.492   3.910   1.848 -0.4801  0.0713  0.3792
   11MOL   H207 5427   7.386   4.076   1.701  1.8956 -1.1432  0.2150
   11MOL   H208 5428   7.460   4.311   1.709 -0.4446 -0.6624 -0.3624
   11MOL   H209 5429   7.661   4.375   1.840  0.7689 -0.4218 -1.6473
   11MOL   C210 5430   7.563   3.787   2.118 -0.7863 -0.2852 -0.2384
   11MOL   C211 5431   7.542   3.870   2.241  0.2009 -0.1860  0.0698
   11MOL   N212 5432   7.436   3.966   2.228 -0.0955 -0.2840 -0.2594
   11MOL   C213 5433   7.448   4.102   2.257 -0.6416  0.3373  0.2007
   11MOL   C214 5434   7.333   4.172   2.223  0.3848  0.2243 -0.3426
   11MOL   C215 5435   7.329   4.311   2.224 -0.6636 -0.0526 -0.7934
   11MOL   C216 5436   7.442   4.377   2.271  0.6040 -0.5513  0.1155
   11MOL   C217 5437   7.559   4.315   2.316 -0.4044 -0.5599 -0.3395
   11MOL   C218 5438   7.562   4.176   2.298 -0.6251 -0.8071 -0.0673
   11MOL   C219 5439   7.232   4.071   2.200 -0.5402 -0.2339 -0.1200
   11MOL   C220 5440   7.302   3.950   2.199 -0.0646  0.6966 -0.3750
   11MOL   C221 5441   7.229   3.834   2.161  0.8383 -0.4402  0.2734
   11MOL   C222 5442   7.090   3.839   2.138  0.6233  0.6129 -0.0870
   11MOL   C223 5443   7.021   3.960   2.136  0.2879 -0.2916  0.8358
   11MOL   C224 5444   7.095   4.077   2.165  0.0603  0.3682 -0.3213
   11MOL   H225 5445   7.481   3.800   2.048  0.1886  0.0239 -1.3540
   11MOL   H226 5446   7.550   3.684   2.151  1.6661 -0.2145  1.0567
   11MOL   H227 5447   7.632   3.930   2.259  0.7116 -0.3882 -1.6669
   11MOL   H228 5448   7.240   4.371   2.215 -0.5929  0.3483  1.0215
   11MOL   H229 5449   7.429   4.484   2.277 -0.7720 -0.6646 -0.6279
   11MOL   H230 5450   7.639   4.375   2.357 -0.6308 -1.5129  1.5654
   11MOL   H231 5451   7.658   4.134   2.327 -1.0183 -2.2806 -0.8697
   11MOL   H232 5452   7.279   3.740   2.172  0.0748 -0.7435  1.3455
   11MOL   H233 5453   7.037   3.746   2.128  0.0541  0.8793  0.4761
   11MOL   H234 5454   6.916   3.960   2.111  0.5380  3.7896 -0.6632
   11MOL   H235 5455   7.055   4.176   2.158 -1.8028 -0.4514 -1.5724
   11MOL   C236 5456   7.534   3.784   2.376  0.2852  0.2117  0.2853
   11MOL   C237 5457   7.557   3.870   2.507 -0.0121 -0.0042  0.2081
   11MOL   N238 5458   7.464   3.835   2.614  0.0193  0.0042 -0.1854
   11MOL   C239 5459   7.340   3.900   2.636  0.6198  0.5100  0.1997
   11MOL   C240 5460   7.266   3.831   2.737  0.1804 -0.2714  0.3774
   11MOL   C241 5461   7.132   3.870   2.770  0.3777  0.3997  0.2104
   11MOL   C242 5462   7.078   3.992   2.720  0.4129  0.1120 -0.1174
   11MOL   C243 5463   7.159   4.058   2.625  0.4297 -0.2627  0.2427
   11MOL   C244 5464   7.282   4.018   2.582  0.6533 -0.4851 -0.6280
   11MOL   C245 5465   7.353   3.726   2.782 -0.5494  0.4324 -0.1460
   11MOL   C246 5466   7.479   3.733   2.710  0.3087  0.0403  0.2836
   11MOL   C247 5467   7.584   3.646   2.748 -0.0148  0.5785 -0.1430
   11MOL   C248 5468   7.561   3.545   2.842  0.2470  0.4922 -0.3807
   11MOL   C249 5469   7.436   3.530   2.899  0.6880  0.2913 -0.8251
   11MOL   C250 5470   7.330   3.622   2.871  0.1690  0.2945 -0.4123
   11MOL   H251 5471   7.435   3.741   2.365  1.4184 -2.2856 -0.4626
   11MOL   H252 5472   7.614   3.710   2.379 -0.7109 -0.9316 -1.0446
   11MOL   H253 5473   7.533   3.969   2.470  2.3731  0.1378 -1.0444
   11MOL   H254 5474   7.080   3.811   2.844 -0.1022  1.0872  0.4290
   11MOL   H255 5475   6.986   4.027   2.762  0.1258 -1.0848  0.2464
   11MOL   H256 5476   7.116   4.148   2.584 -1.3428 -1.0119  0.3983
   11MOL   H257 5477   7.328   4.081   2.508 -1.3944 -0.0262 -1.5313
   11MOL   H258 5478   7.676   3.641   2.693  0.3019 -1.0265  0.5108
   11MOL   H259 5479   7.640   3.471   2.851 -1.1723 -0.9791  0.4025
   11MOL   H260 5480   7.415   3.456   2.976  2.1930 -0.3220 -0.9925
   11MOL   H261 5481   7.238   3.606   2.926  0.7197  0.2952  0.5263
   11MOL   C262 5482   7.705   3.895   2.549  0.3680 -0.3315 -0.1683
   11MOL   C263 5483   7.722   3.971   2.684 -0.1880  0.1813  1.3017
   11MOL   N264 5484   7.846   3.931   2.762  0.5700  0.0319  1.0035
   11MOL   C265 5485   7.845   3.892   2.895  0.0985  0.7988 -0.3136
   11MOL   C266 5486   7.982   3.872   2.940 -0.1125 -0.5378  0.3497
   11MOL   C267 5487   8.008   3.829   3.066  0.5052  0.1588 -0.0579
   11MOL   C268 5488   7.905   3.807   3.153  0.1399  0.2760 -0.5451
   11MOL   C269 5489   7.774   3.817   3.113 -0.1827  0.1709  0.3849
   11MOL   C270 5490   7.738   3.855   2.982 -0.2866 -0.3573  0.3297
   11MOL   C271 5491   8.066   3.890   2.816  0.5901 -0.3590 -0.3529
   11MOL   C272 5492   7.975   3.930   2.713 -0.2489  0.7255  0.2625
   11MOL   C273 5493   8.029   3.948   2.583 -0.2600 -0.2928  0.2886
   11MOL   C274 5494   8.169   3.956   2.561  0.0271  0.2586 -0.6475
   11MOL   C275 5495   0.028   3.906   2.657  0.7736 -0.5285  0.3948
   11MOL   C276 5496   8.208   3.880   2.786  0.5913 -0.1953 -0.1954
   11MOL   H277 5497   7.752   3.797   2.562  0.3493 -0.2305  0.6916
   11MOL   H278 5498   7.754   3.947   2.467  2.0893 -1.1648  0.2987
   11MOL   H279 5499   7.649   3.928   2.753 -0.1916 -0.2707  1.0128
   11MOL   H280 5500   8.109   3.821   3.102  0.8784  0.4884 -1.0242
   11MOL   H281 5501   7.927   3.774   3.254 -0.3810 -1.5547 -1.0221
   11MOL   H282 5502   7.695   3.780   3.176  0.3569 -0.8632  0.4699
   11MOL   H283 5503   7.636   3.866   2.949 -0.7411 -0.1018  1.7615
   11MOL   H284 5504   7.968   3.975   2.498  1.7055  0.6250 -0.8752
   11MOL   H285 5505   8.206   3.957   2.459 -0.3526 -0.9821 -0.8083
   11MOL   H286 5506   0.132   3.908   2.626  0.5218  0.9484 -0.4037
   11MOL   H287 5507   0.048   3.834   2.857  1.0430  0.5324 -0.1474
   11MOL   C288 5508   7.704   4.124   2.670  0.2724 -0.2936 -0.3876
   11MOL   C289 5509   7.669   4.192   2.806 -0.4478  0.8000 -0.2042
   11MOL   N290 5510   7.713   4.332   2.803  0.1956 -0.8903 -0.7117
   11MOL   C291 5511   7.833   4.381   2.867  0.3878  0.5619 -0.1068
   11MOL   C292 5512   7.840   4.523   2.854  0.3535  0.6058  0.3553
   11MOL   C293 5513   7.947   4.588   2.923 -0.0542  0.0709 -0.2639
   11MOL   C294 5514   8.039   4.517   3.003  0.1629 -0.7708 -0.5729
   11MOL   C295 5515   8.023   4.381   3.018 -0.4415  0.2751 -0.2296
   11MOL   C296 5516   7.933   4.310   2.940  0.7134 -0.8511  0.0916
   11MOL   C297 5517   7.729   4.563   2.770 -0.0702  0.4387 -0.5910
   11MOL   C298 5518   7.656   4.445   2.744 -0.5966 -0.4799  0.0923
   11MOL   C299 5519   7.538   4.453   2.671 -0.2756  0.4087 -0.1482
   11MOL   C300 5520   7.478   4.577   2.637  0.1121 -0.6433 -0.1517
   11MOL   C301 5521   7.557   4.696   2.659 -0.1575 -1.1380  0.7088
   11MOL   C302 5522   7.680   4.686   2.729  0.3103 -0.2358  0.4646
   11MOL   H303 5523   7.798   4.168   2.636  0.7795 -0.3987  0.8740
   11MOL   H304 5524   7.624   4.146   2.598 -0.3354  1.6443  0.8157
   11MOL   H305 5525   7.740   4.144   2.874  0.1155  0.2416 -1.1819
   11MOL   H306 5526   7.946   4.696   2.924  0.8101  0.0809 -0.5936
   11MOL   H307 5527   8.117   4.573   3.051  0.0491 -0.2643 -0.9691
   11MOL   H308 5528   8.090   4.330   3.086 -0.0291 -1.3280 -1.7996
   11MOL   H309 5529   7.917   4.205   2.961 -0.7755 -0.9719 -1.5130
   11MOL   H310 5530   7.480   4.365   2.650 -1.1162  0.6723  1.0341
   11MOL   H311 5531   7.393   4.574   2.570  1.5144  0.1625 -2.0282
   11MOL   H312 5532   7.521   4.796   2.643  0.0720 -0.9177  1.5464
   11MOL   H313 5533   7.734   4.773   2.763  2.0344 -0.7622 -0.8949
   11MOL   C314 5534   7.523   4.163   2.869 -0.0155  0.8344 -0.1248
   11MOL   C315 5535   7.512   4.207   3.013 -0.1600  0.4249  0.2438
   11MOL   N316 5536   7.375   4.217   3.074 -0.5523 -0.4972 -0.2939
   11MOL   C317 5537   7.316   4.329   3.123 -0.0432  0.3858 -0.5691
   11MOL   C318 5538   7.199   4.298   3.193 -0.2265 -0.1141  0.2593
   11MOL   C319 5539   7.133   4.400   3.261  0.3588 -0.6493  0.8984
   11MOL   C320 5540   7.184   4.534   3.259  0.4070 -0.3661 -0.3203
   11MOL   C321 5541   7.297   4.566   3.185 -0.4779 -0.2957 -0.0093
   11MOL   C322 5542   7.362   4.465   3.123  0.0868  0.0362  0.2188
   11MOL   C323 5543   7.180   4.152   3.181 -0.7503  0.1796  0.2079
   11MOL   C324 5544   7.298   4.107   3.118 -1.5221  0.3637 -0.4465
   11MOL   C325 5545   7.326   3.965   3.109 -0.1633  0.0905 -0.6387
   11MOL   C326 5546   7.223   3.878   3.144 -0.0579 -0.9171  0.1199
   11MOL   C327 5547   7.101   3.920   3.201  0.0321 -0.6711 -0.0635
   11MOL   C328 5548   7.078   4.058   3.225 -0.6223 -0.2604 -0.2567
   11MOL   H329 5549   7.447   4.223   2.817 -0.8962  1.5088  1.8842
   11MOL   H330 5550   7.490   4.060   2.856 -0.4567  0.9168  0.3057
   11MOL   H331 5551   7.545   4.310   2.999 -0.7777  0.5989  0.0749
   11MOL   H332 5552   7.034   4.382   3.299 -0.0144 -1.0891 -0.2724
   11MOL   H333 5553   7.113   4.606   3.297 -1.6032 -1.9027 -1.0733
   11MOL   H334 5554   7.334   4.665   3.162  2.0843 -1.7620 -2.4218
   11MOL   H335 5555   7.447   4.477   3.057 -1.0429  1.7114 -0.9577
   11MOL   H336 5556   7.419   3.927   3.068  0.3104 -0.7576  1.1878
   11MOL   H337 5557   7.246   3.772   3.151  1.1021 -0.6704  0.0646
   11MOL   H338 5558   7.023   3.850   3.228  0.8831 -1.1739  1.1314
   11MOL   H339 5559   6.984   4.085   3.272 -0.1446  0.6501  0.1981
   11MOL   C340 5560   7.617   4.145   3.117 -0.5504  0.5595  0.0189
   11MOL   C341 5561   7.623   4.227   3.245 -0.2634 -0.8164 -0.0396
   11MOL   N342 5562   7.645   4.138   3.364 -0.2514 -0.5967 -0.0537
   11MOL   C343 5563   7.550   4.095   3.456 -0.0006 -0.7059 -0.7958
   11MOL   C344 5564   7.609   4.005   3.550 -0.6178  0.2827  0.6196
   11MOL   C345 5565   7.529   3.940   3.645  0.0103  0.4631 -0.2493
   11MOL   C346 5566   7.389   3.956   3.646  1.1758  0.7726  0.0959
   11MOL   C347 5567   7.335   4.047   3.553 -0.3565 -0.2934  0.8247
   11MOL   C348 5568   7.414   4.121   3.465  0.2978  0.1911  0.2410
   11MOL   C349 5569   7.751   3.994   3.517 -0.5646  0.2689 -0.2806
   11MOL   C350 5570   7.766   4.075   3.399  0.5477 -0.0594  0.3117
   11MOL   C351 5571   7.893   4.089   3.333  0.6335  0.2195  0.6926
   11MOL   C352 5572   8.008   4.027   3.386 -0.6087  0.1962  0.3467
   11MOL   C353 5573   7.987   3.943   3.498 -0.3705 -0.1298 -0.5160
   11MOL   C354 5574   7.862   3.921   3.556 -0.3331 -0.0071 -0.3003
   11MOL   H355 5575   7.582   4.044   3.138  0.6167 -0.0914 -1.1140
   11MOL   H356 5576   7.718   4.150   3.075 -1.6452  2.8474 -2.4793
   11MOL   H357 5577   7.525   4.271   3.266 -0.5330 -0.2187 -2.4572
   11MOL   H358 5578   7.576   3.873   3.715 -0.2573  0.5814  0.0417
   11MOL   H359 5579   7.328   3.894   3.710 -1.4677  0.6856 -2.4186
   11MOL   H360 5580   7.229   4.055   3.539 -0.1859  0.2089 -0.2448
   11MOL   H361 5581   7.365   4.189   3.397  0.9684  0.0138 -0.4400
   11MOL   H362 5582   7.909   4.142   3.240  2.1556 -2.0863 -0.4342
   11MOL   H363 5583   8.097   4.039   3.328 -0.9288  0.3605 -0.1082
   11MOL   H364 5584   8.075   3.892   3.533 -1.8993 -1.6057  1.2394
   11MOL   H365 5585   7.851   3.859   3.643 -0.5770  2.6372  1.6147
   11MOL   C366 5586   7.713   4.355   3.234 -0.3127 -0.3553 -1.0519
   11MOL   C367 5587   7.730   4.432   3.365 -0.1344 -0.0920 -0.5979
   11MOL   N368 5588   7.851   4.512   3.369  0.2776  0.2673 -0.0351
   11MOL   C369 5589   7.963   4.476   3.444  0.0794  0.2932 -0.1443
   11MOL   C370 5590   8.064   4.573   3.433  0.1022 -0.4193  0.1730
   11MOL   C371 5591   8.191   4.544   3.485 -0.2819  0.2584 -0.0760
   11MOL   C372 5592   8.222   4.434   3.561  0.5120  0.5645 -0.5456
   11MOL   C373 5593   8.119   4.335   3.584  0.0195 -0.4304 -0.3529
   11MOL   C374 5594   7.994   4.353   3.516 -0.2350 -0.7883 -1.0620
   11MOL   C375 5595   8.008   4.681   3.356 -0.4570  0.2121 -0.0942
   11MOL   C376 5596   7.883   4.634   3.301  0.3867 -0.4778  0.1687
   11MOL   C377 5597   7.808   4.712   3.218 -0.1682 -0.7113  0.1241
   11MOL   C378 5598   7.863   4.831   3.162 -0.0248 -0.4519 -1.2029
   11MOL   C379 5599   7.991   4.874   3.216  0.1072  0.3099  0.0985
   11MOL   C380 5600   8.059   4.802   3.314 -0.0272 -0.3321  1.1076
   11MOL   H381 5601   7.815   4.326   3.211  0.3570  0.4736  0.7960
   11MOL   H382 5602   7.675   4.421   3.155  0.8645  1.1095 -0.4364
   11MOL   H383 5603   7.738   4.354   3.440  1.9464 -0.3653 -1.0657
   11MOL   H384 5604   0.041   4.617   3.470 -0.9201  0.6270 -1.6151
   11MOL   H385 5605   0.090   4.420   3.609  0.3248 -1.1589 -0.6316
   11MOL   H386 5606   8.152   4.252   3.645  1.4786  0.7618  0.5097
   11MOL   H387 5607   7.923   4.272   3.527  0.6453 -1.3307  0.7740
   11MOL   H388 5608   7.715   4.676   3.177  0.5021  0.4795 -2.5948
   11MOL   H389 5609   7.807   4.886   3.088 -1.3017 -0.1978 -0.0582
   11MOL   H390 5610   8.025   4.963   3.167 -2.2803  0.7739 -0.7583
   11MOL   H391 5611   8.159   4.820   3.351 -0.4261 -1.2739  2.7020
   11MOL   C392 5612   7.600   4.511   3.397 -0.0492  0.4989 -0.3472
   11MOL   C393 5613   7.540   4.473   3.534  0.2150 -0.3741 -0.3159
   11MOL   N394 5614   7.628   4.521   3.645 -0.2485  0.2627 -0.1171
   11MOL   C395 5615   7.701   4.435   3.727  0.1861  0.0246 -0.2431
   11MOL   C396 5616   7.776   4.519   3.819 -0.5395 -0.6003 -0.2395
   11MOL   C397 5617   7.867   4.455   3.905  0.4120  0.1669  0.0389
   11MOL   C398 5618   7.887   4.316   3.903  0.1804  0.3730  0.0108
   11MOL   C399 5619   7.812   4.238   3.815 -0.1783 -0.3483 -0.2273
   11MOL   C400 5620   7.724   4.291   3.727  0.4663 -0.1587 -0.2251
   11MOL   C401 5621   7.743   4.654   3.792 -0.0010 -0.3865 -0.2041
   11MOL   C402 5622   7.656   4.654   3.685 -0.4600 -0.5153  0.4406
   11MOL   C403 5623   7.607   4.778   3.633 -0.3869  0.4848  0.6170
   11MOL   C404 5624   7.654   4.901   3.687 -0.3801 -0.2829  0.1551
   11MOL   C405 5625   7.740   4.900   3.794  0.4882 -0.3635 -0.4286
   11MOL   C406 5626   7.790   4.773   3.850  0.6372  0.9940  0.1935
   11MOL   H407 5627   7.620   4.618   3.389 -1.1711  0.7101 -0.3453
   11MOL   H408 5628   7.523   4.482   3.326 -0.5986 -2.3779  1.3420
   11MOL   H409 5629   7.534   4.364   3.536  0.4246 -0.3832 -0.0389
   11MOL   H410 5630   7.917   4.525   3.971  4.0715 -0.6791 -1.6855
   11MOL   H411 5631   7.964   4.274   3.966 -2.3428 -0.7168  2.4590
   11MOL   H412 5632   7.840   4.134   3.809  0.8575 -0.1266  0.5267
   11MOL   H413 5633   7.677   4.223   3.657 -0.3355 -1.2762  1.3759
   11MOL   H414 5634   7.538   4.776   3.550 -0.3833 -1.5931  0.6489
   11MOL   H415 5635   7.635   4.997   3.640 -0.0414 -0.4919 -0.4209
   11MOL   H416 5636   7.774   4.993   3.836  0.5490 -1.2040  1.4310
   11MOL   H417 5637   7.863   4.773   3.929 -0.0815 -1.0347  0.8792
   11MOL   C418 5638   7.393   4.520   3.543 -0.5240 -0.0534  0.1696
   11MOL   C419 5639   7.339   4.540   3.683  0.3526 -0.4378  0.1390
   11MOL   N420 5640   7.204   4.610   3.685  0.1062 -0.5846 -0.3219
   11MOL   C421 5641   7.183   4.743   3.732  0.8154  0.5083 -0.1325
   11MOL   C422 5642   7.045   4.779   3.722  0.0204  0.7953 -0.2359
   11MOL   C423 5643   6.997   4.906   3.767 -0.2679 -0.1766  0.6659
   11MOL   C424 5644   7.086   4.991   3.835 -0.4274  0.6000  0.1893
   11MOL   C425 5645   7.223   4.963   3.828  0.0562  0.6941 -0.3463
   11MOL   C426 5646   7.271   4.839   3.795 -0.4121  0.1990  0.0880
   11MOL   C427 5647   6.971   4.663   3.669 -0.4204 -0.8264 -0.3374
   11MOL   C428 5648   7.076   4.568   3.634 -0.7219 -0.6100 -0.0232
   11MOL   C429 5649   7.034   4.447   3.569  0.0190 -0.2405  0.3037
   11MOL   C430 5650   6.902   4.427   3.535  0.4334 -0.6471  0.3753
   11MOL   C431 5651   6.803   4.522   3.556  0.0782  0.8187 -0.4607
   11MOL   C432 5652   6.835   4.639   3.626 -0.2124  0.1599  0.1725
   11MOL   H433 5653   7.383   4.612   3.486  0.3087  0.5819  1.0271
   11MOL   H434 5654   7.332   4.447   3.489 -0.5521 -0.7004  1.0556
   11MOL   H435 5655   7.407   4.612   3.729 -0.9498 -0.9821  3.0383
   11MOL   H436 5656   6.893   4.928   3.748 -0.3758 -1.6573 -0.5203
   11MOL   H437 5657   7.050   5.087   3.870 -1.3492 -0.0656  1.1176
   11MOL   H438 5658   7.298   5.037   3.853  0.0278  1.5601 -2.6399
   11MOL   H439 5659   7.375   4.811   3.800 -0.5504 -0.0116  2.1476
   11MOL   H440 5660   7.112   4.373   3.566  0.7656  0.2995  3.9137
   11MOL   H441 5661   6.871   4.337   3.483  0.2381  0.0766 -0.7787
   11MOL   H442 5662   6.701   4.515   3.521  0.2015  0.4752 -0.7582
   11MOL   H443 5663   6.766   4.719   3.649  1.2367  2.2419 -2.3330
   11MOL   C444 5664   7.342   4.412   3.762  0.1321 -0.1088 -0.3012
   11MOL   C445 5665   7.254   4.407   3.890  0.1464  0.3012 -0.4719
   11MOL   N446 5666   7.237   4.270   3.943 -0.1716 -0.0541 -0.0152
   11MOL   C447 5667   7.110   4.201   3.943  0.4040  0.4995 -0.2190
   11MOL   C448 5668   7.127   4.073   3.994  0.4636  0.0930 -0.4400
   11MOL   C449 5669   7.011   3.987   3.999  0.1972  0.7677 -0.0481
   11MOL   C450 5670   6.886   4.033   3.964  0.0514 -0.0007  0.4262
   11MOL   C451 5671   6.874   4.159   3.906 -0.0899 -0.1066  0.3105
   11MOL   C452 5672   6.984   4.243   3.901 -0.2386  0.2508 -0.8458
   11MOL   C453 5673   7.266   4.065   4.032  0.2281  0.0357  0.0616
   11MOL   C454 5674   7.334   4.189   4.003 -0.1022  0.0391  0.0743
   11MOL   C455 5675   7.471   4.201   4.021 -0.5085 -0.3868  0.0258
   11MOL   C456 5676   7.544   4.100   4.092 -0.4435 -0.0377  0.5534
   11MOL   C457 5677   7.478   3.980   4.128 -0.3608  0.1094  0.1112
   11MOL   C458 5678   7.341   3.964   4.093 -0.1914  0.8962  0.5256
   11MOL   H459 5679   7.310   4.333   3.695 -0.2417 -1.2877  1.2536
   11MOL   H460 5680   7.444   4.378   3.781  0.2343  0.7974  0.8840
   11MOL   H461 5681   7.152   4.436   3.865 -0.5569 -1.0084  0.7986
   11MOL   H462 5682   7.028   3.894   4.052 -0.3529 -0.0247 -1.2304
   11MOL   H463 5683   6.799   3.972   3.985  0.2482 -0.5519 -0.3364
   11MOL   H464 5684   6.772   4.186   3.886 -0.4709 -1.2361  0.6845
   11MOL   H465 5685   6.973   4.348   3.877  2.5269  1.2886  2.0741
   11MOL   H466 5686   7.517   4.295   3.994 -0.5557 -0.8853 -1.8765
   11MOL   H467 5687   7.649   4.119   4.110 -0.2292  0.9233 -1.5718
   11MOL   H468 5688   7.538   3.899   4.168  0.5484 -0.2183 -1.8690
   11MOL   H469 5689   7.294   3.870   4.119 -0.4556  0.7076 -0.5875
   11MOL   C470 5690   7.301   4.507   3.995 -0.0591 -0.4504  0.0221
   11MOL   C471 5691   7.234   4.495   4.133 -0.0353 -0.2567  0.4956
   11MOL   N472 5692   7.309   4.578   4.228  0.2116 -0.6181  0.4859
   11MOL   C473 5693   7.407   4.537   4.321 -0.4777 -0.0047 -0.6893
   11MOL   C474 5694   7.448   4.649   4.397 -0.4508  0.7201  0.3907
   11MOL   C475 5695   7.550   4.628   4.496  0.3412 -0.0724 -0.2166
   11MOL   C476 5696   7.596   4.496   4.520 -0.5110  0.5193  0.2466
   11MOL   C477 5697   7.545   4.384   4.455 -0.1850  0.2441  0.0922
   11MOL   C478 5698   7.451   4.410   4.355  0.3794 -0.0594  0.1265
   11MOL   C479 5699   7.384   4.763   4.353 -0.0021 -0.7144 -0.2942
   11MOL   C480 5700   7.308   4.719   4.237 -0.2981  0.3000  0.0823
   11MOL   C481 5701   7.244   4.816   4.158  0.2472 -0.5458 -0.3952
   11MOL   C482 5702   7.254   4.953   4.181 -0.5408 -0.5978  0.0716
   11MOL   C483 5703   7.329   4.997   4.297 -0.1049  0.5582 -0.2880
   11MOL   C484 5704   7.387   4.906   4.383  0.5243  0.2901  0.2497
   11MOL   H485 5705   7.409   4.509   4.009 -0.3539  1.6924  2.2542
   11MOL   H486 5706   7.274   4.607   3.960 -0.3806 -0.6151 -0.2009
   11MOL   H487 5707   7.240   4.394   4.174 -1.2924 -1.4245 -2.0627
   11MOL   H488 5708   7.589   4.712   4.551  0.3441 -0.3769  0.2492
   11MOL   H489 5709   7.673   4.471   4.593 -1.0668 -2.6342 -0.1709
   11MOL   H490 5710   7.582   4.287   4.483 -2.5672 -0.8745 -0.5385
   11MOL   H491 5711   7.418   4.322   4.301 -0.6174  0.1239  0.4210
   11MOL   H492 5712   7.192   4.789   4.067  1.4364  3.0261 -2.2044
   11MOL   H493 5713   7.215   5.020   4.106  0.8293  0.6863  0.4519
   11MOL   H494 5714   7.345   5.100   4.327 -0.3064  0.1497  1.2460
   11MOL   H495 5715   7.441   4.952   4.465 -0.1832  0.0635  0.8503
   11MOL   C496 5716   7.085   4.528   4.131 -0.1273 -0.5455  0.2742
   11MOL   C497 5717   7.031   4.508   4.272  0.0144  0.3618 -0.2274
   11MOL   N498 5718   6.901   4.574   4.287 -0.1334  0.3278 -0.3379
   11MOL   C499 5719   6.781   4.516   4.249 -0.4456 -0.1884  0.3999
   11MOL   C500 5720   6.675   4.599   4.299  0.6636 -0.5347  0.5270
   11MOL   C501 5721   6.542   4.560   4.275  0.5544 -0.8388 -0.4130
   11MOL   C502 5722   6.509   4.440   4.208 -0.5618 -0.9249 -0.1863
   11MOL   C503 5723   6.617   4.373   4.146  0.1501  0.9269  0.4133
   11MOL   C504 5724   6.749   4.405   4.171 -0.7172 -0.5810  0.7581
   11MOL   C505 5725   6.731   4.722   4.339  0.5424  1.1918  0.5164
   11MOL   C506 5726   6.870   4.700   4.338 -1.3284 -0.5979  0.4296
   11MOL   C507 5727   6.959   4.799   4.379 -0.0999 -0.1499  0.3101
   11MOL   C508 5728   6.912   4.927   4.415  0.8750  0.2793  0.3133
   11MOL   C509 5729   6.773   4.945   4.419  0.3008 -0.1890  0.6567
   11MOL   C510 5730   6.684   4.843   4.388  0.6456  0.1241 -0.5693
   11MOL   H511 5731   7.067   4.625   4.086  0.1325 -1.0656 -0.9731
   11MOL   H512 5732   7.041   4.453   4.065  0.7460 -2.3199  1.6564
   11MOL   H513 5733   7.091   4.562   4.345 -1.1394  0.7391  0.4552
   11MOL   H514 5734   6.458   4.623   4.297  0.2475 -0.7806 -1.6849
   11MOL   H515 5735   6.406   4.418   4.182 -0.4165 -2.0315  0.1543
   11MOL   H516 5736   6.598   4.288   4.082  0.5567 -0.4889  2.1358
   11MOL   H517 5737   6.816   4.347   4.110  0.8096  0.5460  1.3427
   11MOL   H518 5738   7.065   4.787   4.366 -0.2394 -0.1792 -0.8156
   11MOL   H519 5739   6.973   5.014   4.435 -0.3649  1.6319 -1.6006
   11MOL   H520 5740   6.725   5.039   4.441  3.2172  0.9605  2.4239
   11MOL   H521 5741   6.579   4.869   4.391  0.9478  1.3602  0.1499
   11MOL   H522 5742   7.011   4.405   4.301 -0.0989  0.8373  1.4737
   12MOL     C1 5743   7.411   1.786   1.172  0.2744  0.4652 -0.3607
   12MOL     C2 5744   7.363   1.729   1.308 -0.1140 -0.2706 -0.3575
   12MOL     N3 5745   7.400   1.589   1.317 -0.0614 -0.2052  0.7001
   12MOL     C4 5746   7.305   1.488   1.336  0.5839 -0.4984 -0.2917
   12MOL     C5 5747   7.373   1.359   1.335  0.0395  0.4019  0.4178
   12MOL     C6 5748   7.292   1.242   1.334  0.1247 -0.9284 -0.5354
   12MOL     C7 5749   7.151   1.254   1.343 -0.0776  0.6672  0.2124
   12MOL     C8 5750   7.088   1.377   1.347  0.6497  0.3300 -0.9315
   12MOL     C9 5751   7.165   1.494   1.345  0.7918  0.0465 -0.2262
   12MOL    C10 5752   7.507   1.384   1.323  0.0747  0.1575 -0.3475
   12MOL    C11 5753   7.522   1.522   1.304  0.3464  0.0535 -0.5943
   12MOL    C12 5754   7.647   1.572   1.277 -0.0635  0.1075  0.1454
   12MOL    C13 5755   7.761   1.491   1.253  0.2522  0.5075 -0.0160
   12MOL    C14 5756   7.754   1.352   1.280  0.4702  0.2854 -0.0020
   12MOL    C15 5757   7.626   1.301   1.312  0.3069  0.4914  0.2557
   12MOL    H16 5758   7.396   1.727   1.082 -2.9839  0.6902 -0.0503
   12MOL    H17 5759   7.513   1.822   1.171 -0.5934  2.9763 -0.8225
   12MOL    H18 5760   7.255   1.734   1.317  0.0213 -2.0445  2.7142
   12MOL    H19 5761   7.342   1.146   1.330  0.9431 -0.5430  0.3868
   12MOL    H20 5762   7.091   1.165   1.343  0.2140  0.4454 -1.8265
   12MOL    H21 5763   6.981   1.390   1.356  0.7275 -0.1986  1.0619
   12MOL    H22 5764   7.112   1.587   1.357 -0.7891 -1.1661  2.6425
   12MOL    H23 5765   7.662   1.679   1.273  1.5336 -0.1258 -0.6488
   12MOL    H24 5766   7.858   1.531   1.227  1.2287 -0.5091  1.8878
   12MOL    H25 5767   7.840   1.288   1.267  1.5525  1.5393  0.8683
   12MOL    H26 5768   7.609   1.195   1.321  1.4356  0.2746 -0.0712
   12MOL    H27 5769   7.335   1.861   1.153 -1.7082 -0.6893  2.5132
   12MOL    C28 5770   7.420   1.805   1.430 -0.0226 -0.1257  0.4365
   12MOL    C29 5771   7.356   1.941   1.454 -0.1883 -0.3384 -0.3086
   12MOL    N30 5772   7.211   1.933   1.445  0.5900 -0.2622 -0.5150
   12MOL    C31 5773   7.143   2.002   1.338 -0.1371 -0.0910  0.0606
   12MOL    C32 5774   7.006   1.961   1.345 -0.4010  0.4052  0.2443
   12MOL    C33 5775   6.908   2.027   1.265 -0.2756 -0.1389  0.3865
   12MOL    C34 5776   6.949   2.119   1.166 -0.3071 -0.3880 -0.3267
   12MOL    C35 5777   7.088   2.150   1.157  0.3986 -0.1927  0.4165
   12MOL    C36 5778   7.180   2.103   1.247 -0.3037 -0.6920 -0.2384
   12MOL    C37 5779   6.995   1.858   1.445 -0.4544 -0.1201  0.5616
   12MOL    C38 5780   7.122   1.845   1.505  0.0802 -0.4388  0.1701
   12MOL    C39 5781   7.137   1.753   1.608 -0.4182 -0.4938 -0.6177
   12MOL    C40 5782   7.040   1.668   1.646 -0.5298  0.5430 -0.0530
   12MOL    C41 5783   6.912   1.671   1.576  0.1336  0.5589  0.4550
   12MOL    C42 5784   6.891   1.767   1.479  0.5637  0.1447 -0.1840
   12MOL    H43 5785   7.414   1.743   1.519  0.0357 -0.0597  0.4858
   12MOL    H44 5786   7.526   1.823   1.413 -0.1957 -0.0235 -0.5672
   12MOL    H45 5787   7.395   1.999   1.370 -0.2573  0.3858  0.1612
   12MOL    H46 5788   6.805   2.001   1.285 -0.8393 -1.9323 -4.3020
   12MOL    H47 5789   6.880   2.171   1.100  0.6583  1.3199 -0.0274
   12MOL    H48 5790   7.131   2.202   1.072 -0.7535 -1.0299 -0.6968
   12MOL    H49 5791   7.285   2.123   1.230 -0.4918  0.9791  0.4568
   12MOL    H50 5792   7.227   1.751   1.667 -0.9445 -1.8058  0.1643
   12MOL    H51 5793   7.054   1.598   1.727  1.4889  1.2625  0.2481
   12MOL    H52 5794   6.845   1.598   1.618  1.2117  0.4242  1.9927
   12MOL    H53 5795   6.794   1.769   1.431  1.3729 -0.0600 -1.8810
   12MOL    C54 5796   7.388   1.998   1.593  0.3794  0.3427 -0.0994
   12MOL    C55 5797   7.539   2.023   1.633  0.0800 -0.1122 -0.2669
   12MOL    N56 5798   7.626   2.062   1.521  0.7256 -0.1057  0.4014
   12MOL    C57 5799   7.744   1.995   1.484 -0.1862  0.7523 -0.2932
   12MOL    C58 5800   7.788   2.053   1.355 -0.2291  0.1498  0.3823
   12MOL    C59 5801   7.907   2.003   1.301  0.0959 -0.9736  0.3091
   12MOL    C60 5802   7.984   1.901   1.365 -0.0565  0.3319 -0.4411
   12MOL    C61 5803   7.947   1.849   1.486  0.2329 -0.0112  0.4451
   12MOL    C62 5804   7.826   1.895   1.546  0.2736 -0.9694  0.8747
   12MOL    C63 5805   7.690   2.145   1.312  0.8075  0.2488  0.2713
   12MOL    C64 5806   7.599   2.158   1.420 -0.1959 -0.4611 -0.1588
   12MOL    C65 5807   7.491   2.249   1.414 -1.1192 -0.3566  0.3172
   12MOL    C66 5808   7.473   2.327   1.299 -0.1692 -0.4520  0.2749
   12MOL    C67 5809   7.563   2.317   1.195 -0.1507 -0.3634  0.5025
   12MOL    C68 5810   7.674   2.233   1.199 -0.7114  0.0874  0.7026
   12MOL    H69 5811   7.341   2.093   1.618  2.1846  1.0396  0.7703
   12MOL    H70 5812   7.344   1.932   1.667 -0.7638 -1.0051 -1.9487
   12MOL    H71 5813   7.578   1.932   1.678  0.9393 -0.1035 -0.9811
   12MOL    H72 5814   7.929   2.027   1.198  0.1556 -2.0886  0.0495
   12MOL    H73 5815   8.071   1.853   1.323 -1.6444 -2.2166 -0.9287
   12MOL    H74 5816   8.011   1.778   1.536 -0.2441 -0.9244 -0.2262
   12MOL    H75 5817   7.806   1.861   1.647  1.3742  1.6272  2.0141
   12MOL    H76 5818   7.417   2.266   1.490 -1.9193  0.7965 -0.7008
   12MOL    H77 5819   7.395   2.400   1.320 -0.7457 -0.7354 -0.8690
   12MOL    H78 5820   7.551   2.386   1.112 -0.6074 -4.2137 -2.8094
   12MOL    H79 5821   7.743   2.237   1.116 -1.5812  1.5689  0.0354
   12MOL    C80 5822   7.559   2.134   1.735 -0.1301  0.8030  0.2204
   12MOL    C81 5823   7.508   2.120   1.879  0.6757  0.9622  0.0068
   12MOL    N82 5824   7.581   2.011   1.954 -0.0135 -0.2351  0.1657
   12MOL    C83 5825   7.540   1.885   1.993  0.2027 -0.6878  0.6391
   12MOL    C84 5826   7.639   1.815   2.067  0.3643  0.4074 -0.0870
   12MOL    C85 5827   7.616   1.681   2.113 -0.8470  0.3997 -0.0630
   12MOL    C86 5828   7.496   1.615   2.080  0.0924  0.6355  0.2932
   12MOL    C87 5829   7.401   1.682   2.005 -0.2628  0.3656  0.5871
   12MOL    C88 5830   7.420   1.815   1.961  0.4882 -0.7026 -0.2864
   12MOL    C89 5831   7.750   1.907   2.077  0.4734  0.5031 -0.1557
   12MOL    C90 5832   7.703   2.029   2.010  0.1529  0.4562 -0.0038
   12MOL    C91 5833   7.789   2.140   2.006  0.4874 -0.2512 -0.4405
   12MOL    C92 5834   7.905   2.143   2.088  0.0099 -0.7005  0.7899
   12MOL    C93 5835   7.954   2.022   2.147 -0.3952  0.3750  0.2148
   12MOL    C94 5836   7.874   1.904   2.140  0.0724  0.1601 -0.6438
   12MOL    H95 5837   7.668   2.138   1.738 -0.1332  1.8306 -0.7533
   12MOL    H96 5838   7.522   2.231   1.699  0.1178  0.0617 -2.0954
   12MOL    H97 5839   7.406   2.083   1.866 -0.1873  2.6095  1.7966
   12MOL    H98 5840   7.696   1.636   2.170  0.7504  1.2381 -1.5763
   12MOL    H99 5841   7.483   1.516   2.120 -0.4062  0.9191  0.8435
   12MOL   H100 5842   7.307   1.634   1.981 -1.2552  2.0930  0.9899
   12MOL   H101 5843   7.336   1.862   1.911  0.7689  1.1390  0.9355
   12MOL   H102 5844   7.758   2.232   1.959 -0.9124 -0.1328  0.6675
   12MOL   H103 5845   7.956   2.238   2.084 -0.8954 -0.2721 -1.8895
   12MOL   H104 5846   8.037   2.022   2.216 -1.5471  2.5267  1.6554
   12MOL   H105 5847   7.908   1.815   2.190 -1.3401  0.4294  0.8413
   12MOL   C106 5848   7.484   2.254   1.955 -0.3527  0.1642  0.1597
   12MOL   C107 5849   7.349   2.329   1.910 -0.0390  0.3786 -0.5682
   12MOL   N108 5850   7.234   2.239   1.883  0.7493 -0.1479 -0.4793
   12MOL   C109 5851   7.145   2.258   1.776  0.0322  0.7378  0.2207
   12MOL   C110 5852   7.063   2.143   1.764  0.1169 -0.4580  0.0126
   12MOL   C111 5853   6.980   2.128   1.652 -0.8040 -0.6422  0.0968
   12MOL   C112 5854   6.987   2.228   1.554 -0.5021  0.1296  0.2428
   12MOL   C113 5855   7.078   2.337   1.559 -0.4535 -0.3177 -0.2423
   12MOL   C114 5856   7.156   2.356   1.671  0.4897 -0.3079 -0.5518
   12MOL   C115 5857   7.092   2.055   1.873  0.2854 -0.3700  0.0711
   12MOL   C116 5858   7.182   2.127   1.957  0.2663  0.6131  0.1287
   12MOL   C117 5859   7.219   2.073   2.082 -0.6099  0.0588  0.8187
   12MOL   C118 5860   7.166   1.944   2.117 -0.0883  0.2035 -0.4332
   12MOL   C119 5861   7.073   1.877   2.034 -0.5943 -0.0676  0.0395
   12MOL   C120 5862   7.041   1.929   1.908  0.4848 -0.0756 -0.4942
   12MOL   H121 5863   7.476   2.228   2.060  1.5871 -0.5477  0.1470
   12MOL   H122 5864   7.566   2.326   1.955 -0.5726  0.4264 -0.5983
   12MOL   H123 5865   7.386   2.378   1.820  1.3140 -1.5091 -1.0693
   12MOL   H124 5866   6.911   2.044   1.643  0.3048 -1.4308 -1.2351
   12MOL   H125 5867   6.915   2.221   1.475 -1.6516  0.0159  1.2839
   12MOL   H126 5868   7.089   2.414   1.483  2.1377  1.1394  1.5359
   12MOL   H127 5869   7.220   2.443   1.673  1.0563 -0.7546  1.6905
   12MOL   H128 5870   7.285   2.126   2.148  0.8178 -2.0426  1.1148
   12MOL   H129 5871   7.193   1.900   2.212 -2.2299 -2.0655 -0.8169
   12MOL   H130 5872   7.045   1.775   2.058 -0.7723  0.0846  0.4781
   12MOL   H131 5873   6.982   1.871   1.838  0.4335 -1.5694  0.7589
   12MOL   C132 5874   7.314   2.447   2.004 -0.6431  0.0518 -0.0055
   12MOL   C133 5875   7.412   2.572   2.000 -0.1067  0.0622  0.1588
   12MOL   N134 5876   7.458   2.612   1.863  0.6578 -0.3679  0.2199
   12MOL   C135 5877   7.589   2.595   1.812 -0.0434 -0.4124 -0.2834
   12MOL   C136 5878   7.595   2.636   1.675 -0.8085  0.2121 -0.1903
   12MOL   C137 5879   7.726   2.631   1.611  0.0079 -0.4483  0.0295
   12MOL   C138 5880   7.842   2.589   1.678  0.4205 -0.1006 -0.2955
   12MOL   C139 5881   7.830   2.544   1.809  0.7172  0.4751  0.5533
   12MOL   C140 5882   7.704   2.547   1.875  0.0642 -0.1260 -0.5172
   12MOL   C141 5883   7.459   2.683   1.641  0.4284 -0.4126 -0.1276
   12MOL   C142 5884   7.377   2.659   1.756 -0.6098 -0.0051 -0.3017
   12MOL   C143 5885   7.237   2.683   1.749  0.6044 -0.4810  0.6293
   12MOL   C144 5886   7.171   2.731   1.631 -0.4682  0.1127  0.5059
   12MOL   C145 5887   7.257   2.755   1.522  0.1868 -0.3264  0.3376
   12MOL   C146 5888   7.394   2.723   1.523  0.0743  0.0878  0.0774
   12MOL   H147 5889   7.222   2.483   1.959  0.9472 -0.6183 -3.9949
   12MOL   H148 5890   7.283   2.426   2.106  1.6596 -3.3107  0.1008
   12MOL   H149 5891   7.496   2.542   2.063  1.3591  0.3794 -1.6097
   12MOL   H150 5892   7.738   2.669   1.511  1.9129  1.3210  0.8756
   12MOL   H151 5893   7.942   2.594   1.636 -0.1072 -0.1408 -1.5956
   12MOL   H152 5894   7.910   2.503   1.867 -0.3742 -0.0228  1.7423
   12MOL   H153 5895   7.701   2.516   1.978 -1.5577 -3.5408 -1.5233
   12MOL   H154 5896   7.177   2.655   1.835 -4.2090  3.1677 -1.2931
   12MOL   H155 5897   7.065   2.745   1.617 -0.1933  0.8019 -1.0338
   12MOL   H156 5898   7.214   2.772   1.424  0.1598 -0.6046  0.3024
   12MOL   H157 5899   7.453   2.733   1.433  1.0399 -1.6999  0.4757
   12MOL   C158 5900   7.348   2.688   2.080 -0.2029  0.4056  0.2957
   12MOL   C159 5901   7.374   2.683   2.231  0.3406 -0.5985 -0.4661
   12MOL   N160 5902   7.514   2.708   2.268  0.5795  0.4845 -0.5982
   12MOL   C161 5903   7.602   2.622   2.327 -0.2646 -0.0327 -0.0120
   12MOL   C162 5904   7.730   2.684   2.352 -0.3798 -0.4880 -0.1759
   12MOL   C163 5905   7.828   2.616   2.421 -0.6593 -0.0049  0.1076
   12MOL   C164 5906   7.812   2.484   2.462  0.1554  0.0837 -0.2151
   12MOL   C165 5907   7.689   2.417   2.432 -0.1588 -0.9870  0.0495
   12MOL   C166 5908   7.588   2.482   2.362 -0.3805  0.0260  0.3025
   12MOL   C167 5909   7.717   2.816   2.295 -0.6312 -0.6579 -0.3044
   12MOL   C168 5910   7.580   2.829   2.247  0.2024 -0.0267  0.0220
   12MOL   C169 5911   7.541   2.951   2.189 -0.1717  0.4499  0.0852
   12MOL   C170 5912   7.638   3.063   2.198 -0.3106  0.7150  0.1331
   12MOL   C171 5913   7.770   3.047   2.244 -0.0256 -0.6155 -0.3345
   12MOL   C172 5914   7.806   2.920   2.297 -0.3683  0.0652 -0.1148
   12MOL   H173 5915   7.399   2.778   2.046 -1.7552  1.2218  0.0514
   12MOL   H174 5916   7.243   2.692   2.050 -0.2021 -0.3668  0.1965
   12MOL   H175 5917   7.361   2.579   2.260 -1.3670 -0.9729 -2.4709
   12MOL   H176 5918   7.925   2.661   2.430  0.2480 -1.8195 -0.2927
   12MOL   H177 5919   7.900   2.436   2.503 -1.5752 -3.1733 -0.1539
   12MOL   H178 5920   7.691   2.312   2.457 -0.7738 -0.9166  0.3967
   12MOL   H179 5921   7.500   2.422   2.343  0.0694 -0.5625  0.0581
   12MOL   H180 5922   7.441   2.949   2.150 -0.3933  2.0064  0.5213
   12MOL   H181 5923   7.614   3.159   2.155 -1.8574 -0.3971 -1.6042
   12MOL   H182 5924   7.848   3.121   2.241 -0.6194  0.0650  0.7290
   12MOL   H183 5925   7.905   2.901   2.336 -1.3322 -2.6179  1.1979
   12MOL   C184 5926   7.275   2.755   2.327  0.3595  0.4769  0.6134
   12MOL   C185 5927   7.131   2.705   2.341  0.1270 -0.2894 -0.9676
   12MOL   N186 5928   7.112   2.559   2.328  0.5222  0.2360  0.6047
   12MOL   C187 5929   7.035   2.491   2.236 -0.0089  0.5900 -1.2206
   12MOL   C188 5930   7.051   2.354   2.262  0.5025  0.1238 -0.0410
   12MOL   C189 5931   6.984   2.266   2.171  1.0410 -0.4610 -0.3168
   12MOL   C190 5932   6.901   2.313   2.064 -0.0276 -0.6575  0.2398
   12MOL   C191 5933   6.884   2.452   2.045 -0.1849 -0.8614 -0.2204
   12MOL   C192 5934   6.952   2.540   2.127  0.4372  0.2838 -0.3529
   12MOL   C193 5935   7.126   2.333   2.380 -0.0265  0.0128 -0.2307
   12MOL   C194 5936   7.167   2.464   2.416 -0.7248 -0.7174  0.1178
   12MOL   C195 5937   7.243   2.482   2.534  0.5023 -0.3852 -0.2380
   12MOL   C196 5938   7.290   2.368   2.606 -0.7771  0.1151 -1.1150
   12MOL   C197 5939   7.261   2.238   2.557 -0.2733  0.2454  0.2750
   12MOL   C198 5940   7.174   2.222   2.447 -0.4976  0.0558  0.0543
   12MOL   H199 5941   7.321   2.753   2.426 -1.5634  1.4035  1.5604
   12MOL   H200 5942   7.280   2.858   2.293  1.9954 -0.1695 -1.2325
   12MOL   H201 5943   7.073   2.743   2.257  0.3902 -1.5401 -1.7221
   12MOL   H202 5944   6.996   2.161   2.192  0.6803 -0.2213  1.2118
   12MOL   H203 5945   6.860   2.241   1.994  3.1085  0.3223 -2.7626
   12MOL   H204 5946   6.828   2.499   1.966  1.5937  1.7808  0.0332
   12MOL   H205 5947   6.950   2.647   2.110 -1.7347  0.2669 -0.3621
   12MOL   H206 5948   7.280   2.581   2.557 -2.5908  0.9953 -0.9656
   12MOL   H207 5949   7.367   2.378   2.681  0.1249  0.9654 -2.1396
   12MOL   H208 5950   7.313   2.160   2.610 -0.9695  0.6545  1.5894
   12MOL   H209 5951   7.148   2.122   2.414  0.8830 -0.2974 -0.0067
   12MOL   C210 5952   7.063   2.761   2.468  0.8824 -0.0037  0.0875
   12MOL   C211 5953   7.048   2.913   2.488 -0.3950 -0.2786  0.6330
   12MOL   N212 5954   6.999   2.978   2.361  0.4539  0.0480  0.0757
   12MOL   C213 5955   7.072   3.074   2.282  0.0976  0.0488 -0.9640
   12MOL   C214 5956   7.010   3.082   2.154  0.6688  1.1217  0.3298
   12MOL   C215 5957   7.072   3.158   2.056  0.2796 -0.7042  0.0101
   12MOL   C216 5958   7.197   3.221   2.074  0.9855 -0.2545 -0.3442
   12MOL   C217 5959   7.261   3.209   2.196 -0.3676 -0.2512  0.1144
   12MOL   C218 5960   7.201   3.132   2.300 -0.2476 -0.4647 -0.4983
   12MOL   C219 5961   6.885   3.002   2.164  0.4806  0.4222 -0.5163
   12MOL   C220 5962   6.882   2.944   2.293  0.3327 -0.7697  0.2377
   12MOL   C221 5963   6.772   2.871   2.339  0.9868  0.3017 -0.3925
   12MOL   C222 5964   6.662   2.842   2.257  0.2506 -0.4512  0.5821
   12MOL   C223 5965   6.665   2.887   2.126  0.2945  0.3156  0.8676
   12MOL   C224 5966   6.770   2.970   2.083 -0.8621  0.4622  0.4809
   12MOL   H225 5967   6.963   2.717   2.462  2.2248 -3.0563 -0.7520
   12MOL   H226 5968   7.112   2.728   2.560  1.1629  2.4165  0.8323
   12MOL   H227 5969   7.147   2.957   2.495 -0.5335  0.1261  0.0870
   12MOL   H228 5970   7.026   3.170   1.959 -0.6329  0.9121  0.6245
   12MOL   H229 5971   7.247   3.276   1.996  1.6158  0.6015  0.6662
   12MOL   H230 5972   7.352   3.260   2.222  0.5097 -1.9001  0.3805
   12MOL   H231 5973   7.253   3.125   2.395  1.0935  1.5183 -1.0605
   12MOL   H232 5974   6.771   2.831   2.440 -1.9835 -0.0014 -0.5021
   12MOL   H233 5975   6.577   2.782   2.288  0.0201 -0.7619 -0.6153
   12MOL   H234 5976   6.581   2.864   2.063  0.2342  0.3034  0.9531
   12MOL   H235 5977   6.761   3.017   1.986 -0.4064  1.8917  1.1186
   12MOL   C236 5978   6.966   2.946   2.620 -0.6611  0.0771 -0.4027
   12MOL   C237 5979   7.054   2.915   2.748 -0.2719 -0.7043 -0.4274
   12MOL   N238 5980   7.178   2.999   2.738 -0.4677  0.4007  0.0418
   12MOL   C239 5981   7.309   2.948   2.724 -0.3446  0.3315 -0.0945
   12MOL   C240 5982   7.396   3.056   2.680  0.1866  0.3686  0.3324
   12MOL   C241 5983   7.524   3.018   2.632  1.0526 -0.2777 -0.4683
   12MOL   C242 5984   7.572   2.887   2.635  1.0573  0.1680  0.3792
   12MOL   C243 5985   7.487   2.786   2.683  0.5547  0.2338  0.9850
   12MOL   C244 5986   7.361   2.814   2.733 -0.1171  0.2595  0.1437
   12MOL   C245 5987   7.314   3.174   2.685 -0.6682  0.3921  0.3914
   12MOL   C246 5988   7.184   3.137   2.717 -0.5033 -0.0635 -0.3454
   12MOL   C247 5989   7.081   3.237   2.712 -0.0783  0.4364 -0.5347
   12MOL   C248 5990   7.108   3.372   2.677  0.4311  0.4844  0.6674
   12MOL   C249 5991   7.242   3.406   2.644 -0.7116  0.1450 -0.0550
   12MOL   C250 5992   7.340   3.304   2.637 -0.2995 -0.2502 -0.1749
   12MOL   H251 5993   6.936   3.049   2.603  4.5449  2.1466  1.8854
   12MOL   H252 5994   6.881   2.878   2.633  0.5581 -0.9022  3.1267
   12MOL   H253 5995   7.091   2.813   2.758  0.5443 -0.2730  1.1464
   12MOL   H254 5996   7.589   3.096   2.594  0.1105  0.4541 -0.6033
   12MOL   H255 5997   7.673   2.863   2.606  0.8355 -0.8197  0.4066
   12MOL   H256 5998   7.524   2.686   2.699 -0.2726 -0.0668  1.0034
   12MOL   H257 5999   7.301   2.731   2.767  3.1121 -1.4719  1.8141
   12MOL   H258 6000   6.976   3.211   2.725  0.1228  0.3371  1.0162
   12MOL   H259 6001   7.030   3.447   2.679 -2.0459 -1.8553 -2.7300
   12MOL   H260 6002   7.262   3.505   2.606  0.6657  0.1070  0.5380
   12MOL   H261 6003   7.444   3.328   2.617 -0.1833 -0.4001  0.2526
   12MOL   C262 6004   6.977   2.948   2.880 -0.3600  0.1387  0.8149
   12MOL   C263 6005   6.863   2.848   2.923  0.0556  0.2671  0.6876
   12MOL   N264 6006   6.894   2.707   2.890 -0.2983  0.4212 -0.1758
   12MOL   C265 6007   6.844   2.640   2.774 -0.5523 -0.5301 -1.0520
   12MOL   C266 6008   6.920   2.516   2.753 -0.2771 -0.6267 -0.1040
   12MOL   C267 6009   6.888   2.433   2.642 -0.3331 -0.3057 -0.5077
   12MOL   C268 6010   6.790   2.476   2.546 -0.7296  0.0763 -0.5579
   12MOL   C269 6011   6.714   2.596   2.567  0.8027  0.3691  0.4166
   12MOL   C270 6012   6.741   2.675   2.680 -0.4371 -0.1518 -0.5990
   12MOL   C271 6013   7.016   2.514   2.860 -1.1416  0.8284  0.0515
   12MOL   C272 6014   6.994   2.627   2.942 -0.4182 -0.7782 -0.2874
   12MOL   C273 6015   7.077   2.654   3.057  0.7295  0.2405  1.1992
   12MOL   C274 6016   7.183   2.569   3.096  0.7467  0.5075 -0.2776
   12MOL   C275 6017   7.207   2.462   3.012 -0.2628 -0.1805  0.4562
   12MOL   C276 6018   7.129   2.429   2.902  0.0868  0.4084  0.1758
   12MOL   H277 6019   7.053   2.938   2.957 -0.3230 -1.5215  0.5825
   12MOL   H278 6020   6.942   3.052   2.881 -0.3257  0.1658 -0.3685
   12MOL   H279 6021   6.772   2.870   2.868 -0.9931 -2.6292  1.1931
   12MOL   H280 6022   6.946   2.343   2.627 -1.1537 -0.7608 -1.0342
   12MOL   H281 6023   6.755   2.411   2.467 -0.8762  1.2652 -1.4875
   12MOL   H282 6024   6.630   2.623   2.505  1.5852 -1.3433 -1.4790
   12MOL   H283 6025   6.687   2.767   2.696  1.8670  1.1380  0.0117
   12MOL   H284 6026   7.056   2.747   3.108 -1.5973  0.3316  0.1380
   12MOL   H285 6027   7.247   2.587   3.181 -0.4553  2.5398  0.2141
   12MOL   H286 6028   7.277   2.385   3.040  3.1815  1.9252 -2.0247
   12MOL   H287 6029   7.159   2.343   2.843 -0.6283 -0.0103  0.4270
   12MOL   C288 6030   6.809   2.871   3.068  0.1877  0.4527  0.2187
   12MOL   C289 6031   6.748   2.737   3.133 -0.4524  0.4698  0.8196
   12MOL   N290 6032   6.714   2.751   3.268 -0.0299  0.0959  0.1193
   12MOL   C291 6033   6.771   2.681   3.374  0.1037  0.1571  0.0903
   12MOL   C292 6034   6.711   2.727   3.498  0.1668  0.7818  0.1209
   12MOL   C293 6035   6.760   2.674   3.624  0.0879  0.1658 -0.1403
   12MOL   C294 6036   6.859   2.577   3.628 -0.0839 -0.2443 -0.7403
   12MOL   C295 6037   6.908   2.526   3.507  0.2509  0.2030 -0.4734
   12MOL   C296 6038   6.868   2.577   3.381 -0.2000 -0.2534 -0.6171
   12MOL   C297 6039   6.614   2.826   3.460 -0.0532 -0.3004 -0.7608
   12MOL   C298 6040   6.624   2.848   3.322  0.4030 -0.3055 -0.0487
   12MOL   C299 6041   6.537   2.937   3.254  0.1163 -0.1108  0.2719
   12MOL   C300 6042   6.430   3.002   3.327 -0.5078  0.0710  0.7072
   12MOL   C301 6043   6.426   2.990   3.465 -0.3003  0.2406  0.4758
   12MOL   C302 6044   6.519   2.910   3.528  0.2261  0.3374 -0.7762
   12MOL   H303 6045   6.883   2.906   3.140  0.2303  2.0090 -0.5663
   12MOL   H304 6046   6.726   2.942   3.067  0.3404  0.6302 -0.7659
   12MOL   H305 6047   6.823   2.659   3.146 -1.3356  0.0266  3.4969
   12MOL   H306 6048   6.717   2.710   3.717  1.1471  1.2181 -0.0506
   12MOL   H307 6049   6.893   2.522   3.714 -2.5814 -0.5901  0.0770
   12MOL   H308 6050   6.981   2.447   3.515 -0.3699 -0.0538  3.4618
   12MOL   H309 6051   6.922   2.527   3.302 -1.1968 -1.3570 -0.6090
   12MOL   H310 6052   6.529   2.944   3.147 -0.0532  0.1973  0.3038
   12MOL   H311 6053   6.355   3.055   3.270  0.1359  0.3895  0.1518
   12MOL   H312 6054   6.354   3.043   3.525  1.9219 -0.5682  3.9995
   12MOL   H313 6055   6.509   2.894   3.634 -1.9603 -1.2678 -1.2025
   12MOL   C314 6056   6.630   2.677   3.054  0.3002  0.0651 -0.1475
   12MOL   C315 6057   6.619   2.521   3.057 -0.3214  0.1180  0.3471
   12MOL   N316 6058   6.584   2.462   3.185 -0.6071 -0.4737  0.8655
   12MOL   C317 6059   6.646   2.353   3.240  0.2393  1.1421  0.5235
   12MOL   C318 6060   6.574   2.306   3.354  0.6388 -0.6152  0.5140
   12MOL   C319 6061   6.603   2.187   3.421 -0.3783  0.0732  0.5606
   12MOL   C320 6062   6.717   2.114   3.381  0.2048  0.2255  0.2236
   12MOL   C321 6063   6.789   2.159   3.268 -0.1496 -0.3652 -0.2874
   12MOL   C322 6064   6.755   2.273   3.197 -0.6237  0.5755 -0.4771
   12MOL   C323 6065   6.464   2.400   3.370 -0.0028  1.1122  0.6319
   12MOL   C324 6066   6.469   2.495   3.263  0.3623 -0.3369  0.0340
   12MOL   C325 6067   6.363   2.590   3.247 -0.0462 -0.7458  0.0043
   12MOL   C326 6068   6.251   2.588   3.333 -0.5278  0.2594 -0.2773
   12MOL   C327 6069   6.247   2.500   3.436 -0.6489 -0.2759  0.3918
   12MOL   C328 6070   6.354   2.408   3.457 -0.4786 -0.4767 -0.3868
   12MOL   H329 6071   6.532   2.712   3.085 -0.5831 -2.1969 -0.3119
   12MOL   H330 6072   6.634   2.704   2.949 -1.7583  3.3586  0.5248
   12MOL   H331 6073   6.721   2.485   3.043 -0.7454 -0.5732 -1.0300
   12MOL   H332 6074   6.537   2.147   3.496  0.4013 -1.1423  0.6259
   12MOL   H333 6075   6.752   2.023   3.429 -0.0344 -0.4220 -0.8027
   12MOL   H334 6076   6.869   2.094   3.235  1.8078  1.8268  0.0555
   12MOL   H335 6077   6.817   2.279   3.109  1.3757  0.3279  0.8750
   12MOL   H336 6078   6.348   2.647   3.157 -0.0006 -2.4772 -1.1386
   12MOL   H337 6079   6.164   2.652   3.325  0.4613  1.6648  0.0232
   12MOL   H338 6080   6.164   2.510   3.505 -0.4811  2.1455  0.3091
   12MOL   H339 6081   6.363   2.346   3.545 -2.9172  0.6023  0.6672
   12MOL   C340 6082   6.528   2.472   2.940 -0.0765  0.9569  0.2687
   12MOL   C341 6083   6.524   2.319   2.909 -0.5102 -0.2761 -0.3691
   12MOL   N342 6084   6.409   2.284   2.837  0.2092 -0.1249  0.2823
   12MOL   C343 6085   6.316   2.188   2.883 -0.4376  0.2761  0.3086
   12MOL   C344 6086   6.223   2.158   2.781 -0.0590 -0.5206  0.0964
   12MOL   C345 6087   6.114   2.073   2.803 -0.1174  0.3186  0.1087
   12MOL   C346 6088   6.108   1.998   2.920 -0.0135 -0.4217 -0.0369
   12MOL   C347 6089   6.209   2.016   3.023  0.4417 -0.7981 -0.8345
   12MOL   C348 6090   6.306   2.117   3.006  0.2739  0.0628  0.0224
   12MOL   C349 6091   6.254   2.235   2.667 -0.0914  0.4064 -0.8936
   12MOL   C350 6092   6.364   2.316   2.706  0.4616 -0.4002 -0.3554
   12MOL   C351 6093   6.425   2.405   2.616 -0.3566 -0.3066  0.2056
   12MOL   C352 6094   6.364   2.427   2.489 -0.2235  0.1835 -0.8370
   12MOL   C353 6095   6.257   2.345   2.443 -0.0144  0.2581 -0.7269
   12MOL   C354 6096   6.211   2.248   2.532  0.2830  0.4110 -0.4499
   12MOL   H355 6097   6.427   2.501   2.970 -0.1750  0.1614  0.7066
   12MOL   H356 6098   6.536   2.538   2.854 -2.6621  0.4195 -0.4202
   12MOL   H357 6099   6.513   2.278   3.009  0.2106  1.4146  0.4253
   12MOL   H358 6100   6.040   2.071   2.725  0.2887  0.8736 -0.2916
   12MOL   H359 6101   6.034   1.919   2.928 -1.0996  0.5980  0.2012
   12MOL   H360 6102   6.204   1.950   3.109 -0.3481 -0.2214 -0.4350
   12MOL   H361 6103   6.388   2.124   3.076  0.4011  0.2158 -0.1401
   12MOL   H362 6104   6.502   2.476   2.646 -0.8780 -0.1562  1.1973
   12MOL   H363 6105   6.409   2.507   2.433 -0.0436  0.4329 -0.3321
   12MOL   H364 6106   6.223   2.351   2.340 -0.2759  1.3198 -0.5828
   12MOL   H365 6107   6.129   2.186   2.501 -0.6728  0.9655  0.9153
   12MOL   C366 6108   6.645   2.270   2.838  1.5051 -0.4374  0.3904
   12MOL   C367 6109   6.654   2.114   2.802  0.3069 -0.1651  0.4848
   12MOL   N368 6110   6.762   2.090   2.709 -0.4817  0.6206 -0.0044
   12MOL   C369 6111   6.738   2.071   2.573  0.2835 -0.4343  0.5403
   12MOL   C370 6112   6.859   2.012   2.520  1.1136  0.0733  0.3080
   12MOL   C371 6113   6.864   1.990   2.379  0.4965  0.2079 -0.6609
   12MOL   C372 6114   6.749   1.997   2.297 -0.8650  0.6307  0.8518
   12MOL   C373 6115   6.632   2.042   2.355 -0.4435 -0.2958 -0.6738
   12MOL   C374 6116   6.625   2.089   2.489 -0.0525 -0.0977 -0.7772
   12MOL   C375 6117   6.962   2.003   2.620 -0.2975  0.0646 -0.9053
   12MOL   C376 6118   6.905   2.071   2.735  1.1668  0.1559 -0.2220
   12MOL   C377 6119   6.983   2.100   2.847 -0.0747  0.2796  0.1653
   12MOL   C378 6120   7.113   2.051   2.849  0.5076 -0.4703 -0.4821
   12MOL   C379 6121   7.171   1.989   2.743  0.6942  0.2462  0.6176
   12MOL   C380 6122   7.092   1.954   2.633 -0.6224 -0.0665  0.2568
   12MOL   H381 6123   6.663   2.323   2.745 -0.0993 -1.5526 -0.5670
   12MOL   H382 6124   6.732   2.294   2.900  0.7905  0.4441  1.0677
   12MOL   H383 6125   6.568   2.088   2.739  2.1972  0.4518 -2.4558
   12MOL   H384 6126   6.954   1.956   2.330  1.5811  0.5589  1.0848
   12MOL   H385 6127   6.749   1.959   2.196  0.7704  0.6327  0.8469
   12MOL   H386 6128   6.539   2.053   2.302  0.8603  0.6841 -2.8331
   12MOL   H387 6129   6.532   2.137   2.517  0.3254  0.0219  0.2970
   12MOL   H388 6130   6.948   2.144   2.939  1.8760 -1.7849  1.9458
   12MOL   H389 6131   7.174   2.082   2.933  1.2350  0.3141 -1.2839
   12MOL   H390 6132   7.274   1.957   2.744  0.1835 -1.4534  1.2428
   12MOL   H391 6133   7.131   1.891   2.554 -0.9788  0.2709 -0.1944
   12MOL   C392 6134   6.645   2.028   2.924 -0.2277  0.5867 -0.1312
   12MOL   C393 6135   6.674   1.885   2.899 -0.0472  0.4095  0.2952
   12MOL   N394 6136   6.694   1.810   3.021  0.0618  0.5468 -0.4040
   12MOL   C395 6137   6.816   1.761   3.070 -0.3120 -0.2163 -0.3690
   12MOL   C396 6138   6.787   1.696   3.196 -0.7752  0.5059  0.9000
   12MOL   C397 6139   6.897   1.642   3.264  0.4076  0.0446 -0.0311
   12MOL   C398 6140   7.031   1.655   3.226 -1.2857 -0.3521  0.3500
   12MOL   C399 6141   7.058   1.722   3.101  0.4578  0.4165  0.5729
   12MOL   C400 6142   6.953   1.782   3.029  0.1126  0.2863 -0.3253
   12MOL   C401 6143   6.645   1.699   3.215 -0.6577  0.4045 -0.5956
   12MOL   C402 6144   6.596   1.779   3.108  0.6085  0.8040  1.0771
   12MOL   C403 6145   6.456   1.803   3.102 -0.4013  0.0480  0.0158
   12MOL   C404 6146   6.370   1.746   3.201  0.1414 -0.4586  0.0450
   12MOL   C405 6147   6.420   1.652   3.292  0.1777  0.6307 -1.3202
   12MOL   C406 6148   6.556   1.634   3.306  0.1538 -0.2633  0.4540
   12MOL   H407 6149   6.718   2.059   2.999  2.0395 -0.8478 -1.7047
   12MOL   H408 6150   6.542   2.032   2.961 -0.2076 -0.6543  0.0528
   12MOL   H409 6151   6.773   1.885   2.853 -0.8422 -1.7127 -1.5640
   12MOL   H410 6152   6.877   1.589   3.356 -4.6856  1.8379  0.0455
   12MOL   H411 6153   7.107   1.618   3.293  0.2918 -0.4237 -1.4440
   12MOL   H412 6154   7.159   1.736   3.064  0.4830  0.7444  0.7682
   12MOL   H413 6155   6.987   1.833   2.940 -2.4028  0.2707 -1.3340
   12MOL   H414 6156   6.420   1.860   3.017 -0.8580  1.6528  1.2402
   12MOL   H415 6157   6.265   1.769   3.191 -0.0421 -1.1325  0.4379
   12MOL   H416 6158   6.350   1.616   3.367  1.4415 -0.5881 -0.6956
   12MOL   H417 6159   6.591   1.574   3.389  0.5423  0.2164  0.6432
   12MOL   C418 6160   6.597   1.804   2.787 -0.5776 -0.3840  0.2074
   12MOL   C419 6161   6.639   1.664   2.753 -0.0367 -0.0168  0.0917
   12MOL   N420 6162   6.539   1.596   2.670 -0.0498 -0.3761  0.1292
   12MOL   C421 6163   6.437   1.507   2.714 -0.5444 -0.8822 -0.2662
   12MOL   C422 6164   6.358   1.468   2.605  0.3873  0.0317 -0.4673
   12MOL   C423 6165   6.254   1.376   2.633 -0.4271 -0.0160  0.3270
   12MOL   C424 6166   6.218   1.341   2.763 -0.1812  0.4453 -0.1572
   12MOL   C425 6167   6.297   1.385   2.872  0.3214 -0.6374 -0.6761
   12MOL   C426 6168   6.406   1.470   2.849 -0.6289  1.0306  0.1910
   12MOL   C427 6169   6.409   1.539   2.491 -0.2344 -0.2070  0.1463
   12MOL   C428 6170   6.514   1.625   2.533 -0.8572  0.3684 -0.3065
   12MOL   C429 6171   6.566   1.717   2.446  0.1471 -0.1030 -0.7311
   12MOL   C430 6172   6.519   1.725   2.315  0.0490  0.7513  1.1475
   12MOL   C431 6173   6.433   1.627   2.268 -0.8579  0.0430 -0.4750
   12MOL   C432 6174   6.375   1.534   2.356  0.1195  0.4583 -0.0676
   12MOL   H433 6175   6.491   1.813   2.809 -0.8904  1.4042 -1.7814
   12MOL   H434 6176   6.602   1.860   2.693 -1.0840 -2.0356 -0.8290
   12MOL   H435 6177   6.632   1.595   2.837 -0.2717 -1.2924 -0.9528
   12MOL   H436 6178   6.192   1.347   2.550 -0.7318  0.4299  0.3944
   12MOL   H437 6179   6.141   1.272   2.794  1.3328 -0.2553  2.1941
   12MOL   H438 6180   6.259   1.360   2.970 -0.1042  0.0279 -0.6730
   12MOL   H439 6181   6.475   1.503   2.925  2.1259 -1.7552 -0.9642
   12MOL   H440 6182   6.651   1.778   2.472 -0.2217  0.2883 -0.4460
   12MOL   H441 6183   6.552   1.808   2.253 -1.1438  0.3523 -0.0635
   12MOL   H442 6184   6.405   1.623   2.164 -2.8368 -1.9671  0.1148
   12MOL   H443 6185   6.293   1.474   2.317 -0.9133  1.1603  0.9868
   12MOL   C444 6186   6.782   1.681   2.693 -0.7190 -0.4801 -0.4188
   12MOL   C445 6187   6.825   1.549   2.616  0.4422  0.3011  0.2396
   12MOL   N446 6188   6.965   1.561   2.553  0.0254 -0.9095  0.1322
   12MOL   C447 6189   6.988   1.560   2.415 -0.1062 -0.2125 -0.6313
   12MOL   C448 6190   7.130   1.560   2.392 -0.1583  0.1584 -0.4885
   12MOL   C449 6191   7.175   1.539   2.262 -0.6554  0.2041 -0.3794
   12MOL   C450 6192   7.081   1.535   2.154 -0.8393  0.4721  0.2826
   12MOL   C451 6193   6.945   1.543   2.175  0.0617  0.7612  0.0844
   12MOL   C452 6194   6.894   1.559   2.308  1.4842  0.4061 -0.6647
   12MOL   C453 6195   7.195   1.581   2.522  0.6254  0.2656 -0.5336
   12MOL   C454 6196   7.089   1.579   2.617  0.3792  0.4475  0.4472
   12MOL   C455 6197   7.122   1.602   2.754 -0.6683 -0.6123  0.3292
   12MOL   C456 6198   7.258   1.627   2.795  0.5840  0.3585  1.1713
   12MOL   C457 6199   7.357   1.629   2.697 -0.5121 -0.4276 -0.3539
   12MOL   C458 6200   7.332   1.594   2.559  0.4216  0.1896 -0.7806
   12MOL   H459 6201   6.788   1.768   2.628 -1.0768  0.1295  0.3560
   12MOL   H460 6202   6.855   1.702   2.772 -1.7648 -1.5160  0.8550
   12MOL   H461 6203   6.751   1.530   2.539  0.2064  4.2740 -0.5932
   12MOL   H462 6204   7.280   1.540   2.238 -0.8641  3.7276 -1.4094
   12MOL   H463 6205   7.122   1.521   2.055  1.0686  0.0554  1.1060
   12MOL   H464 6206   6.871   1.543   2.096 -1.6703 -1.0203  1.6583
   12MOL   H465 6207   6.786   1.548   2.314  1.5627  0.0979  0.2356
   12MOL   H466 6208   7.041   1.595   2.825 -1.2122 -3.4051 -0.4920
   12MOL   H467 6209   7.288   1.647   2.896  1.9789 -0.6304  0.9717
   12MOL   H468 6210   7.459   1.654   2.720 -0.9833  1.3676 -0.0758
   12MOL   H469 6211   7.410   1.606   2.486  0.9642  1.2815 -0.0134
   12MOL   C470 6212   6.819   1.424   2.706  0.2247  0.3595 -0.3860
   12MOL   C471 6213   6.895   1.296   2.654  0.2897 -0.2741 -0.2747
   12MOL   N472 6214   6.944   1.214   2.759  0.6192  0.0867 -0.0146
   12MOL   C473 6215   7.080   1.189   2.786 -0.6409 -0.0061 -0.8143
   12MOL   C474 6216   7.092   1.101   2.891  1.0746  0.8031  0.5476
   12MOL   C475 6217   7.220   1.062   2.933  0.6545 -0.0319 -0.2497
   12MOL   C476 6218   7.332   1.125   2.880  0.4427  0.4081 -0.1925
   12MOL   C477 6219   7.323   1.210   2.775  0.0905  0.2913 -0.2878
   12MOL   C478 6220   7.198   1.248   2.724  0.3917 -0.1472  1.1390
   12MOL   C479 6221   6.958   1.072   2.934 -0.3724  0.0858  0.5094
   12MOL   C480 6222   6.867   1.137   2.850 -0.2644  0.7006  0.1316
   12MOL   C481 6223   6.724   1.132   2.867 -0.5896  0.5575 -0.9404
   12MOL   C482 6224   6.672   1.046   2.969  0.1280  0.9594  0.2522
   12MOL   C483 6225   6.764   0.987   3.062 -0.1265 -0.6535 -0.0492
   12MOL   C484 6226   6.902   0.997   3.036 -0.0434  0.4013 -0.1948
   12MOL   H485 6227   6.850   1.442   2.808 -1.2513  2.8342 -0.3257
   12MOL   H486 6228   6.713   1.403   2.721 -0.3811  2.4878 -1.5621
   12MOL   H487 6229   6.989   1.326   2.607  1.0298  1.2859  2.0681
   12MOL   H488 6230   7.248   0.997   3.014  0.2625 -1.4316 -1.2210
   12MOL   H489 6231   7.431   1.091   2.907 -0.2716 -1.5770 -0.0128
   12MOL   H490 6232   7.402   1.250   2.713  1.0650 -1.5673 -0.2634
   12MOL   H491 6233   7.196   1.309   2.636 -1.5239 -0.1720  1.1569
   12MOL   H492 6234   6.657   1.195   2.811 -2.0364  0.1600  0.3225
   12MOL   H493 6235   6.566   1.038   2.986  0.0528  0.9464 -0.2164
   12MOL   H494 6236   6.724   0.933   3.146  0.7108  1.0293  1.4583
   12MOL   H495 6237   6.969   0.955   3.109 -1.2773  1.3109  1.4922
   12MOL   C496 6238   6.817   1.225   2.536 -0.8492 -0.0574 -0.5997
   12MOL   C497 6239   6.873   1.090   2.491  0.3905  0.0914 -0.9688
   12MOL   N498 6240   6.790   1.030   2.385  0.4359  0.1714 -0.6069
   12MOL   C499 6241   6.698   0.926   2.399 -0.0249  0.4453  0.6140
   12MOL   C500 6242   6.639   0.902   2.269 -0.5969  0.3308  0.3910
   12MOL   C501 6243   6.529   0.812   2.259 -0.2841 -0.3364  0.4511
   12MOL   C502 6244   6.487   0.737   2.364  0.2712 -0.3731 -0.7400
   12MOL   C503 6245   6.542   0.756   2.493 -0.4121 -0.5072 -0.2357
   12MOL   C504 6246   6.643   0.852   2.506 -0.3417  0.2514  0.0994
   12MOL   C505 6247   6.699   1.001   2.181 -0.8726 -0.0663  0.0998
   12MOL   C506 6248   6.789   1.081   2.259  0.0955  0.8105 -0.0545
   12MOL   C507 6249   6.869   1.177   2.198  0.4604  0.5518  0.5347
   12MOL   C508 6250   6.863   1.198   2.066 -1.0234  0.4152  0.0481
   12MOL   C509 6251   6.781   1.117   1.981 -0.3507  0.2101 -0.2355
   12MOL   C510 6252   6.694   1.034   2.042 -0.1569 -0.1916  0.0703
   12MOL   H511 6253   6.719   1.191   2.568  0.2874 -2.2901  0.6555
   12MOL   H512 6254   6.793   1.293   2.454 -1.6821 -0.0452 -0.3495
   12MOL   H513 6255   6.878   1.027   2.580  1.9133 -1.3244 -2.0310
   12MOL   H514 6256   6.481   0.796   2.164  1.9032  0.6893 -0.8696
   12MOL   H515 6257   6.400   0.674   2.357 -0.6313  0.9067 -1.1997
   12MOL   H516 6258   6.503   0.697   2.575 -0.4536 -2.0877 -1.3678
   12MOL   H517 6259   6.683   0.866   2.605 -1.8751  1.3949  0.5623
   12MOL   H518 6260   6.942   1.232   2.256  0.6851  2.4973 -1.5228
   12MOL   H519 6261   6.933   1.264   2.017 -0.4290 -0.0842  0.2190
   12MOL   H520 6262   6.790   1.127   1.874 -0.4160  2.0655 -0.0942
   12MOL   H521 6263   6.624   0.975   1.984 -0.6218 -1.6014  2.0422
   12MOL   H522 6264   6.976   1.096   2.455  0.5930 -1.8932 -0.7710
   13MOL     C1 6265   6.988   4.462   1.245  0.1437 -0.0026  0.1353
   13MOL     C2 6266   7.104   4.441   1.152  0.2996  0.2503  0.4024
   13MOL     N3 6267   7.220   4.396   1.231  0.0096  0.0700  0.0848
   13MOL     C4 6268   7.319   4.481   1.277 -0.7102  0.0671  0.3779
   13MOL     C5 6269   7.409   4.408   1.356  0.4802 -0.6037  0.4282
   13MOL     C6 6270   7.515   4.474   1.415 -0.1835 -0.0974  0.5143
   13MOL     C7 6271   7.542   4.614   1.392 -0.5253  0.2996 -0.1018
   13MOL     C8 6272   7.452   4.680   1.308 -0.3920 -0.0933 -0.0150
   13MOL     C9 6273   7.335   4.616   1.259  0.2723 -0.3600 -0.2487
   13MOL    C10 6274   7.366   4.275   1.362 -0.2464  0.4463  0.7702
   13MOL    C11 6275   7.243   4.268   1.286 -1.0511  0.5864  0.2468
   13MOL    C12 6276   7.172   4.145   1.273  0.1058 -0.5630  0.6266
   13MOL    C13 6277   7.222   4.030   1.329  0.4580  0.0470 -0.1546
   13MOL    C14 6278   7.340   4.037   1.410 -0.2854  0.0612  0.0365
   13MOL    C15 6279   7.407   4.158   1.422 -0.5353 -0.0857  0.2861
   13MOL    H16 6280   6.904   4.513   1.198 -1.0907 -1.8741  0.2451
   13MOL    H17 6281   7.018   4.530   1.325  1.0684 -0.7978  0.4683
   13MOL    H18 6282   7.129   4.541   1.116  0.8868 -0.6962 -1.8814
   13MOL    H19 6283   7.580   4.421   1.482  0.2741  1.2064  1.1114
   13MOL    H20 6284   7.630   4.668   1.424 -0.2607 -0.3290  0.2192
   13MOL    H21 6285   7.466   4.784   1.284 -0.2919  0.2506  1.4954
   13MOL    H22 6286   7.277   4.680   1.194 -0.9093 -1.8036 -0.6245
   13MOL    H23 6287   7.085   4.137   1.210  0.2725 -0.0229  0.3172
   13MOL    H24 6288   7.176   3.933   1.322 -0.6350  0.6032 -0.8273
   13MOL    H25 6289   7.383   3.944   1.444 -0.9581 -0.6979 -1.1411
   13MOL    H26 6290   7.500   4.166   1.476  0.8206  0.2526 -2.0551
   13MOL    H27 6291   6.938   4.375   1.288 -0.3938  0.3665  0.2590
   13MOL    C28 6292   7.083   4.358   1.025  0.0128  0.0473  0.7330
   13MOL    C29 6293   7.211   4.343   0.933  0.0470  0.6531 -0.7753
   13MOL    N30 6294   7.252   4.203   0.915  0.0969  0.8461 -0.2653
   13MOL    C31 6295   7.376   4.150   0.958  0.1137 -0.9403 -0.5755
   13MOL    C32 6296   7.391   4.014   0.908 -0.1399 -0.1595 -0.2911
   13MOL    C33 6297   7.517   3.953   0.926 -0.6608 -0.0169 -0.0296
   13MOL    C34 6298   7.619   4.017   0.989 -0.6586  0.7283  0.2314
   13MOL    C35 6299   7.595   4.144   1.049 -1.1847 -0.4371  0.4764
   13MOL    C36 6300   7.478   4.212   1.035  0.3087 -0.7609  0.7981
   13MOL    C37 6301   7.272   3.977   0.839 -0.6370  0.1917  0.6300
   13MOL    C38 6302   7.189   4.096   0.845  0.2723 -0.5588 -0.1442
   13MOL    C39 6303   7.065   4.088   0.776  0.5373  0.1618  0.6420
   13MOL    C40 6304   7.028   3.970   0.705 -0.0778  0.7136  0.1763
   13MOL    C41 6305   7.108   3.848   0.709  0.1876 -0.8387  0.5915
   13MOL    C42 6306   7.231   3.864   0.771  0.2243  0.1205 -0.5251
   13MOL    H43 6307   7.056   4.255   1.048  1.7636 -0.4862  0.4215
   13MOL    H44 6308   6.997   4.400   0.973 -0.6234  0.4259  2.0824
   13MOL    H45 6309   7.296   4.383   0.989 -1.7029 -0.1780  2.6099
   13MOL    H46 6310   7.526   3.853   0.887 -0.7048 -0.1275  0.2379
   13MOL    H47 6311   7.719   3.977   0.988 -0.7661  0.3889  2.1252
   13MOL    H48 6312   7.669   4.198   1.107 -0.4721 -1.2429  0.3286
   13MOL    H49 6313   7.476   4.315   1.068 -0.4197 -0.3102 -0.6266
   13MOL    H50 6314   6.998   4.173   0.781 -0.6931 -0.6407 -1.4365
   13MOL    H51 6315   6.932   3.978   0.657 -0.2952 -0.0775  0.4739
   13MOL    H52 6316   7.074   3.752   0.673 -2.1035 -0.8016  2.5385
   13MOL    H53 6317   7.299   3.781   0.775 -0.1007 -0.1367 -0.3267
   13MOL    C54 6318   7.206   4.404   0.787  0.7805 -0.1189  0.1977
   13MOL    C55 6319   7.202   4.560   0.769 -0.0277  0.4868 -0.7553
   13MOL    N56 6320   7.298   4.642   0.844 -0.4055 -0.0254  0.6816
   13MOL    C57 6321   7.271   4.767   0.899  0.0111 -0.5312 -0.2585
   13MOL    C58 6322   7.387   4.814   0.967 -0.0935  0.4426  0.1050
   13MOL    C59 6323   7.377   4.939   1.032 -0.4176  0.3279  0.1760
   13MOL    C60 6324   7.261   5.013   1.036  0.1756  0.1205  0.5353
   13MOL    C61 6325   7.142   4.962   0.971  0.5577 -0.1381 -0.1641
   13MOL    C62 6326   7.150   4.838   0.901  0.1230 -0.5712  0.0464
   13MOL    C63 6327   7.495   4.727   0.938  0.4819  0.0747  0.8091
   13MOL    C64 6328   7.441   4.616   0.864  0.3633  0.1193  0.3187
   13MOL    C65 6329   7.526   4.510   0.813  0.3966  0.3218 -0.3663
   13MOL    C66 6330   7.660   4.515   0.858  0.1661  0.6920 -0.4271
   13MOL    C67 6331   7.714   4.625   0.930 -0.1453  0.8521  0.7542
   13MOL    C68 6332   7.631   4.731   0.973 -0.1694  0.4595 -0.1220
   13MOL    H69 6333   7.281   4.356   0.725  1.3433 -1.5834  1.9426
   13MOL    H70 6334   7.113   4.365   0.746 -0.8239  0.9027  2.7482
   13MOL    H71 6335   7.106   4.593   0.809  0.9687  0.2241  1.9866
   13MOL    H72 6336   7.467   4.977   1.078 -0.9768  1.5371  0.2941
   13MOL    H73 6337   7.261   5.108   1.086  0.0327  1.6641 -2.3144
   13MOL    H74 6338   7.047   5.014   0.970  1.1733  1.0178 -2.0911
   13MOL    H75 6339   7.057   4.808   0.854 -0.5792  0.5857  0.6820
   13MOL    H76 6340   7.487   4.430   0.752 -0.2537  1.5284 -1.5441
   13MOL    H77 6341   7.731   4.447   0.812 -1.1154 -0.0879 -1.3291
   13MOL    H78 6342   7.820   4.616   0.949 -0.5185 -1.0089  2.0684
   13MOL    H79 6343   7.683   4.810   1.024 -0.3313  0.8267 -0.5196
   13MOL    C80 6344   7.212   4.591   0.618 -0.0318  0.0419 -0.6769
   13MOL    C81 6345   7.089   4.548   0.530 -0.4747  0.0756 -0.4257
   13MOL    N82 6346   6.959   4.604   0.574 -0.4180  0.1704  0.0996
   13MOL    C83 6347   6.840   4.529   0.589 -0.0097  0.1992  0.4929
   13MOL    C84 6348   6.731   4.611   0.626  1.1444  0.4339  0.4053
   13MOL    C85 6349   6.602   4.552   0.639  0.1995  0.8308 -0.0003
   13MOL    C86 6350   6.590   4.411   0.626  0.7495 -0.2616 -0.2421
   13MOL    C87 6351   6.691   4.332   0.587 -0.3968  0.4628 -0.5428
   13MOL    C88 6352   6.815   4.391   0.577  0.5317  0.6687  0.5019
   13MOL    C89 6353   6.789   4.737   0.646  0.1852  0.0927  0.0865
   13MOL    C90 6354   6.928   4.740   0.604  0.0973 -0.2100 -0.4103
   13MOL    C91 6355   7.005   4.856   0.588  0.7375  0.1596 -0.6795
   13MOL    C92 6356   6.948   4.977   0.630 -0.0065 -0.1254  0.5669
   13MOL    C93 6357   6.817   4.981   0.684  0.7237  0.6196  0.2773
   13MOL    C94 6358   6.740   4.858   0.686 -1.2907 -0.1035 -0.0178
   13MOL    H95 6359   7.235   4.697   0.612  1.7208 -0.3371 -1.0718
   13MOL    H96 6360   7.301   4.541   0.581  0.1164  0.9761 -1.6155
   13MOL    H97 6361   7.074   4.440   0.534  0.5038 -0.0504 -0.0817
   13MOL    H98 6362   6.519   4.621   0.643  0.1450  0.7579  0.0894
   13MOL    H99 6363   6.495   4.364   0.649  0.7505  0.0386  0.3910
   13MOL   H100 6364   6.678   4.225   0.587  0.2342  0.3843 -0.5683
   13MOL   H101 6365   6.898   4.326   0.553  0.0475 -0.9835  3.1204
   13MOL   H102 6366   7.099   4.853   0.535  0.2326 -0.3354 -1.5529
   13MOL   H103 6367   6.997   5.073   0.627 -0.2383 -0.0135  0.2961
   13MOL   H104 6368   6.774   5.078   0.705 -2.4205 -0.7805  0.5889
   13MOL   H105 6369   6.640   4.867   0.725 -0.7091 -3.5225  2.4340
   13MOL   C106 6370   7.102   4.570   0.386 -0.4132 -0.1412 -1.1112
   13MOL   C107 6371   7.198   4.474   0.313 -0.6720  0.0675  0.2327
   13MOL   N108 6372   7.172   4.328   0.336  0.4329  0.6635 -0.1155
   13MOL   C109 6373   7.256   4.236   0.403  0.6558 -0.0652 -0.2567
   13MOL   C110 6374   7.205   4.096   0.404  0.4913  0.3723 -0.1924
   13MOL   C111 6375   7.289   3.990   0.448  0.0014 -0.6303 -0.2052
   13MOL   C112 6376   7.412   4.021   0.510  0.4032 -0.2179  0.3909
   13MOL   C113 6377   7.456   4.154   0.525 -0.6573  0.2858  0.1040
   13MOL   C114 6378   7.385   4.258   0.457 -0.0467 -0.0755  0.5726
   13MOL   C115 6379   7.074   4.108   0.344 -0.1204 -0.9386 -0.0062
   13MOL   C116 6380   7.058   4.251   0.308  0.0656 -0.2446  0.3788
   13MOL   C117 6381   6.937   4.292   0.248  0.6274 -0.6000 -0.1068
   13MOL   C118 6382   6.830   4.198   0.229 -0.5990  0.1230  0.0020
   13MOL   C119 6383   6.844   4.065   0.273  0.5611  0.8566  0.5566
   13MOL   C120 6384   6.963   4.020   0.330 -0.3455 -0.3864 -0.6135
   13MOL   H121 6385   7.005   4.559   0.338 -1.2803  1.3501  0.2380
   13MOL   H122 6386   7.133   4.673   0.373  0.1727 -0.0443  0.8436
   13MOL   H123 6387   7.294   4.494   0.361 -0.8085 -1.3141  1.1156
   13MOL   H124 6388   7.251   3.890   0.436 -1.6102 -0.1711  0.8624
   13MOL   H125 6389   7.474   3.944   0.554  1.5649  0.5363  0.1210
   13MOL   H126 6390   7.548   4.174   0.579 -0.5624 -0.0705  0.0713
   13MOL   H127 6391   7.427   4.358   0.462  0.2501 -0.0813 -1.3122
   13MOL   H128 6392   6.929   4.391   0.205  0.5158 -0.5092  0.1203
   13MOL   H129 6393   6.743   4.232   0.176 -1.1652 -3.8059 -1.7968
   13MOL   H130 6394   6.765   3.992   0.270  1.4772 -0.1277 -0.1233
   13MOL   H131 6395   6.979   3.915   0.348 -0.6658  0.0101  2.2700
   13MOL   C132 6396   7.214   4.500   0.165 -0.1877  0.2083  0.6245
   13MOL   C133 6397   7.291   4.626   0.124  0.2325  0.9854 -0.1317
   13MOL   N134 6398   7.432   4.619   0.165 -0.1086 -0.8448  0.1531
   13MOL   C135 6399   7.480   4.673   0.287 -0.8105 -0.4407  0.1187
   13MOL   C136 6400   7.618   4.633   0.306 -0.1386 -0.4254 -0.3183
   13MOL   C137 6401   7.679   4.665   0.429  0.3182 -0.1099  0.2871
   13MOL   C138 6402   7.610   4.736   0.525  0.1644 -0.4457 -0.4239
   13MOL   C139 6403   7.479   4.785   0.508 -0.6580  0.7238  0.5031
   13MOL   C140 6404   7.414   4.749   0.386  0.0188 -0.2321 -0.7658
   13MOL   C141 6405   7.650   4.560   0.192 -0.4460 -0.0329  0.0829
   13MOL   C142 6406   7.540   4.553   0.104  0.1278 -0.5005 -0.6670
   13MOL   C143 6407   7.543   4.487   8.207  0.1570  0.4502 -0.5542
   13MOL   C144 6408   7.657   4.415   8.171 -0.1982 -0.5218 -0.7089
   13MOL   C145 6409   7.766   4.420   0.025  0.3215  0.5952  0.4460
   13MOL   C146 6410   7.768   4.498   0.147  0.1668 -0.2341  0.2408
   13MOL   H147 6411   7.265   4.412   0.125 -1.2863  0.0084 -0.3583
   13MOL   H148 6412   7.113   4.497   0.124 -0.6608  1.4411  1.6359
   13MOL   H149 6413   7.252   4.697   0.197 -3.1622 -0.5399 -0.3972
   13MOL   H150 6414   7.779   4.629   0.449  0.7749  1.1302  0.2472
   13MOL   H151 6415   7.665   4.757   0.615  0.0054 -1.0431 -0.1822
   13MOL   H152 6416   7.416   4.843   0.574  0.8560  0.3773  2.2823
   13MOL   H153 6417   7.311   4.779   0.378 -0.1477 -0.2389  1.0407
   13MOL   H154 6418   7.452   4.479   8.150 -2.3807 -0.4628  3.4462
   13MOL   H155 6419   7.665   4.351   8.084  1.2526  0.6564 -1.4605
   13MOL   H156 6420   7.854   4.360   0.005 -1.5672 -1.4868 -2.0059
   13MOL   H157 6421   7.849   4.490   0.219  0.9874 -1.6125 -0.8122
   13MOL   C158 6422   7.257   4.664   8.210  0.2936  0.0189 -0.2746
   13MOL   C159 6423   7.121   4.729   8.189 -0.2069  0.0430  0.0179
   13MOL   N160 6424   7.055   4.790   0.081  0.3952 -0.2773  0.3245
   13MOL   C161 6425   6.936   4.752   0.142 -0.4566 -0.5097 -0.6973
   13MOL   C162 6426   6.893   4.856   0.233  0.3862 -0.3493  0.6590
   13MOL   C163 6427   6.766   4.850   0.300 -0.1824  0.2735  0.0023
   13MOL   C164 6428   6.684   4.749   0.275  0.8046  0.9637 -0.3342
   13MOL   C165 6429   6.719   4.644   0.183 -0.2912  0.4986  0.0214
   13MOL   C166 6430   6.840   4.656   0.107  0.2259 -0.2508  0.1540
   13MOL   C167 6431   6.999   4.955   0.243 -0.1017  0.6320  0.1185
   13MOL   C168 6432   7.100   4.909   0.153  0.1463 -0.2658 -0.3317
   13MOL   C169 6433   7.223   4.980   0.135 -0.0252  0.7720  0.4855
   13MOL   C170 6434   7.241   5.102   0.200  0.2585  0.0628  0.0807
   13MOL   C171 6435   7.137   5.159   0.279 -0.5705 -0.2597  0.5865
   13MOL   C172 6436   7.017   5.085   0.305  0.3170 -0.4862  0.3689
   13MOL   H173 6437   7.328   4.736   8.168  1.3474 -0.1336  1.2353
   13MOL   H174 6438   7.267   4.582   8.139  0.9517  0.3114 -0.5260
   13MOL   H175 6439   7.057   4.648   8.153 -0.0586 -1.3133  2.7357
   13MOL   H176 6440   6.725   4.924   0.367 -2.6516  0.0908 -1.2532
   13MOL   H177 6441   6.590   4.740   0.328 -0.7681  0.4533 -3.0993
   13MOL   H178 6442   6.643   4.568   0.172  0.1836 -0.0713  0.6902
   13MOL   H179 6443   6.865   4.590   0.026  0.3951  0.5110 -0.4186
   13MOL   H180 6444   7.298   4.923   0.083  0.2549  1.2954  0.3202
   13MOL   H181 6445   7.336   5.153   0.190  0.8207 -0.7436  1.2464
   13MOL   H182 6446   7.150   5.256   0.325 -1.5244  0.9768 -1.6850
   13MOL   H183 6447   6.948   5.126   0.377  2.8453  1.6270  1.6636
   13MOL   C184 6448   7.122   4.820   8.069  0.2498 -0.4707  0.1082
   13MOL   C185 6449   6.988   4.887   8.033 -0.1626  0.1049 -0.9472
   13MOL   N186 6450   7.012   4.987   7.932 -0.7222  0.0469  0.1381
   13MOL   C187 6451   7.012   5.122   7.955 -0.2733 -0.6895 -1.1935
   13MOL   C188 6452   7.023   5.198   7.840 -0.4246 -0.1334 -0.1613
   13MOL   C189 6453   7.014   5.339   7.845 -0.0706  0.4104 -0.3641
   13MOL   C190 6454   7.004   5.405   7.972 -0.2707 -0.1972 -0.3015
   13MOL   C191 6455   7.004   5.326   8.094  0.4902 -0.3837  0.5538
   13MOL   C192 6456   7.010   5.187   8.083  0.1616 -0.5283 -0.1529
   13MOL   C193 6457   7.039   5.103   7.731  0.1447 -0.4449  0.0516
   13MOL   C194 6458   7.046   4.974   7.796 -0.2701 -0.4458 -0.0381
   13MOL   C195 6459   7.071   4.852   7.720 -0.1998  1.5151 -0.0569
   13MOL   C196 6460   7.082   4.862   7.580 -0.1215  0.4857 -0.4753
   13MOL   C197 6461   7.077   4.990   7.519 -0.6281 -0.7501  0.5735
   13MOL   C198 6462   7.062   5.105   7.593 -0.1130  0.4257 -0.8500
   13MOL   H199 6463   7.196   4.898   8.085  0.7485 -0.9569  0.1972
   13MOL   H200 6464   7.149   4.753   7.988  1.0808 -1.5517  1.2512
   13MOL   H201 6465   6.965   4.939   8.126 -0.5285 -0.1295 -0.9107
   13MOL   H202 6466   7.012   5.400   7.756 -0.9065  0.6586 -0.1850
   13MOL   H203 6467   6.995   5.513   7.965  0.9205 -0.0923 -0.2462
   13MOL   H204 6468   7.013   5.378   8.188  1.8352  0.3552  0.0261
   13MOL   H205 6469   7.012   5.133   8.177 -0.2525  2.1155  1.4220
   13MOL   H206 6470   7.065   4.759   7.773 -1.7720  1.4506 -0.3331
   13MOL   H207 6471   7.100   4.776   7.518  1.6176  1.1228 -0.8889
   13MOL   H208 6472   7.084   5.000   7.412 -0.5788  0.9911  0.7314
   13MOL   H209 6473   7.060   5.197   7.538 -0.5215  0.0623 -1.4536
   13MOL   C210 6474   6.867   4.786   8.006  0.2215  0.2435 -0.1310
   13MOL   C211 6475   6.752   4.853   7.938  0.1255 -0.1576 -0.2217
   13MOL   N212 6476   6.661   4.755   7.870  0.7980  0.0565 -0.3326
   13MOL   C213 6477   6.660   4.725   7.735 -0.8160  0.1877  0.4111
   13MOL   C214 6478   6.552   4.628   7.719  0.0567  0.0197  0.1513
   13MOL   C215 6479   6.530   4.584   7.586  0.0368  0.7615 -0.1745
   13MOL   C216 6480   6.615   4.620   7.481  1.1217  0.4535  0.3665
   13MOL   C217 6481   6.707   4.729   7.498 -0.5830  0.5661  0.1824
   13MOL   C218 6482   6.734   4.777   7.627 -0.1553 -0.3945  0.5985
   13MOL   C219 6483   6.490   4.603   7.842 -0.0696 -0.7128  0.7642
   13MOL   C220 6484   6.567   4.675   7.935  0.0076  0.5370 -0.0976
   13MOL   C221 6485   6.537   4.664   8.073  0.6430  0.4480 -0.8490
   13MOL   C222 6486   6.439   4.577   8.120  0.0367  0.4962  0.6840
   13MOL   C223 6487   6.352   4.514   8.025 -0.7178 -0.0804  0.0575
   13MOL   C224 6488   6.375   4.526   7.887 -0.3165 -0.3978  0.3568
   13MOL   H225 6489   6.901   4.711   7.935  1.3929  1.0024 -0.3775
   13MOL   H226 6490   6.824   4.742   8.096  2.3125  0.1566  0.8489
   13MOL   H227 6491   6.800   4.910   7.857  1.8268 -1.5775 -0.2440
   13MOL   H228 6492   6.440   4.527   7.570  0.2635  0.0376  1.0594
   13MOL   H229 6493   6.588   4.578   7.385  0.7076  1.2518  0.1265
   13MOL   H230 6494   6.760   4.777   7.417  0.4412 -2.7684 -1.2187
   13MOL   H231 6495   6.782   4.873   7.642  0.4030 -0.8944  2.1474
   13MOL   H232 6496   6.597   4.705   8.152  1.7023 -0.0072 -1.4118
   13MOL   H233 6497   6.423   4.552   8.224 -0.8737 -0.6647  0.2674
   13MOL   H234 6498   6.268   4.453   8.053  1.1407 -1.9683  1.7179
   13MOL   H235 6499   6.313   4.476   7.814  0.9401 -0.8681 -0.4101
   13MOL   C236 6500   6.677   4.961   8.019 -0.1716 -0.2004 -0.4594
   13MOL   C237 6501   6.586   5.051   7.939 -0.2358  0.0044 -0.0697
   13MOL   N238 6502   6.450   5.005   7.939  0.4462  0.4092  0.4898
   13MOL   C239 6503   6.373   4.973   7.823 -0.2883 -0.0913  0.4640
   13MOL   C240 6504   6.233   4.949   7.857  0.1478 -0.1897 -0.2321
   13MOL   C241 6505   6.142   4.919   7.754  0.5963  0.6064 -0.0605
   13MOL   C242 6506   6.173   4.931   7.616 -0.2159 -0.0212 -0.3797
   13MOL   C243 6507   6.306   4.960   7.588 -0.1644  0.3215 -0.0834
   13MOL   C244 6508   6.409   4.975   7.684 -0.1488 -1.0525 -0.2047
   13MOL   C245 6509   6.226   4.956   7.999  0.2031  0.0692 -0.1299
   13MOL   C246 6510   6.358   4.999   8.045  0.4825 -0.5181 -0.4338
   13MOL   C247 6511   6.379   5.020   8.182 -0.2520 -0.5017 -0.0038
   13MOL   C248 6512   6.280   4.995   0.047  0.0644 -0.9904  0.6071
   13MOL   C249 6513   6.157   4.931   0.006  0.1604 -0.1884  0.4004
   13MOL   C250 6514   6.121   4.930   8.098 -0.0644  0.2732  0.3079
   13MOL   H251 6515   6.619   4.924   8.103  0.4968  1.2561  0.6729
   13MOL   H252 6516   6.749   5.022   8.073 -1.2419  0.2153  0.5303
   13MOL   H253 6517   6.623   5.046   7.837  1.7556 -0.9881  0.6790
   13MOL   H254 6518   6.044   4.889   7.788 -0.3664  0.9746 -2.3921
   13MOL   H255 6519   6.103   4.927   7.534 -0.4311  3.8984 -0.4631
   13MOL   H256 6520   6.330   4.964   7.483  0.4728 -1.7698 -0.0340
   13MOL   H257 6521   6.511   4.979   7.650  0.1421 -0.4647  0.7255
   13MOL   H258 6522   6.473   5.060   8.216 -0.5230  2.5682 -2.6250
   13MOL   H259 6523   6.286   5.017   0.152  1.6847 -0.6466  0.4481
   13MOL   H260 6524   6.068   4.916   0.066  0.4237  0.0057  0.8383
   13MOL   H261 6525   6.024   4.889   8.073 -0.8205  1.3183  1.4395
   13MOL   C262 6526   6.593   5.198   7.967  0.4120 -0.2514  0.0881
   13MOL   C263 6527   6.518   5.285   7.869  0.1325 -0.9964  0.3099
   13MOL   N264 6528   6.467   5.418   7.929 -0.0504  0.5318 -0.0341
   13MOL   C265 6529   6.332   5.456   7.929  0.0430 -0.3284 -0.8678
   13MOL   C266 6530   6.321   5.590   7.972 -0.1516  0.3685  0.1487
   13MOL   C267 6531   6.196   5.661   7.983  0.0437  0.0311  0.1575
   13MOL   C268 6532   6.081   5.595   7.935  0.2558 -0.7188  1.1571
   13MOL   C269 6533   6.093   5.464   7.875 -0.2608 -0.2919 -0.0253
   13MOL   C270 6534   6.212   5.389   7.886 -0.0980 -0.2744  0.3951
   13MOL   C271 6535   6.450   5.637   8.004  0.3850 -0.5269 -0.4567
   13MOL   C272 6536   6.538   5.525   7.983 -0.6975 -0.2698  0.9542
   13MOL   C273 6537   6.677   5.530   8.006  0.9544 -0.6611 -0.1970
   13MOL   C274 6538   6.725   5.650   8.053  0.0377 -0.1002  0.0923
   13MOL   C275 6539   6.650   5.762   8.059 -0.1899 -0.8373 -0.5228
   13MOL   C276 6540   6.512   5.753   8.042  0.5102 -0.7741 -0.5065
   13MOL   H277 6541   6.540   5.215   8.061  2.6151  0.7554  1.1812
   13MOL   H278 6542   6.695   5.227   7.993  0.6651 -2.7657  1.9778
   13MOL   H279 6543   6.426   5.232   7.840 -0.1347 -0.6786  0.5765
   13MOL   H280 6544   6.202   5.765   8.012  0.9853 -0.4870  1.8560
   13MOL   H281 6545   5.990   5.653   7.939  1.5698  1.9358 -3.2787
   13MOL   H282 6546   6.014   5.402   7.835 -0.7836  0.4815 -0.2043
   13MOL   H283 6547   6.215   5.288   7.848  0.9084  0.1887 -0.7874
   13MOL   H284 6548   6.740   5.443   7.991  0.5203 -1.1422  0.7407
   13MOL   H285 6549   6.825   5.666   8.089 -0.4221  1.9536  0.4881
   13MOL   H286 6550   6.703   5.850   8.091 -1.3719 -0.1626 -0.3803
   13MOL   H287 6551   6.458   5.846   8.052 -1.5895 -1.6932 -2.6904
   13MOL   C288 6552   6.583   5.307   7.732  0.1929 -0.5481  0.5702
   13MOL   C289 6553   6.528   5.416   7.628  0.2018 -0.0731  0.3425
   13MOL   N290 6554   6.639   5.434   7.528  0.4484  0.0456  0.2324
   13MOL   C291 6555   6.706   5.555   7.511  0.4202 -0.2980 -1.4327
   13MOL   C292 6556   6.806   5.535   7.409  0.1026  0.4571 -0.5448
   13MOL   C293 6557   6.883   5.647   7.371 -0.0172  0.2911  0.1217
   13MOL   C294 6558   6.861   5.776   7.424  0.0742 -0.1147 -0.7899
   13MOL   C295 6559   6.772   5.794   7.531  0.8755  0.3051 -0.3646
   13MOL   C296 6560   6.693   5.683   7.574  0.4722 -0.2744 -0.5257
   13MOL   C297 6561   6.812   5.395   7.373 -0.2667 -0.7240 -0.1256
   13MOL   C298 6562   6.701   5.337   7.443 -0.4268 -0.2634  0.4999
   13MOL   C299 6563   6.667   5.203   7.421 -0.5280  0.4004 -0.9523
   13MOL   C300 6564   6.754   5.120   7.350  0.6318  0.6410  1.0446
   13MOL   C301 6565   6.873   5.173   7.293 -0.2930 -0.0333  0.0101
   13MOL   C302 6566   6.895   5.313   7.298 -0.1841 -0.5279 -0.0076
   13MOL   H303 6567   6.689   5.321   7.750 -0.2625  1.2931  1.9774
   13MOL   H304 6568   6.591   5.207   7.689  1.0701 -0.1040 -0.2888
   13MOL   H305 6569   6.528   5.505   7.690 -3.2439  0.4411 -0.3228
   13MOL   H306 6570   6.954   5.633   7.291  0.6786  0.6499  0.6817
   13MOL   H307 6571   6.926   5.859   7.400 -0.8670  0.9985  0.4594
   13MOL   H308 6572   6.761   5.886   7.586 -0.2491  0.2769 -0.5368
   13MOL   H309 6573   6.634   5.698   7.663  1.1608  1.2932 -0.3173
   13MOL   H310 6574   6.573   5.170   7.464 -0.3987 -1.5014 -2.0688
   13MOL   H311 6575   6.731   5.015   7.335  0.2138  1.0412 -1.2741
   13MOL   H312 6576   6.937   5.107   7.236 -0.5726  0.3831 -0.7901
   13MOL   H313 6577   6.992   5.338   7.257  0.4707  2.5546  3.2144
   13MOL   C314 6578   6.388   5.386   7.567  0.3573 -0.3405  0.3226
   13MOL   C315 6579   6.330   5.502   7.486  0.3577 -0.7925  0.5908
   13MOL   N316 6580   6.237   5.461   7.386 -0.5035  0.2741  0.2670
   13MOL   C317 6581   6.263   5.423   7.254 -0.3026 -0.8247 -0.6234
   13MOL   C318 6582   6.141   5.393   7.187 -0.9548  0.4511  0.3670
   13MOL   C319 6583   6.143   5.357   7.049 -0.3465  0.2498 -0.8602
   13MOL   C320 6584   6.268   5.360   6.980  0.0625  0.9763 -0.2571
   13MOL   C321 6585   6.387   5.403   7.039 -0.3492 -0.4859 -0.4300
   13MOL   C322 6586   6.382   5.427   7.179 -0.1727 -0.5308  0.1814
   13MOL   C323 6587   6.043   5.396   7.287  0.2619  0.6249 -0.0862
   13MOL   C324 6588   6.097   5.437   7.412 -0.9280 -0.0584 -0.1754
   13MOL   C325 6589   6.014   5.451   7.523 -1.4428  0.0744 -0.5296
   13MOL   C326 6590   5.879   5.417   7.516  0.1253  0.0187  0.9942
   13MOL   C327 6591   5.826   5.360   7.400 -0.4293  0.0232 -0.8797
   13MOL   C328 6592   5.908   5.353   7.285 -0.2130  0.9387  0.1638
   13MOL   H329 6593   6.397   5.300   7.500 -1.9344  0.4421 -1.0704
   13MOL   H330 6594   6.315   5.347   7.638  1.1968  0.1133  1.4423
   13MOL   H331 6595   6.417   5.538   7.432 -0.0516 -0.4338  0.1607
   13MOL   H332 6596   6.048   5.337   7.001 -0.2067 -1.3314 -0.4731
   13MOL   H333 6597   6.259   5.340   6.875  3.9675 -1.1148 -0.2754
   13MOL   H334 6598   6.469   5.413   6.970 -0.0151  1.0713  0.1689
   13MOL   H335 6599   6.474   5.458   7.227  0.0735  0.2189 -0.7447
   13MOL   H336 6600   6.059   5.474   7.618  1.5707 -0.1724 -1.8358
   13MOL   H337 6601   5.822   5.418   7.608  1.8849  0.0627  2.1130
   13MOL   H338 6602   5.725   5.321   7.399 -1.2719  2.1029  1.0147
   13MOL   H339 6603   5.860   5.316   7.195  2.0588  0.1464 -0.7492
   13MOL   C340 6604   6.290   5.616   7.576 -0.2123 -0.3883  0.2476
   13MOL   C341 6605   6.211   5.735   7.509  0.0983  0.3558  0.6315
   13MOL   N342 6606   6.173   5.836   7.613  0.2113  0.1715 -0.1042
   13MOL   C343 6607   6.044   5.850   7.667  0.5053 -0.4388  0.0056
   13MOL   C344 6608   6.045   5.947   7.768  0.2120  0.3328 -0.0538
   13MOL   C345 6609   5.914   5.984   7.824 -0.6966  0.2072  0.0756
   13MOL   C346 6610   5.802   5.919   7.785 -0.1161 -0.4692  0.0177
   13MOL   C347 6611   5.804   5.824   7.685 -0.2410  0.3273  0.2114
   13MOL   C348 6612   5.927   5.784   7.629  1.1802 -0.3309 -0.2549
   13MOL   C349 6613   6.185   5.988   7.787  0.2827 -1.0583  0.2839
   13MOL   C350 6614   6.261   5.912   7.689  0.1668  0.6963  0.3637
   13MOL   C351 6615   6.397   5.924   7.682  0.0092  0.5430  0.3764
   13MOL   C352 6616   6.467   6.017   7.765  0.1951  0.3944  0.2411
   13MOL   C353 6617   6.392   6.087   7.869  0.3031 -0.7201 -0.1635
   13MOL   C354 6618   6.255   6.077   7.869 -0.8962 -0.4681 -0.2744
   13MOL   H355 6619   6.227   5.579   7.657 -1.4599  2.5777  0.7026
   13MOL   H356 6620   6.381   5.651   7.625  0.9749 -1.0208 -1.4780
   13MOL   H357 6621   6.115   5.696   7.474  0.5018 -1.4652  1.4783
   13MOL   H358 6622   5.920   6.055   7.905  1.9119  0.5556 -0.3762
   13MOL   H359 6623   5.707   5.940   7.830  0.8544  1.4828  1.1979
   13MOL   H360 6624   5.712   5.778   7.655 -0.3654  0.0162  1.0668
   13MOL   H361 6625   5.935   5.713   7.548 -2.8292  1.2535 -2.1396
   13MOL   H362 6626   6.456   5.879   7.603  0.6965  0.5607  0.8814
   13MOL   H363 6627   6.574   6.015   7.755  0.0098  2.3818 -2.7603
   13MOL   H364 6628   6.441   6.151   7.941 -2.6107  0.9408  0.4505
   13MOL   H365 6629   6.209   6.153   7.931 -0.4458 -0.3031 -0.1403
   13MOL   C366 6630   6.279   5.800   7.389 -0.2418 -0.5079  0.3881
   13MOL   C367 6631   6.187   5.815   7.272  0.3802 -0.3106 -0.3394
   13MOL   N368 6632   6.066   5.894   7.301  0.6676 -0.0848  0.4143
   13MOL   C369 6633   5.934   5.851   7.293 -0.2556 -0.4076 -0.1554
   13MOL   C370 6634   5.848   5.966   7.305  0.1918 -0.5458 -0.4637
   13MOL   C371 6635   5.705   5.950   7.285  0.2767  0.1574 -0.2240
   13MOL   C372 6636   5.652   5.825   7.249  0.0586 -0.5891  0.3589
   13MOL   C373 6637   5.738   5.711   7.250 -0.5826  0.3079  0.1418
   13MOL   C374 6638   5.875   5.724   7.276 -0.4186 -0.3172  0.3116
   13MOL   C375 6639   5.932   6.078   7.338 -0.7964  0.3785  0.5721
   13MOL   C376 6640   6.069   6.030   7.336  0.1810  0.3321  0.0311
   13MOL   C377 6641   6.177   6.121   7.349  0.4523  0.7781  0.3168
   13MOL   C378 6642   6.149   6.255   7.371  0.1899 -0.0021 -0.1355
   13MOL   C379 6643   6.015   6.297   7.388  0.0006 -0.0423  0.6261
   13MOL   C380 6644   5.908   6.213   7.364  0.3059  0.1446  0.3790
   13MOL   H381 6645   6.326   5.895   7.413 -1.2047 -0.7996  3.6084
   13MOL   H382 6646   6.363   5.738   7.357 -2.1130 -3.5872  1.1891
   13MOL   H383 6647   6.158   5.711   7.255  2.1320 -1.1058  1.3142
   13MOL   H384 6648   5.645   6.040   7.298 -1.4266 -1.1026  0.8655
   13MOL   H385 6649   5.549   5.796   7.237 -0.1698 -0.0708  1.0694
   13MOL   H386 6650   5.698   5.611   7.240  3.0168 -1.0683 -1.1762
   13MOL   H387 6651   5.944   5.640   7.274 -0.0004  0.0350 -0.2086
   13MOL   H388 6652   6.279   6.087   7.339 -0.4306 -1.5443 -1.2584
   13MOL   H389 6653   6.228   6.329   7.377 -0.5138  0.6504  1.2340
   13MOL   H390 6654   5.995   6.403   7.401 -1.7037 -0.5292  1.9986
   13MOL   H391 6655   5.807   6.250   7.364  0.8940  1.7811  1.1620
   13MOL   C392 6656   6.259   5.847   7.141  0.4143 -0.5955  0.6231
   13MOL   C393 6657   6.178   5.858   7.010  0.5644 -0.0521  0.0950
   13MOL   N394 6658   6.262   5.898   6.900 -0.5589 -0.8391 -0.1826
   13MOL   C395 6659   6.278   6.032   6.853  0.4284 -0.3200 -0.0055
   13MOL   C396 6660   6.377   6.039   6.751  0.9002  0.4455  0.8444
   13MOL   C397 6661   6.408   6.164   6.691  0.1004  1.0815 -0.4934
   13MOL   C398 6662   6.341   6.280   6.736 -0.1268 -0.0301 -0.6982
   13MOL   C399 6663   6.240   6.273   6.822  0.1157 -0.3771 -0.4697
   13MOL   C400 6664   6.213   6.150   6.888  0.4277  0.4050 -0.3553
   13MOL   C401 6665   6.420   5.901   6.729  0.1737  0.3458 -0.1783
   13MOL   C402 6666   6.348   5.822   6.822  0.3919  0.1704  0.5146
   13MOL   C403 6667   6.373   5.679   6.816 -0.1660  0.2037  0.0217
   13MOL   C404 6668   6.464   5.627   6.729 -1.5109 -0.3720 -0.1441
   13MOL   C405 6669   6.544   5.705   6.642  0.6094 -0.1506  0.5846
   13MOL   C406 6670   6.522   5.841   6.644 -0.1745 -0.2350 -0.2578
   13MOL   H407 6671   6.324   5.934   7.142 -2.0261  1.3079 -0.8952
   13MOL   H408 6672   6.322   5.761   7.118 -0.3184 -0.8692 -0.4081
   13MOL   H409 6673   6.107   5.939   7.024  0.0935 -0.3065 -0.7953
   13MOL   H410 6674   6.484   6.161   6.615 -1.3124 -0.7973 -1.8640
   13MOL   H411 6675   6.363   6.374   6.689 -2.2302  1.1704  0.6246
   13MOL   H412 6676   6.185   6.361   6.850  0.1403 -0.8166  0.9940
   13MOL   H413 6677   6.129   6.160   6.954  0.9338 -0.4520  0.4298
   13MOL   H414 6678   6.322   5.619   6.890 -1.1276  0.4781 -0.4099
   13MOL   H415 6679   6.483   5.520   6.732  0.8518 -0.0584 -2.4633
   13MOL   H416 6680   6.618   5.667   6.574 -1.0093  2.3871 -2.7594
   13MOL   H417 6681   6.569   5.900   6.566 -0.8101  0.8051  0.1332
   13MOL   C418 6682   6.078   5.738   6.967 -0.6213  0.0719 -0.8631
   13MOL   C419 6683   6.004   5.757   6.834  0.0872 -0.1357 -0.4076
   13MOL   N420 6684   5.964   5.632   6.771 -0.6424 -0.4099  0.0130
   13MOL   C421 6685   6.008   5.584   6.644 -0.5618 -0.1689 -0.0701
   13MOL   C422 6686   5.945   5.460   6.607 -0.0032 -0.0100  0.4895
   13MOL   C423 6687   5.962   5.402   6.483  0.2781  0.0049 -0.3715
   13MOL   C424 6688   6.054   5.465   6.391  0.4546  0.3429  0.2047
   13MOL   C425 6689   6.121   5.580   6.431  0.3346 -0.6554 -0.4571
   13MOL   C426 6690   6.101   5.638   6.558 -0.5406 -0.3868  0.5331
   13MOL   C427 6691   5.856   5.431   6.721 -0.1996  0.1414 -0.4908
   13MOL   C428 6692   5.871   5.537   6.822 -0.1710 -1.0339  0.6510
   13MOL   C429 6693   5.797   5.533   6.942  0.0432 -0.3124 -0.3342
   13MOL   C430 6694   5.716   5.426   6.970 -0.1170 -0.1495 -0.0548
   13MOL   C431 6695   5.700   5.317   6.877  0.7620 -0.2015  0.1497
   13MOL   C432 6696   5.773   5.321   6.756 -0.1151  0.4341 -0.2829
   13MOL   H433 6697   6.138   5.647   6.957  0.7516  0.9671 -0.9379
   13MOL   H434 6698   6.000   5.717   7.040 -0.3196 -3.0171 -1.3262
   13MOL   H435 6699   6.077   5.799   6.765  0.6758  0.8399  0.7935
   13MOL   H436 6700   5.919   5.313   6.439  2.6337 -0.1278 -2.5289
   13MOL   H437 6701   6.048   5.428   6.290 -3.4429 -1.4692  1.0022
   13MOL   H438 6702   6.164   5.638   6.351 -0.5322  0.3260 -0.2126
   13MOL   H439 6703   6.154   5.731   6.576 -0.3278  0.1509 -2.6130
   13MOL   H440 6704   5.796   5.616   7.011  0.4879 -0.9149  0.4027
   13MOL   H441 6705   5.658   5.421   7.061 -1.0810  1.8383 -0.5095
   13MOL   H442 6706   5.626   5.241   6.896  0.5824  0.1800  1.0298
   13MOL   H443 6707   5.779   5.235   6.691  2.6976  0.0603  0.3967
   13MOL   C444 6708   5.889   5.861   6.837  0.3488 -0.1229 -0.1587
   13MOL   C445 6709   5.812   5.862   6.704  0.0968  0.0014 -0.2510
   13MOL   N446 6710   5.673   5.906   6.730  0.1323 -0.1308  0.7126
   13MOL   C447 6711   5.561   5.822   6.735 -0.3086  0.4231 -0.8100
   13MOL   C448 6712   5.440   5.902   6.740 -0.0661  0.0400 -0.1366
   13MOL   C449 6713   5.313   5.843   6.744 -0.0595 -0.2264 -0.1794
   13MOL   C450 6714   5.304   5.705   6.726 -0.1394 -0.4724 -0.1268
   13MOL   C451 6715   5.420   5.631   6.721  0.2709 -0.2559  0.4084
   13MOL   C452 6716   5.549   5.684   6.722 -0.6723 -0.1093 -0.4026
   13MOL   C453 6717   5.477   6.040   6.757 -0.2342 -0.5782 -0.0963
   13MOL   C454 6718   5.623   6.041   6.743  0.2966 -0.2027  0.4230
   13MOL   C455 6719   5.694   6.160   6.766 -0.7320  0.0610  1.0256
   13MOL   C456 6720   5.627   6.284   6.778  0.1307 -0.3001 -0.2994
   13MOL   C457 6721   5.485   6.286   6.784 -0.6881  0.5415  0.4399
   13MOL   C458 6722   5.411   6.164   6.772  0.4276 -0.8186 -0.4597
   13MOL   H459 6723   5.817   5.832   6.913  0.6413  0.7064  0.4323
   13MOL   H460 6724   5.928   5.961   6.855 -3.2058  1.5418 -1.3285
   13MOL   H461 6725   5.792   5.759   6.673 -0.5536  0.2001 -0.4761
   13MOL   H462 6726   5.228   5.904   6.769 -1.0389 -2.6466  2.6135
   13MOL   H463 6727   5.207   5.658   6.733  2.1610 -5.1795  3.1460
   13MOL   H464 6728   5.421   5.523   6.717  0.5676 -0.2033 -1.2960
   13MOL   H465 6729   5.637   5.623   6.718 -1.1884 -0.9865  1.2673
   13MOL   H466 6730   5.799   6.160   6.789 -0.3840 -2.5417 -0.4338
   13MOL   H467 6731   5.681   6.378   6.780  0.3333 -0.3909 -1.2071
   13MOL   H468 6732   5.436   6.382   6.789 -0.5326  0.6033  0.8236
   13MOL   H469 6733   5.304   6.152   6.780  0.3705  0.8094  1.7644
   13MOL   C470 6734   5.888   5.942   6.588  0.7072 -0.0628  0.1220
   13MOL   C471 6735   5.809   5.943   6.460 -0.4954 -0.3795 -0.0296
   13MOL   N472 6736   5.873   6.043   6.370  0.0318 -0.1824 -0.3787
   13MOL   C473 6737   5.822   6.176   6.353  0.5674 -0.5409 -0.0866
   13MOL   C474 6738   5.908   6.245   6.267 -0.1556  0.2269  0.0293
   13MOL   C475 6739   5.874   6.378   6.229 -0.3198 -0.5298 -0.3100
   13MOL   C476 6740   5.754   6.438   6.275 -0.0545 -0.3407 -0.8628
   13MOL   C477 6741   5.671   6.374   6.364 -0.8507  0.2688  0.4118
   13MOL   C478 6742   5.701   6.239   6.402  0.4135 -0.3071  0.1581
   13MOL   C479 6743   6.017   6.150   6.223 -0.5080 -0.1495  0.3656
   13MOL   C480 6744   5.988   6.027   6.284 -0.1072 -0.6928  0.7040
   13MOL   C481 6745   6.069   5.914   6.256  0.0784  0.6931  0.0407
   13MOL   C482 6746   6.180   5.922   6.171  0.2546 -0.5342 -0.0469
   13MOL   C483 6747   6.210   6.044   6.120  1.1340 -0.2782 -0.6602
   13MOL   C484 6748   6.132   6.158   6.144  0.7218 -0.2231 -0.6302
   13MOL   H485 6749   5.910   6.046   6.616 -1.4810 -0.0191  1.8356
   13MOL   H486 6750   5.986   5.896   6.577  1.6613  1.4340  1.8906
   13MOL   H487 6751   5.709   5.976   6.489 -0.3926 -0.8373  0.8628
   13MOL   H488 6752   5.950   6.433   6.175  1.9446 -0.0938  3.1110
   13MOL   H489 6753   5.734   6.540   6.244 -2.1212 -0.7502 -0.9351
   13MOL   H490 6754   5.583   6.421   6.406 -0.5498  0.2998  1.0106
   13MOL   H491 6755   5.639   6.175   6.464  1.9931 -3.7554 -1.6383
   13MOL   H492 6756   6.052   5.816   6.299 -1.1611  1.2627  0.8484
   13MOL   H493 6757   6.238   5.834   6.145  2.5771  0.8267  0.3240
   13MOL   H494 6758   6.290   6.061   6.050 -0.2183 -0.2449 -2.2484
   13MOL   H495 6759   6.150   6.250   6.091 -0.7873 -0.8903 -2.3511
   13MOL   C496 6760   5.805   5.797   6.401  0.1428 -0.3124 -0.0101
   13MOL   C497 6761   5.733   5.789   6.262 -0.4587  0.2797  0.1215
   13MOL   N498 6762   5.741   5.654   6.211 -0.0636 -0.7088  0.1424
   13MOL   C499 6763   5.666   5.543   6.256  0.1270  0.3886 -0.1040
   13MOL   C500 6764   5.719   5.427   6.195  0.1449 -0.0157 -0.3516
   13MOL   C501 6765   5.658   5.305   6.227 -0.1394  0.1796 -0.4492
   13MOL   C502 6766   5.543   5.300   6.314  0.1235 -0.1629 -0.5378
   13MOL   C503 6767   5.495   5.418   6.379 -0.5440  0.8488  0.0116
   13MOL   C504 6768   5.556   5.538   6.352 -0.7767  0.4242 -0.8937
   13MOL   C505 6769   5.827   5.468   6.114 -0.5811  0.6372  0.6625
   13MOL   C506 6770   5.838   5.604   6.121  0.4492  0.6825  1.2406
   13MOL   C507 6771   5.934   5.675   6.043  0.3198  0.8670 -0.6691
   13MOL   C508 6772   6.022   5.604   5.956 -0.2662  0.0239 -0.1090
   13MOL   C509 6773   6.025   5.466   5.963  0.3075  0.1705 -0.4130
   13MOL   C510 6774   5.924   5.396   6.034  0.3268 -1.3230 -0.7002
   13MOL   H511 6775   5.896   5.738   6.395  0.6636  0.4274  0.5761
   13MOL   H512 6776   5.747   5.739   6.472 -2.0300  0.3495 -1.1703
   13MOL   H513 6777   5.789   5.859   6.200  0.4134  0.5377  1.1749
   13MOL   H514 6778   5.689   5.215   6.176  0.2076  1.4042 -2.4210
   13MOL   H515 6779   5.504   5.206   6.351 -0.2228  0.4298  0.6429
   13MOL   H516 6780   5.411   5.407   6.445 -2.3966 -0.6975 -2.4768
   13MOL   H517 6781   5.514   5.629   6.392  0.9511  0.4641  0.8729
   13MOL   H518 6782   5.937   5.783   6.041  0.4063  0.8562 -1.5376
   13MOL   H519 6783   6.088   5.646   5.882 -0.5481  0.6023 -0.0277
   13MOL   H520 6784   6.096   5.414   5.900 -0.8784  1.5493 -2.9497
   13MOL   H521 6785   5.906   5.290   6.027 -1.5103 -1.0220 -0.7277
   13MOL   H522 6786   5.629   5.817   6.275 -1.2168 -1.8680 -1.0728
   14MOL     C1 6787   4.314   6.302   0.163  0.1277 -0.8205 -0.3442
   14MOL     C2 6788   4.224   6.340   0.040 -1.0477 -0.4566  0.2913
   14MOL     N3 6789   4.287   6.311   8.144  0.2776 -0.5569 -0.6555
   14MOL     C4 6790   4.323   6.411   8.054  0.0158 -0.0927 -0.4671
   14MOL     C5 6791   4.389   6.353   7.942 -0.2348  0.0954  0.2197
   14MOL     C6 6792   4.438   6.437   7.842 -0.5856  0.6128  0.3924
   14MOL     C7 6793   4.418   6.577   7.840 -0.2858  0.7487  0.4900
   14MOL     C8 6794   4.350   6.629   7.949 -0.2745 -0.0708  0.0156
   14MOL     C9 6795   4.302   6.554   8.058 -0.1189 -0.4290 -0.2629
   14MOL    C10 6796   4.389   6.212   7.963 -0.2776 -0.2156 -0.3588
   14MOL    C11 6797   4.331   6.195   8.092 -0.7957  0.1923  0.1661
   14MOL    C12 6798   4.323   6.061   8.146 -0.4717 -1.0463  0.3098
   14MOL    C13 6799   4.364   5.950   8.075  0.2753 -0.5107 -0.0444
   14MOL    C14 6800   4.426   5.967   7.949 -0.0731  0.1918 -0.2757
   14MOL    C15 6801   4.435   6.097   7.899  0.2753 -0.1822 -0.3371
   14MOL    H16 6802   4.334   6.196   0.178 -0.3160 -0.6605  1.5310
   14MOL    H17 6803   4.277   6.345   0.256  1.9932  1.1797 -0.5136
   14MOL    H18 6804   4.224   6.449   0.052  0.1207 -0.3089 -1.0149
   14MOL    H19 6805   4.476   6.387   7.754 -0.3025  0.4460  0.6110
   14MOL    H20 6806   4.451   6.632   7.754 -1.6057 -0.7134 -0.9808
   14MOL    H21 6807   4.323   6.734   7.952 -0.7594 -0.1059 -1.9727
   14MOL    H22 6808   4.259   6.595   8.148  1.3377 -2.6239  1.4794
   14MOL    H23 6809   4.276   6.044   0.014  0.8410  0.3930  1.2400
   14MOL    H24 6810   4.348   5.849   8.108  3.1662 -0.2888  2.2755
   14MOL    H25 6811   4.479   5.893   7.890  0.0141  1.6072 -2.0127
   14MOL    H26 6812   4.482   6.117   7.804  0.5787  1.4016  0.1366
   14MOL    H27 6813   4.411   6.346   0.142  0.0510  0.0888  1.1148
   14MOL    C28 6814   4.077   6.299   0.052 -0.3229 -0.4958 -0.3616
   14MOL    C29 6815   3.974   6.347   8.180 -0.0310  0.0732 -0.3331
   14MOL    N30 6816   3.937   6.248   8.079  0.3656 -0.2252  0.0663
   14MOL    C31 6817   3.956   6.251   7.939  0.0344  0.2318 -0.2345
   14MOL    C32 6818   3.902   6.135   7.874  0.1425 -0.3728  0.5855
   14MOL    C33 6819   3.922   6.118   7.737 -0.0839 -0.2148  0.6794
   14MOL    C34 6820   3.991   6.213   7.665 -0.6595  0.5158 -0.1056
   14MOL    C35 6821   4.049   6.324   7.728 -0.4530 -0.4712 -0.2158
   14MOL    C36 6822   4.028   6.350   7.865 -0.4295 -0.5636  0.0882
   14MOL    C37 6823   3.845   6.059   7.981  0.4341  0.2165 -0.3131
   14MOL    C38 6824   3.872   6.131   8.101 -0.9477  0.9902  0.4290
   14MOL    C39 6825   3.841   6.069   0.000  0.3201 -0.7032 -0.2633
   14MOL    C40 6826   3.780   5.946   0.008 -0.2741 -0.1633  0.4427
   14MOL    C41 6827   3.757   5.873   8.121  0.3295  0.2968 -0.0055
   14MOL    C42 6828   3.790   5.929   7.993  0.2670 -0.0879  0.0328
   14MOL    H43 6829   4.072   6.194   0.082 -0.9064 -0.6061 -0.8390
   14MOL    H44 6830   4.051   6.337   0.150  1.9557 -1.5243  0.6892
   14MOL    H45 6831   4.019   6.426   8.120  0.2704 -1.0234 -1.5908
   14MOL    H46 6832   3.884   6.026   7.696  1.5782 -0.7688  0.3359
   14MOL    H47 6833   4.001   6.192   7.559  1.1870  0.4717  0.0538
   14MOL    H48 6834   4.103   6.394   7.666  0.6608 -0.3720  0.8454
   14MOL    H49 6835   4.068   6.441   7.906  0.5544 -1.5441  1.3529
   14MOL    H50 6836   3.845   6.118   0.096 -1.5594 -0.7933 -0.1252
   14MOL    H51 6837   3.768   5.897   0.104 -0.2124 -2.1425 -0.5421
   14MOL    H52 6838   3.720   5.773   8.137 -2.0280  1.2777  0.9546
   14MOL    H53 6839   3.785   5.869   7.903  1.5675 -1.4415  0.8362
   14MOL    C54 6840   3.853   6.407   0.026  1.1325  0.4021 -0.0171
   14MOL    C55 6841   3.725   6.434   8.174 -0.1211 -0.1998  0.4845
   14MOL    N56 6842   3.629   6.491   0.039 -0.2127  0.5475 -0.6749
   14MOL    C57 6843   3.514   6.416   0.087 -0.0118  0.5825 -0.7328
   14MOL    C58 6844   3.445   6.498   0.175  1.0231  0.0117 -0.5803
   14MOL    C59 6845   3.331   6.444   0.243 -0.4422 -0.4485 -0.7390
   14MOL    C60 6846   3.288   6.310   0.219  0.0197  0.6753 -0.0016
   14MOL    C61 6847   3.352   6.234   0.120  0.0716 -0.2238 -0.3502
   14MOL    C62 6848   3.468   6.285   0.061 -0.1220 -0.1941  0.2938
   14MOL    C63 6849   3.518   6.627   0.195  0.0981  0.2158 -0.1172
   14MOL    C64 6850   3.628   6.618   0.104 -0.2065  0.1819  0.7634
   14MOL    C65 6851   3.720   6.729   0.098  0.1430  1.2025 -0.0699
   14MOL    C66 6852   3.703   6.841   0.178  0.1489 -0.5998 -0.3276
   14MOL    C67 6853   3.598   6.854   0.268  0.4932  0.3924 -0.4633
   14MOL    C68 6854   3.511   6.739   0.284 -0.6044 -0.2015 -0.0702
   14MOL    H69 6855   3.825   6.351   0.115 -0.8232  0.4926 -0.5535
   14MOL    H70 6856   3.869   6.497   0.086  0.4822  1.6708 -1.7268
   14MOL    H71 6857   3.695   6.332   8.148 -1.9563  0.1328  1.2065
   14MOL    H72 6858   3.271   6.506   0.307  2.8942  0.9381  1.1863
   14MOL    H73 6859   3.204   6.279   0.279  1.1468 -0.3388  1.1048
   14MOL    H74 6860   3.302   6.140   0.101 -1.8144  0.9177 -1.1616
   14MOL    H75 6861   3.511   6.232   8.205 -0.4510  1.3284 -0.8732
   14MOL    H76 6862   3.803   6.730   0.029  0.2571 -1.7597 -0.0579
   14MOL    H77 6863   3.784   6.912   0.165 -1.4198  0.8138 -2.6172
   14MOL    H78 6864   3.580   6.945   0.324 -1.9790  0.1114 -0.7118
   14MOL    H79 6865   3.430   6.736   0.356 -1.3390  1.0124 -0.8353
   14MOL    C80 6866   3.729   6.517   8.045 -0.6700 -0.2078 -0.6526
   14MOL    C81 6867   3.601   6.575   7.982  0.4342  0.4449 -0.3611
   14MOL    N82 6868   3.633   6.681   7.890  0.0289  0.5887  0.1005
   14MOL    C83 6869   3.594   6.815   7.903 -0.3759 -0.4050  0.0546
   14MOL    C84 6870   3.618   6.879   7.780 -1.0950  0.1314  1.0357
   14MOL    C85 6871   3.574   7.014   7.762 -1.4242 -0.0222 -0.6329
   14MOL    C86 6872   3.505   7.084   7.865  0.5362 -0.1802  1.0920
   14MOL    C87 6873   3.489   7.016   7.990  0.3724  0.1044  0.3849
   14MOL    C88 6874   3.529   6.883   8.009 -0.4372  0.8098 -0.3786
   14MOL    C89 6875   3.682   6.788   7.690 -0.3836  0.2448  0.7642
   14MOL    C90 6876   3.693   6.670   7.767  0.1435  0.2253  0.0497
   14MOL    C91 6877   3.739   6.550   7.704  0.5622  0.5586 -0.2185
   14MOL    C92 6878   3.783   6.555   7.568  1.2595 -0.2325  0.1968
   14MOL    C93 6879   3.779   6.673   7.487  0.4476  0.1888 -1.1389
   14MOL    C94 6880   3.725   6.786   7.558 -0.2591  0.0831 -0.0021
   14MOL    H95 6881   3.806   6.594   8.050 -1.0470  0.3300 -2.4358
   14MOL    H96 6882   3.791   6.466   7.972  0.3561 -0.3244  0.2846
   14MOL    H97 6883   3.541   6.621   8.060  1.6741  0.2103  0.7488
   14MOL    H98 6884   3.616   7.062   7.675 -1.3406  0.2626 -0.4402
   14MOL    H99 6885   3.456   7.178   7.844  0.9974 -0.1105  0.2971
   14MOL   H100 6886   3.430   7.066   8.066 -0.1909 -1.0639  0.7281
   14MOL   H101 6887   3.498   6.834   8.100 -1.3958 -0.0125 -1.1249
   14MOL   H102 6888   3.743   6.460   7.763  2.6675 -0.0711 -1.2568
   14MOL   H103 6889   3.830   6.470   7.521 -0.5172 -0.7522 -0.6641
   14MOL   H104 6890   3.824   6.671   7.389 -2.4119 -1.1126 -2.4976
   14MOL   H105 6891   3.717   6.880   7.506  0.8574 -0.4518 -1.1817
   14MOL   C106 6892   3.505   6.462   7.934 -0.3722  0.1351  0.1560
   14MOL   C107 6893   3.395   6.522   7.839 -0.2675  0.6514  0.1327
   14MOL   N108 6894   3.324   6.417   7.776  0.1647 -0.1804 -0.2320
   14MOL   C109 6895   3.308   6.405   7.633  0.0871 -0.0803  0.5663
   14MOL   C110 6896   3.213   6.305   7.605 -0.1386 -1.0243 -0.5151
   14MOL   C111 6897   3.180   6.280   7.473 -0.0959 -0.4217  0.3838
   14MOL   C112 6898   3.228   6.355   7.362  0.4635 -0.3199  0.0160
   14MOL   C113 6899   3.312   6.460   7.391 -1.1373  0.5239 -0.8099
   14MOL   C114 6900   3.360   6.480   7.522 -0.3570  0.1130 -0.7491
   14MOL   C115 6901   3.172   6.249   7.729  0.6870  0.0645  0.0835
   14MOL   C116 6902   3.251   6.310   7.833  0.2243  0.5632  0.6915
   14MOL   C117 6903   3.233   6.271   7.971 -0.2581 -0.0536 -0.1770
   14MOL   C118 6904   3.137   6.180   8.005 -0.4195  0.3994  1.0534
   14MOL   C119 6905   3.057   6.127   7.907 -0.4907  0.4011  0.3046
   14MOL   C120 6906   3.078   6.150   7.773  0.5245  0.2013 -0.4776
   14MOL   H121 6907   3.561   6.391   7.873 -1.2838 -1.8319  1.5549
   14MOL   H122 6908   3.477   6.391   8.011 -2.4604 -0.3280 -1.0001
   14MOL   H123 6909   3.439   6.588   7.764  2.7261 -1.2728  0.1056
   14MOL   H124 6910   3.107   6.204   7.448 -0.6653 -0.3999  1.9861
   14MOL   H125 6911   3.195   6.360   7.259  1.0663 -0.6081 -0.1978
   14MOL   H126 6912   3.343   6.524   7.311 -2.0961 -0.2941 -1.8518
   14MOL   H127 6913   3.435   6.555   7.543  0.3060 -0.1629 -2.1057
   14MOL   H128 6914   3.274   6.336   8.047 -0.8200  0.4341 -0.2862
   14MOL   H129 6915   3.114   6.160   8.109 -0.4561 -2.6035  0.5015
   14MOL   H130 6916   2.981   6.059   7.941  0.3239 -1.1748 -0.9478
   14MOL   H131 6917   3.018   6.102   7.697  1.6320 -2.4896  0.2908
   14MOL   C132 6918   3.294   6.609   7.911 -0.2995 -0.3035 -0.7164
   14MOL   C133 6919   3.191   6.679   7.821 -0.6169  0.3044  0.7574
   14MOL   N134 6920   3.077   6.725   7.893 -0.1489  0.2030 -0.3634
   14MOL   C135 6921   2.959   6.650   7.916  0.5932 -0.4980  0.7884
   14MOL   C136 6922   2.875   6.714   8.010  0.3001  0.1827  0.1312
   14MOL   C137 6923   2.759   6.652   8.051 -0.4451  0.2886  0.0265
   14MOL   C138 6924   2.737   6.516   8.020  0.7162  0.9673  0.4699
   14MOL   C139 6925   2.820   6.448   7.933  0.4113  0.0655 -0.2549
   14MOL   C140 6926   2.922   6.520   7.873  0.3985  0.2483  1.0489
   14MOL   C141 6927   2.927   6.847   8.031  0.4160  0.4806  0.4953
   14MOL   C142 6928   3.054   6.845   7.964 -0.0508  0.6226  0.5145
   14MOL   C143 6929   3.145   6.959   7.983  0.2876  0.3681  0.1304
   14MOL   C144 6930   3.098   7.076   8.043 -0.1763 -0.5153 -0.0187
   14MOL   C145 6931   2.973   7.074   8.099 -0.0915 -0.4372 -0.0879
   14MOL   C146 6932   2.889   6.962   8.107 -0.5355 -0.5447 -0.4350
   14MOL   H147 6933   3.242   6.540   7.978  2.2415 -1.5201  0.0507
   14MOL   H148 6934   3.348   6.684   7.968  0.4607 -1.7281  0.4894
   14MOL   H149 6935   3.157   6.600   7.753  1.1572 -0.1646  0.3973
   14MOL   H150 6936   2.685   6.707   8.108 -0.0710 -1.5367  2.3379
   14MOL   H151 6937   2.640   6.477   8.048  0.8483  0.9500  0.9057
   14MOL   H152 6938   2.802   6.349   7.893  0.7292  0.4122 -1.2634
   14MOL   H153 6939   2.986   6.465   7.806 -1.5349  1.6032 -1.9828
   14MOL   H154 6940   3.237   6.968   7.927 -0.9944 -1.1021 -2.3338
   14MOL   H155 6941   3.160   7.164   8.057 -0.3215 -0.9766  4.0555
   14MOL   H156 6942   2.952   7.163   8.157  0.5441 -0.2929 -0.0784
   14MOL   H157 6943   2.799   6.975   8.165 -0.3214  0.6339 -0.3509
   14MOL   C158 6944   3.252   6.777   7.721  0.5610 -0.3972  0.0695
   14MOL   C159 6945   3.152   6.863   7.641 -0.5714 -0.4466  0.3250
   14MOL   N160 6946   3.216   6.981   7.586  0.3930  0.1026  0.4901
   14MOL   C161 6947   3.175   7.117   7.612 -0.2995  0.3696 -0.3660
   14MOL   C162 6948   3.247   7.200   7.516  0.4344  0.1997 -0.1527
   14MOL   C163 6949   3.220   7.337   7.521  0.7438  0.1288 -0.3376
   14MOL   C164 6950   3.134   7.390   7.615 -0.3421 -0.5399  0.4370
   14MOL   C165 6951   3.059   7.310   7.699  0.4592 -0.7255  0.1636
   14MOL   C166 6952   3.077   7.173   7.695 -0.6614  0.1593  0.5958
   14MOL   C167 6953   3.337   7.121   7.446 -0.1261  0.0729  0.9548
   14MOL   C168 6954   3.317   6.986   7.490 -0.7456 -0.3372 -0.4017
   14MOL   C169 6955   3.395   6.883   7.428 -0.2838  0.2168 -1.3354
   14MOL   C170 6956   3.488   6.909   7.328  0.2153  0.1558 -0.5670
   14MOL   C171 6957   3.509   7.046   7.287  0.0952  0.9415  0.0163
   14MOL   C172 6958   3.438   7.151   7.349  0.0402  0.1004  0.3144
   14MOL   H173 6959   3.321   6.844   7.771 -0.8085 -0.1644  1.6603
   14MOL   H174 6960   3.312   6.720   7.649 -1.3800 -1.3184 -0.8411
   14MOL   H175 6961   3.071   6.898   7.705  0.2095 -0.0672  1.1118
   14MOL   H176 6962   3.262   7.402   7.446  0.1808 -0.0222 -0.7865
   14MOL   H177 6963   3.132   7.498   7.618 -0.7586 -0.5039 -0.8324
   14MOL   H178 6964   2.985   7.348   7.769 -0.2846 -1.8402 -0.0000
   14MOL   H179 6965   3.023   7.107   7.761 -1.2067 -0.6248 -0.6263
   14MOL   H180 6966   3.388   6.778   7.454 -1.0559  0.5182 -0.3068
   14MOL   H181 6967   3.538   6.829   7.276  2.6662  1.2787 -0.0072
   14MOL   H182 6968   3.577   7.066   7.206 -0.0278 -1.0501 -0.6034
   14MOL   H183 6969   3.450   7.254   7.319 -0.9088 -0.6033 -2.7025
   14MOL   C184 6970   3.085   6.774   7.537 -0.2087  0.5573 -0.9501
   14MOL   C185 6971   2.954   6.826   7.490  0.1011  0.9319 -0.6722
   14MOL   N186 6972   2.919   6.752   7.363 -0.4766 -0.6491  0.0692
   14MOL   C187 6973   2.929   6.807   7.230 -0.0601  0.4485  0.8118
   14MOL   C188 6974   2.923   6.697   7.138 -0.4135  0.3704 -0.6713
   14MOL   C189 6975   2.940   6.734   7.003 -0.9387  0.1008  0.6891
   14MOL   C190 6976   2.962   6.871   6.965  0.3635  0.5562  0.0447
   14MOL   C191 6977   2.958   6.975   7.058  0.1438 -0.1915  0.8626
   14MOL   C192 6978   2.948   6.938   7.191  0.6439 -0.5291  0.0258
   14MOL   C193 6979   2.897   6.574   7.214  0.7049 -0.2596  0.0074
   14MOL   C194 6980   2.897   6.610   7.352 -0.5262  0.0821  0.2122
   14MOL   C195 6981   2.886   6.509   7.453 -0.2229 -0.7147  0.4390
   14MOL   C196 6982   2.872   6.376   7.416  0.2437  0.1999 -0.3344
   14MOL   C197 6983   2.858   6.338   7.282  0.2868 -0.1372  0.2326
   14MOL   C198 6984   2.871   6.437   7.182  0.0852  1.0259  0.2004
   14MOL   H199 6985   3.160   6.766   7.459 -0.1813 -1.3140 -0.7743
   14MOL   H200 6986   3.062   6.675   7.579 -0.5542  1.5859  1.3448
   14MOL   H201 6987   2.968   6.932   7.472  3.3804  0.4764 -1.2067
   14MOL   H202 6988   2.925   6.650   6.937  0.7474  0.8849 -0.7437
   14MOL   H203 6989   2.964   6.895   6.859  0.4763 -1.3151 -0.4020
   14MOL   H204 6990   2.964   7.079   7.029  0.6219 -0.7309 -1.0153
   14MOL   H205 6991   2.966   7.016   7.264 -1.4509  0.2428 -0.2388
   14MOL   H206 6992   2.892   6.533   7.558  0.5100  1.1628  0.0028
   14MOL   H207 6993   2.864   6.301   7.493  0.4068 -0.2089 -0.7173
   14MOL   H208 6994   2.841   6.239   7.243  3.7146 -0.7747  0.2057
   14MOL   H209 6995   2.842   6.406   7.083 -0.4145 -1.0950  0.9835
   14MOL   C210 6996   2.835   6.808   7.599  0.8223 -0.8081 -0.2105
   14MOL   C211 6997   2.688   6.807   7.557  0.0023 -0.0556 -0.0840
   14MOL   N212 6998   2.616   6.761   7.670  0.1137 -0.1848 -0.2448
   14MOL   C213 6999   2.553   6.637   7.681 -0.4953 -0.5380 -0.3658
   14MOL   C214 7000   2.469   6.633   7.796  0.2335  0.7504  0.5389
   14MOL   C215 7001   2.392   6.519   7.825 -0.1711  0.0927  0.0393
   14MOL   C216 7002   2.382   6.410   7.743 -0.2694 -0.4060 -0.0250
   14MOL   C217 7003   2.461   6.415   7.625  0.3361 -0.0560  0.6161
   14MOL   C218 7004   2.542   6.533   7.586 -0.2537 -0.1217  0.4647
   14MOL   C219 7005   2.488   6.759   7.864  0.3592  0.2113 -0.4729
   14MOL   C220 7006   2.587   6.826   7.792  0.3893 -0.3817 -0.1725
   14MOL   C221 7007   2.624   6.955   7.838  0.4446  0.2747  0.0564
   14MOL   C222 7008   2.575   7.017   7.948  0.0566 -0.5445 -0.6082
   14MOL   C223 7009   2.474   6.954   8.023  0.4729  0.2809 -0.0791
   14MOL   C224 7010   2.435   6.824   7.982 -0.8549  0.1824 -0.2510
   14MOL   H225 7011   2.850   6.715   7.653  1.4065 -0.1494  0.7990
   14MOL   H226 7012   2.856   6.880   7.679 -1.3056 -0.1948 -0.1825
   14MOL   H227 7013   2.676   6.733   7.478  0.4772 -0.5582  0.3022
   14MOL   H228 7014   2.334   6.512   7.916 -1.3688  1.5380 -0.5888
   14MOL   H229 7015   2.324   6.322   7.767 -1.7479  0.9396  1.4865
   14MOL   H230 7016   2.456   6.333   7.555  0.1227  1.7598 -1.5816
   14MOL   H231 7017   2.602   6.527   7.496  2.5069 -1.2494  2.3239
   14MOL   H232 7018   2.701   7.010   7.785  1.0314  0.7863  1.4160
   14MOL   H233 7019   2.610   7.116   7.975 -1.5802 -0.4076  1.1966
   14MOL   H234 7020   2.444   7.005   8.113  0.9888  0.7954 -0.1918
   14MOL   H235 7021   2.363   6.760   8.031 -0.6732 -0.0275 -0.2566
   14MOL   C236 7022   2.646   6.942   7.498  0.3917 -0.1435  0.5595
   14MOL   C237 7023   2.492   6.970   7.502 -0.4786  0.2489  0.0331
   14MOL   N238 7024   2.457   7.106   7.480  0.0244 -0.0663  0.0812
   14MOL   C239 7025   2.379   7.188   7.571 -0.8463  0.9539  0.3273
   14MOL   C240 7026   2.353   7.315   7.508 -0.1217 -0.2564  0.8843
   14MOL   C241 7027   2.271   7.410   7.577 -0.3361 -0.2019  0.6496
   14MOL   C242 7028   2.224   7.388   7.706  0.5132 -0.0688 -1.0599
   14MOL   C243 7029   2.265   7.268   7.772  0.9156  0.4101 -0.4232
   14MOL   C244 7030   2.332   7.164   7.705 -0.6483 -0.5040  0.5637
   14MOL   C245 7031   2.420   7.310   7.378  0.8294  0.1390 -0.3699
   14MOL   C246 7032   2.478   7.180   7.365 -0.5781  0.3259  0.6877
   14MOL   C247 7033   2.536   7.143   7.239  0.5890  1.0938 -0.4719
   14MOL   C248 7034   2.536   7.227   7.130  0.1881 -0.6326 -0.4462
   14MOL   C249 7035   2.492   7.359   7.143 -0.1694 -0.3007 -0.5746
   14MOL   C250 7036   2.438   7.399   7.270 -1.1201 -0.0605  0.1232
   14MOL   H251 7037   2.700   7.025   7.545  0.7068 -1.2516  2.1824
   14MOL   H252 7038   2.661   6.935   7.390 -2.4070 -0.7771  0.1682
   14MOL   H253 7039   2.467   6.952   7.606  1.6779  0.3935  0.5959
   14MOL   H254 7040   2.247   7.502   7.525 -0.3122 -0.6996 -0.2562
   14MOL   H255 7041   2.158   7.456   7.757  0.4277 -0.6744 -0.3657
   14MOL   H256 7042   2.229   7.256   7.873  1.1958  1.8532 -0.1392
   14MOL   H257 7043   2.348   7.068   7.751  2.9807 -0.4925 -0.5777
   14MOL   H258 7044   2.585   7.048   7.223  0.3335  0.8779  0.0005
   14MOL   H259 7045   2.566   7.182   7.036  1.3103 -0.8958  0.0375
   14MOL   H260 7046   2.477   7.432   7.065 -1.3775  0.9095  0.7501
   14MOL   H261 7047   2.396   7.499   7.277  0.0504  0.5787 -1.8221
   14MOL   C262 7048   2.419   6.864   7.407  0.3810 -0.4721 -0.3390
   14MOL   C263 7049   2.277   6.898   7.355 -0.4665 -0.7236  0.1987
   14MOL   N264 7050   2.240   6.798   7.260 -0.1147  0.3018  0.8159
   14MOL   C265 7051   2.240   6.812   7.127  0.5191 -0.0570  0.8782
   14MOL   C266 7052   2.184   6.700   7.059  0.6376  0.4545 -0.2896
   14MOL   C267 7053   2.171   6.700   6.917 -0.3408  0.2258  0.1844
   14MOL   C268 7054   2.201   6.815   6.840 -0.0668 -0.2044 -0.0925
   14MOL   C269 7055   2.252   6.929   6.904  0.5161 -0.1211  0.5493
   14MOL   C270 7056   2.269   6.925   7.049  0.2589  0.4365  0.6603
   14MOL   C271 7057   2.157   6.609   7.168  0.7400  0.6261  0.2299
   14MOL   C272 7058   2.204   6.663   7.289  0.8406  0.0786 -0.0263
   14MOL   C273 7059   2.196   6.595   7.412  0.1598  0.5948  0.1966
   14MOL   C274 7060   2.144   6.465   7.420 -0.3553 -0.1660  0.1821
   14MOL   C275 7061   2.097   6.403   7.300  0.6922  0.0171  0.3963
   14MOL   C276 7062   2.105   6.477   7.176 -0.1573  0.1556  0.7561
   14MOL   H277 7063   2.479   6.831   7.322  0.1514  1.5072 -1.2911
   14MOL   H278 7064   2.411   6.771   7.463 -1.8807  0.4534  0.9348
   14MOL   H279 7065   2.282   6.990   7.297 -0.2493 -1.4905 -1.0047
   14MOL   H280 7066   2.135   6.614   6.863 -1.8136  0.5327  0.6509
   14MOL   H281 7067   2.185   6.809   6.733  2.3512  2.6827 -0.6619
   14MOL   H282 7068   2.291   7.008   6.842  1.8783 -1.2181 -0.0278
   14MOL   H283 7069   2.302   7.019   7.091 -0.1817  1.1833 -0.6567
   14MOL   H284 7070   2.238   6.630   7.505  0.5488 -1.6009  0.8978
   14MOL   H285 7071   2.133   6.415   7.515 -1.5753  0.2603  0.2768
   14MOL   H286 7072   2.054   6.305   7.307 -0.8166  0.5904 -0.5904
   14MOL   H287 7073   2.087   6.432   7.079  3.7661 -0.2254  0.1563
   14MOL   C288 7074   2.168   6.920   7.461  0.5001  0.0924  1.1378
   14MOL   C289 7075   2.038   6.982   7.405  1.3616  0.1972  0.0105
   14MOL   N290 7076   1.918   6.967   7.488 -0.0418 -0.0418  0.2918
   14MOL   C291 7077   1.798   6.918   7.443 -0.2662  0.4644 -0.3855
   14MOL   C292 7078   1.693   6.937   7.544 -0.0247 -0.3091 -0.6769
   14MOL   C293 7079   1.558   6.895   7.522 -0.4282  0.4768 -0.1040
   14MOL   C294 7080   1.525   6.843   7.396 -0.7879  0.2795 -0.0434
   14MOL   C295 7081   1.627   6.820   7.296 -0.4223  0.1758 -0.3864
   14MOL   C296 7082   1.767   6.843   7.327 -0.8952 -0.5370  0.0225
   14MOL   C297 7083   1.759   7.003   7.652 -0.0848  0.0260  0.4539
   14MOL   C298 7084   1.892   7.028   7.612  0.0169 -0.1322 -0.1672
   14MOL   C299 7085   1.980   7.099   7.700  0.1030  0.7116 -1.2150
   14MOL   C300 7086   1.928   7.159   7.823 -0.2380 -0.1795 -0.1863
   14MOL   C301 7087   1.794   7.140   7.856  0.6330 -0.3682  0.3027
   14MOL   C302 7088   1.717   7.054   7.781 -0.5268  0.0477 -0.0112
   14MOL   H303 7089   2.143   6.831   7.520 -1.2824  0.7104  1.3429
   14MOL   H304 7090   2.212   6.996   7.525 -2.0375  3.2418 -0.7426
   14MOL   H305 7091   2.013   6.923   7.317  0.8646 -1.3713  1.1773
   14MOL   H306 7092   1.485   6.911   7.600  0.4347 -1.4649  1.1446
   14MOL   H307 7093   1.420   6.825   7.375 -0.7216  1.2112 -1.2848
   14MOL   H308 7094   1.606   6.783   7.196 -0.8074  0.7464 -0.5183
   14MOL   H309 7095   1.838   6.823   7.248 -0.4157  1.7388 -0.1866
   14MOL   H310 7096   2.075   7.134   7.664 -0.0803  2.1798 -0.3346
   14MOL   H311 7097   1.999   7.220   7.878 -0.5381 -1.4497  1.6676
   14MOL   H312 7098   1.766   7.187   7.949 -0.0850 -0.1877 -0.0010
   14MOL   H313 7099   1.619   7.031   7.820 -0.2678 -1.3783 -0.1739
   14MOL   C314 7100   2.049   7.131   7.359 -0.3634 -0.0280  0.2586
   14MOL   C315 7101   1.949   7.171   7.252  0.1641  0.2671 -0.1415
   14MOL   N316 7102   1.922   7.321   7.246 -0.2193 -0.0178 -0.1994
   14MOL   C317 7103   1.804   7.382   7.293  1.0617  0.2708 -0.4961
   14MOL   C318 7104   1.804   7.518   7.259 -0.8004 -0.3931  0.8756
   14MOL   C319 7105   1.698   7.598   7.300 -0.6012 -0.8056 -0.4976
   14MOL   C320 7106   1.584   7.550   7.370  0.1058  0.4679 -0.0372
   14MOL   C321 7107   1.592   7.414   7.409  0.2907 -0.5916  0.1880
   14MOL   C322 7108   1.694   7.328   7.373 -0.5568  0.2183  0.9245
   14MOL   C323 7109   1.933   7.548   7.196 -0.1076  0.0591 -0.0636
   14MOL   C324 7110   2.004   7.419   7.196  0.6159 -0.4877  0.3038
   14MOL   C325 7111   2.130   7.416   7.133  0.5886  0.1489  0.0153
   14MOL   C326 7112   2.175   7.527   7.056  0.7232 -0.2222 -0.1456
   14MOL   C327 7113   2.101   7.646   7.060 -0.3950  0.0334  0.4385
   14MOL   C328 7114   1.987   7.662   7.132 -0.4408 -0.2993  0.1982
   14MOL   H329 7115   2.029   7.195   7.445 -1.2965  0.1103 -0.0477
   14MOL   H330 7116   2.153   7.146   7.331 -1.0028  3.5716 -0.4340
   14MOL   H331 7117   1.854   7.137   7.292 -0.8385  0.4210 -2.3302
   14MOL   H332 7118   1.698   7.704   7.282 -0.7835 -0.7103  0.0474
   14MOL   H333 7119   1.497   7.610   7.390  0.0193  0.0642  0.8264
   14MOL   H334 7120   1.508   7.370   7.460  1.1675  0.3776  2.5178
   14MOL   H335 7121   1.681   7.224   7.400  2.3738  0.3111  2.9155
   14MOL   H336 7122   2.187   7.325   7.141 -1.2133 -0.9198  1.0600
   14MOL   H337 7123   2.272   7.512   7.011  1.1942  0.7603  0.5309
   14MOL   H338 7124   2.136   7.731   7.002 -2.4368  1.5186  1.3069
   14MOL   H339 7125   1.939   7.759   7.140 -0.4079 -0.2445 -0.2734
   14MOL   C340 7126   1.971   7.104   7.116 -0.3310 -0.2149 -0.2371
   14MOL   C341 7127   1.840   7.058   7.047 -0.6564  0.8214  0.3694
   14MOL   N342 7128   1.753   7.163   6.999  0.7479 -0.4555  0.7828
   14MOL   C343 7129   1.626   7.187   7.055 -0.0038 -0.1488  0.0964
   14MOL   C344 7130   1.566   7.294   6.983 -0.6920 -0.6900 -0.0776
   14MOL   C345 7131   1.438   7.326   6.994 -0.3442  0.3828 -0.3254
   14MOL   C346 7132   1.360   7.265   7.094  0.3171  0.2457 -0.6823
   14MOL   C347 7133   1.416   7.176   7.187  0.4726 -0.2022 -0.5584
   14MOL   C348 7134   1.546   7.131   7.159 -0.0388 -0.5120 -0.7479
   14MOL   C349 7135   1.669   7.344   6.889  0.1356 -0.2083  0.1470
   14MOL   C350 7136   1.778   7.259   6.897 -0.8363 -0.4799 -0.7218
   14MOL   C351 7137   1.893   7.275   6.821  0.2411  0.6475  1.0489
   14MOL   C352 7138   1.899   7.372   6.726  0.0416 -0.9532 -0.2469
   14MOL   C353 7139   1.791   7.464   6.709  0.3722  0.3623 -0.3015
   14MOL   C354 7140   1.675   7.444   6.789 -0.4335 -0.1643  0.7579
   14MOL   H355 7141   2.021   7.173   7.049 -2.1595  1.9208  0.5039
   14MOL   H356 7142   2.025   7.010   7.128  1.1423  0.9256  2.6067
   14MOL   H357 7143   1.782   7.009   7.126  0.8267 -2.4052 -0.4877
   14MOL   H358 7144   1.397   7.405   6.933  0.4994  1.6323  0.6699
   14MOL   H359 7145   1.254   7.287   7.102  0.6137  1.7598 -0.6458
   14MOL   H360 7146   1.360   7.141   7.273  1.4799 -0.6728 -0.0904
   14MOL   H361 7147   1.588   7.053   7.220 -0.4511  0.0730  0.2890
   14MOL   H362 7148   1.981   7.212   6.824  0.3070  0.7259  0.7115
   14MOL   H363 7149   1.988   7.380   6.665 -0.6118  0.7697 -1.0189
   14MOL   H364 7150   1.801   7.545   6.638 -0.6834  1.8024  1.1324
   14MOL   H365 7151   1.598   7.519   6.786  0.2141  0.4824  0.0833
   14MOL   C366 7152   1.878   6.957   6.940 -0.4730  0.0183 -0.2105
   14MOL   C367 7153   1.766   6.905   6.848  0.0786  0.0380 -0.0822
   14MOL   N368 7154   1.833   6.840   6.732 -0.7617 -0.0817  0.2844
   14MOL   C369 7155   1.858   6.907   6.610  0.0797 -0.0602  0.3151
   14MOL   C370 7156   1.918   6.818   6.518  0.3132  0.3984  0.1905
   14MOL   C371 7157   1.942   6.868   6.384 -0.5605  0.2516  0.2763
   14MOL   C372 7158   1.909   6.997   6.343  0.0084 -0.1871  0.1446
   14MOL   C373 7159   1.850   7.084   6.440 -0.6783  0.1164  0.4137
   14MOL   C374 7160   1.830   7.044   6.574  0.0264  0.6647 -0.5865
   14MOL   C375 7161   1.934   6.693   6.588  0.1656 -0.7169  0.9958
   14MOL   C376 7162   1.874   6.706   6.718  0.6572  0.3082  0.4032
   14MOL   C377 7163   1.870   6.594   6.804 -0.6867 -0.0834  0.1211
   14MOL   C378 7164   1.912   6.473   6.760  0.7230  0.5263 -0.2724
   14MOL   C379 7165   1.975   6.453   6.633  0.2125 -0.1542 -0.1939
   14MOL   C380 7166   1.980   6.563   6.550  0.3561  0.0340  0.1587
   14MOL   H381 7167   1.958   7.005   6.883  0.4341 -0.1231  0.9281
   14MOL   H382 7168   1.917   6.864   6.982 -1.2815  0.0343  0.5935
   14MOL   H383 7169   1.714   6.986   6.797  2.0331  0.7067 -1.0662
   14MOL   H384 7170   1.980   6.802   6.307 -1.5832 -1.4187  1.1673
   14MOL   H385 7171   1.921   7.014   6.237  0.4069 -1.0467  0.0440
   14MOL   H386 7172   1.825   7.181   6.402 -1.4243 -0.3022 -0.1738
   14MOL   H387 7173   1.781   7.107   6.646  0.4507  0.4929 -0.1430
   14MOL   H388 7174   1.837   6.608   6.906 -0.8494  0.6687 -0.0332
   14MOL   H389 7175   1.912   6.395   6.835  0.8460  1.5875  0.8522
   14MOL   H390 7176   2.003   6.352   6.606  1.5382 -0.1600  1.1580
   14MOL   H391 7177   2.021   6.541   6.452  2.5288 -0.2545  1.0929
   14MOL   C392 7178   1.648   6.832   6.919  0.3571 -0.1319  0.2919
   14MOL   C393 7179   1.533   6.771   6.834 -0.0174 -0.6410  0.1043
   14MOL   N394 7180   1.434   6.690   6.907  0.4919 -0.3410 -0.0873
   14MOL   C395 7181   1.429   6.547   6.910 -0.6280 -0.4108 -0.1448
   14MOL   C396 7182   1.306   6.509   6.969  0.3840 -0.4582  0.3119
   14MOL   C397 7183   1.277   6.371   6.988  0.3433 -0.2268  0.0504
   14MOL   C398 7184   1.364   6.272   6.934  0.3171  0.0860  0.1548
   14MOL   C399 7185   1.481   6.310   6.872 -0.0325  0.0308 -0.0186
   14MOL   C400 7186   1.515   6.447   6.856  0.2678 -0.5650  0.2546
   14MOL   C401 7187   1.240   6.629   7.020  0.1498  0.0306  0.3732
   14MOL   C402 7188   1.328   6.737   6.984 -0.5495 -1.2708 -0.1967
   14MOL   C403 7189   1.295   6.870   7.028  0.5659 -0.6210  0.7746
   14MOL   C404 7190   1.168   6.895   7.089 -1.4189  0.4871  0.5081
   14MOL   C405 7191   1.081   6.786   7.116  0.4265  0.3821  0.3146
   14MOL   C406 7192   1.121   6.654   7.093 -0.1847  0.4513  0.6856
   14MOL   H407 7193   1.693   6.755   6.981 -0.2684 -0.8008 -0.0744
   14MOL   H408 7194   1.607   6.898   6.996  0.8637 -0.4467  0.8350
   14MOL   H409 7195   1.588   6.700   6.773 -0.7932 -0.0822 -1.2604
   14MOL   H410 7196   1.188   6.349   7.045  1.5175 -0.6822  1.7548
   14MOL   H411 7197   1.335   6.169   6.944  0.2581  0.0452 -0.4168
   14MOL   H412 7198   1.553   6.236   6.839 -0.8427 -0.1878 -1.3828
   14MOL   H413 7199   1.616   6.473   6.828  0.7735  0.4251  2.8745
   14MOL   H414 7200   1.356   6.954   6.997  1.1430 -0.1272  3.1030
   14MOL   H415 7201   1.133   6.996   7.110  1.5702  1.4517  1.1150
   14MOL   H416 7202   0.985   6.814   7.156  0.2840 -0.4548  0.5742
   14MOL   H417 7203   1.053   6.578   7.127  1.0198  0.4531  3.1708
   14MOL   C418 7204   1.475   6.875   6.737 -0.0303  0.2291  0.3243
   14MOL   C419 7205   1.348   6.837   6.657  0.0996  0.0908  0.5581
   14MOL   N420 7206   1.319   6.952   6.566 -0.0366 -0.1031 -0.2614
   14MOL   C421 7207   1.216   7.046   6.592  0.2166  0.5976 -0.0086
   14MOL   C422 7208   1.223   7.147   6.491 -0.1288 -0.5203  0.4501
   14MOL   C423 7209   1.128   7.246   6.491  0.2873 -0.2488  0.6022
   14MOL   C424 7210   1.025   7.249   6.589  0.6326 -0.5950  0.5509
   14MOL   C425 7211   1.020   7.150   6.694  0.7370  0.1309  1.1956
   14MOL   C426 7212   1.115   7.046   6.692  0.3050 -0.2030  0.3671
   14MOL   C427 7213   1.334   7.117   6.411  0.0304 -0.6113 -0.4135
   14MOL   C428 7214   1.389   6.996   6.455 -0.3361  0.0098 -0.8303
   14MOL   C429 7215   1.508   6.947   6.394 -0.3230  0.2471  0.7180
   14MOL   C430 7216   1.547   6.997   6.267 -0.8308  0.6415 -0.0430
   14MOL   C431 7217   1.486   7.114   6.218 -0.4605  0.1580  0.0140
   14MOL   C432 7218   1.382   7.172   6.291  0.6113  0.1499 -0.0928
   14MOL   H433 7219   1.464   6.972   6.787  1.0335  0.2006  0.6152
   14MOL   H434 7220   1.550   6.904   6.665 -2.6184  2.1758 -1.7128
   14MOL   H435 7221   1.283   6.824   6.743  1.8553 -1.1084  1.7423
   14MOL   H436 7222   1.131   7.330   6.423 -1.7817  1.1634  2.1969
   14MOL   H437 7223   0.948   7.324   6.584  0.3212 -0.7548  2.7876
   14MOL   H438 7224   0.948   7.137   6.773  1.2320  1.4308  1.8793
   14MOL   H439 7225   1.100   6.974   6.770  0.7630 -0.6548  0.0392
   14MOL   H440 7226   1.560   6.858   6.424  0.3264  0.1868 -0.5966
   14MOL   H441 7227   1.625   6.944   6.214  1.1809  0.6148  2.8335
   14MOL   H442 7228   1.521   7.150   6.123 -0.5478  2.0829  0.6834
   14MOL   H443 7229   1.338   7.266   6.262 -0.5705 -1.0460 -2.3341
   14MOL   C444 7230   1.350   6.700   6.583 -0.7400 -0.3881 -0.5433
   14MOL   C445 7231   1.207   6.642   6.584 -0.0159 -0.0341  0.6530
   14MOL   N446 7232   1.097   6.718   6.521  0.1772  0.6305  0.1283
   14MOL   C447 7233   0.980   6.766   6.580 -0.7277 -0.5177 -0.2029
   14MOL   C448 7234   0.905   6.835   6.482  0.4218  0.0208  0.1989
   14MOL   C449 7235   0.784   6.906   6.527 -0.0346 -0.2986 -0.0512
   14MOL   C450 7236   0.743   6.895   6.663 -0.6236  0.6407 -0.0311
   14MOL   C451 7237   0.822   6.819   6.752  0.5311  0.2123  0.2477
   14MOL   C452 7238   0.940   6.753   6.713  0.2852 -0.7383  0.0088
   14MOL   C453 7239   0.978   6.825   6.359 -0.3914 -0.2334  0.3947
   14MOL   C454 7240   1.097   6.751   6.388 -0.5313  0.5196 -0.0137
   14MOL   C455 7241   1.196   6.729   6.293 -0.3120 -0.2638  0.1157
   14MOL   C456 7242   1.185   6.781   6.159 -0.0329  0.3067  0.4956
   14MOL   C457 7243   1.063   6.847   6.124 -0.0880  0.0935 -0.9230
   14MOL   C458 7244   0.964   6.873   6.226  0.1266  0.0799  0.1527
   14MOL   H459 7245   1.404   6.714   6.489 -0.7331 -0.2605 -0.5203
   14MOL   H460 7246   1.414   6.635   6.641 -2.4068  0.3347  2.1896
   14MOL   H461 7247   1.178   6.629   6.689 -1.3664  0.5278  0.3653
   14MOL   H462 7248   0.725   6.959   6.454  1.4751 -0.4507 -1.4183
   14MOL   H463 7249   0.649   6.937   6.693 -1.2455 -0.2167 -0.7647
   14MOL   H464 7250   0.782   6.810   6.852  3.5466  1.3109  1.6099
   14MOL   H465 7251   1.007   6.709   6.786 -0.5719 -0.9575  0.6722
   14MOL   H466 7252   1.289   6.681   6.321 -0.0403  0.3752  0.3143
   14MOL   H467 7253   1.262   6.754   6.088 -0.5607 -0.3956  0.1782
   14MOL   H468 7254   1.050   6.887   6.024  1.8802  0.7740 -0.9313
   14MOL   H469 7255   0.878   6.937   6.210 -0.5673 -1.1384 -1.1743
   14MOL   C470 7256   1.208   6.490   6.526  0.1254 -0.1237 -0.1673
   14MOL   C471 7257   1.077   6.414   6.548 -0.3850  0.6370  0.2479
   14MOL   N472 7258   1.076   6.294   6.456 -0.1799 -0.4818  0.3693
   14MOL   C473 7259   1.009   6.282   6.335 -0.0876 -0.5276  0.4227
   14MOL   C474 7260   1.017   6.151   6.284  0.8766 -0.1882  0.2243
   14MOL   C475 7261   0.954   6.121   6.160 -0.4291 -0.0593  0.5441
   14MOL   C476 7262   0.877   6.212   6.089  0.0460  0.2287  0.2381
   14MOL   C477 7263   0.871   6.339   6.135 -0.6106 -0.0006 -0.6581
   14MOL   C478 7264   0.931   6.372   6.258 -0.3673 -0.7521 -0.2520
   14MOL   C479 7265   1.099   6.077   6.379  0.9724  0.1918  0.0157
   14MOL   C480 7266   1.141   6.170   6.477 -0.6201  0.1237  0.2545
   14MOL   C481 7267   1.235   6.125   6.571 -0.1100  0.1124  0.8802
   14MOL   C482 7268   1.276   5.989   6.581  0.1600 -0.2153  0.5049
   14MOL   C483 7269   1.224   5.896   6.487  0.0991  0.0406 -0.3306
   14MOL   C484 7270   1.138   5.941   6.386 -0.0612  0.2586  0.5368
   14MOL   H485 7271   1.229   6.499   6.419  0.5568  3.8370  0.2035
   14MOL   H486 7272   1.286   6.424   6.564  0.0698  0.1155  0.3630
   14MOL   H487 7273   1.001   6.487   6.521 -0.5946 -0.1921 -1.4781
   14MOL   H488 7274   0.966   6.023   6.116 -0.7825 -0.0233  0.3664
   14MOL   H489 7275   0.825   6.171   6.004  1.0606  0.8168 -0.6925
   14MOL   H490 7276   0.819   6.419   6.083 -1.3379  0.4647  0.7553
   14MOL   H491 7277   0.912   6.474   6.288  0.1416 -0.8767  0.5174
   14MOL   H492 7278   1.279   6.192   6.644  1.4585 -0.9420  0.9041
   14MOL   H493 7279   1.331   5.976   6.673 -1.6317  3.1395  2.1583
   14MOL   H494 7280   1.271   5.799   6.485  0.7237  0.3299  0.1719
   14MOL   H495 7281   1.115   5.878   6.301  1.0070 -1.5604  1.5617
   14MOL   C496 7282   1.050   6.374   6.695  0.3875 -0.5181 -0.5645
   14MOL   C497 7283   0.929   6.284   6.718 -0.4599 -0.4469  0.0408
   14MOL   N498 7284   0.931   6.218   6.850  0.2652 -0.4072 -0.7971
   14MOL   C499 7285   0.960   6.085   6.887  0.1432 -0.5526 -0.4143
   14MOL   C500 7286   0.941   6.067   7.028  0.4440 -1.0120  0.9491
   14MOL   C501 7287   0.959   5.937   7.081  0.9177  0.7970 -0.1065
   14MOL   C502 7288   0.997   5.829   7.000  0.3110 -0.6010  0.8716
   14MOL   C503 7289   1.026   5.850   6.860 -0.3612 -0.5536  0.5190
   14MOL   C504 7290   0.998   5.976   6.807  0.0686 -0.5731  0.0613
   14MOL   C505 7291   0.902   6.196   7.078 -0.0467 -0.0553  0.9981
   14MOL   C506 7292   0.892   6.286   6.965  0.2520  0.4924 -0.4646
   14MOL   C507 7293   0.851   6.418   6.990  0.0321 -0.2239 -0.5005
   14MOL   C508 7294   0.820   6.462   7.120 -0.0100  0.0416  0.7312
   14MOL   C509 7295   0.830   6.378   7.236  0.0642  0.7640  0.3869
   14MOL   C510 7296   0.869   6.243   7.212 -0.3293  0.2190  0.2722
   14MOL   H511 7297   1.132   6.323   6.746  0.6411  0.4689  0.0508
   14MOL   H512 7298   1.033   6.466   6.751  1.8690  0.4986 -1.7403
   14MOL   H513 7299   0.936   6.198   6.651  0.2454 -0.6182  0.3249
   14MOL   H514 7300   0.936   5.907   7.182  1.8133  0.1426 -0.0812
   14MOL   H515 7301   1.009   5.733   7.048  2.3112 -1.3048 -0.9389
   14MOL   H516 7302   1.058   5.769   6.795  2.6555  0.0193  1.2163
   14MOL   H517 7303   1.016   5.994   6.702 -1.2579  2.2774  0.2791
   14MOL   H518 7304   0.829   6.491   6.914  0.2640  1.5583  1.1145
   14MOL   H519 7305   0.773   6.557   7.145 -0.3742 -0.3054  1.3850
   14MOL   H520 7306   0.804   6.425   7.330  0.1898  1.8638 -0.1221
   14MOL   H521 7307   0.850   6.167   7.287  1.2160  0.3857  0.8602
   14MOL   H522 7308   0.829   6.327   6.711 -0.6763 -0.6942  1.4090
   15MOL     C1 7309   6.550   1.146   7.255 -0.3507  0.1014 -0.9582
   15MOL     C2 7310   6.568   0.999   7.205  0.3324 -0.4219 -0.4487
   15MOL     N3 7311   6.701   0.950   7.245 -0.6220  0.2177 -0.2030
   15MOL     C4 7312   6.784   0.867   7.163 -0.2230 -0.1194 -0.4235
   15MOL     C5 7313   6.907   0.838   7.236  0.5911 -0.3508 -0.8854
   15MOL     C6 7314   7.006   0.771   7.166 -0.4663  0.2441 -0.4547
   15MOL     C7 7315   6.994   0.722   7.036  0.0658 -0.0016 -0.1270
   15MOL     C8 7316   6.873   0.752   6.963 -0.3922 -0.6690  0.2706
   15MOL     C9 7317   6.767   0.819   7.028  0.2618  0.0245  0.3038
   15MOL    C10 7318   6.893   0.893   7.368  0.5598  0.8120  0.3474
   15MOL    C11 7319   6.766   0.961   7.367  0.3565  0.2946 -0.0740
   15MOL    C12 7320   6.723   1.010   7.492  0.0875  0.5112  0.0775
   15MOL    C13 7321   6.811   1.025   7.599  0.3090 -0.1337  0.0672
   15MOL    C14 7322   6.946   0.988   7.591 -0.0295  0.2099 -0.1670
   15MOL    C15 7323   6.983   0.916   7.479  0.3877  0.7396 -0.6718
   15MOL    H16 7324   6.478   1.205   7.198 -0.6336  0.3248 -0.3756
   15MOL    H17 7325   6.646   1.197   7.247  0.2780 -0.4286  2.4956
   15MOL    H18 7326   6.571   1.011   7.096 -0.0346 -3.7164 -0.8854
   15MOL    H19 7327   7.101   0.761   7.217 -1.1454  0.5590  0.9137
   15MOL    H20 7328   7.074   0.676   6.980  1.1324  2.2413 -0.4986
   15MOL    H21 7329   6.856   0.720   6.861 -0.6020  1.0296 -0.2426
   15MOL    H22 7330   6.681   0.839   6.966  1.4573 -0.9754 -1.7329
   15MOL    H23 7331   6.626   1.056   7.501 -0.3951 -0.9594  2.9617
   15MOL    H24 7332   6.776   1.057   7.695 -2.2688  1.0787 -1.2194
   15MOL    H25 7333   7.012   0.990   7.676  0.7714  0.6868 -0.7928
   15MOL    H26 7334   7.075   0.859   7.484  0.5657  1.1381  0.9357
   15MOL    H27 7335   6.510   1.159   7.355  0.3510  0.9053 -0.7781
   15MOL    C28 7336   6.461   0.899   7.242  0.0367  0.2829 -0.5396
   15MOL    C29 7337   6.317   0.935   7.190  0.3029  0.2138 -0.0867
   15MOL    N30 7338   6.312   0.939   7.044  0.2391 -0.6081  0.0622
   15MOL    C31 7339   6.255   1.054   6.980  0.4605  0.3015  0.1749
   15MOL    C32 7340   6.267   1.031   6.836 -0.0723 -0.4351  0.4876
   15MOL    C33 7341   6.229   1.141   6.752 -0.1982  0.5650  0.9790
   15MOL    C34 7342   6.178   1.259   6.806  0.6863 -0.5471 -0.0096
   15MOL    C35 7343   6.167   1.276   6.945  0.5710 -0.4489  0.2698
   15MOL    C36 7344   6.195   1.173   7.034 -0.1077 -0.1316  0.2116
   15MOL    C37 7345   6.328   0.903   6.817 -0.1137 -0.8173 -0.7742
   15MOL    C38 7346   6.356   0.847   6.948  1.1044  0.0344 -0.1131
   15MOL    C39 7347   6.414   0.715   6.965  0.3138 -0.2730 -0.0243
   15MOL    C40 7348   6.447   0.646   6.846 -0.2963 -0.3075 -0.2282
   15MOL    C41 7349   6.425   0.703   6.721 -0.3845 -0.1135  0.0957
   15MOL    C42 7350   6.363   0.830   6.705  0.1411 -0.3104 -0.2471
   15MOL    H43 7351   6.488   0.797   7.218  1.4674 -0.0633  2.3917
   15MOL    H44 7352   6.453   0.890   7.350  0.7503  0.2996 -0.4824
   15MOL    H45 7353   6.306   1.039   7.222  0.1496 -0.3135  1.6195
   15MOL    H46 7354   6.239   1.138   6.645 -2.3580  2.3171  0.6876
   15MOL    H47 7355   6.157   1.348   6.748 -0.1833 -1.0149 -0.4159
   15MOL    H48 7356   6.148   1.373   6.988 -0.5457 -0.0361 -1.0941
   15MOL    H49 7357   6.187   1.192   7.140 -0.5007 -0.9202  0.3253
   15MOL    H50 7358   6.438   0.667   7.058  1.6642  0.2104 -0.1102
   15MOL    H51 7359   6.499   0.552   6.852 -1.0715 -0.5926  2.4957
   15MOL    H52 7360   6.455   0.647   6.634  0.0040 -3.2517  2.1526
   15MOL    H53 7361   6.345   0.885   6.614  1.0351  2.3722  1.1592
   15MOL    C54 7362   6.208   0.846   7.240 -0.5363 -0.1637  0.4266
   15MOL    C55 7363   6.173   0.887   7.388  0.1869 -0.6438 -0.7701
   15MOL    N56 7364   6.104   1.025   7.381  0.1598 -0.0600 -0.9828
   15MOL    C57 7365   6.152   1.144   7.443  0.3402  0.3741 -0.1511
   15MOL    C58 7366   6.066   1.253   7.405 -0.0027  0.0054 -0.7147
   15MOL    C59 7367   6.082   1.380   7.469  0.1753  0.1388  0.8901
   15MOL    C60 7368   6.188   1.405   7.557 -0.1041 -0.0095 -0.0076
   15MOL    C61 7369   6.275   1.297   7.587  0.6285  0.0951  0.6711
   15MOL    C62 7370   6.259   1.171   7.530  0.0510 -0.5769  0.5454
   15MOL    C63 7371   5.976   1.199   7.308 -0.0699 -0.2150  0.1570
   15MOL    C64 7372   5.990   1.063   7.300  0.3152 -0.6385 -0.1225
   15MOL    C65 7373   5.905   0.987   7.214 -0.1169 -0.7355  0.1011
   15MOL    C66 7374   5.821   1.055   7.120  0.2828  0.1613 -0.3624
   15MOL    C67 7375   5.801   1.193   7.134 -0.3645  0.1735 -0.2446
   15MOL    C68 7376   5.872   1.264   7.234 -0.3036 -0.3181 -0.3285
   15MOL    H69 7377   6.119   0.842   7.177  0.2396  2.6649 -0.8874
   15MOL    H70 7378   6.249   0.745   7.241  2.3668  0.9473 -0.8739
   15MOL    H71 7379   6.262   0.911   7.446 -0.6777 -1.0979  0.7668
   15MOL    H72 7380   6.015   1.460   7.442  2.3256  1.5923 -0.2826
   15MOL    H73 7381   6.208   1.499   7.607 -3.1100  0.0279  1.2450
   15MOL    H74 7382   6.354   1.313   7.659  1.2748  0.3838 -0.1041
   15MOL    H75 7383   6.326   1.088   7.547  0.4069 -0.2595  0.6915
   15MOL    H76 7384   5.928   0.882   7.209  0.6496 -0.4823 -2.1158
   15MOL    H77 7385   5.769   0.994   7.047 -1.6094 -0.7957  1.7091
   15MOL    H78 7386   5.720   1.238   7.078  0.4594  0.6175 -1.0914
   15MOL    H79 7387   5.849   1.369   7.241 -0.1740 -0.2484 -0.9330
   15MOL    C80 7388   6.082   0.778   7.458  0.0369  0.1867 -0.5353
   15MOL    C81 7389   6.154   0.639   7.491  0.5677 -0.2585  0.8688
   15MOL    N82 7390   6.296   0.653   7.535 -0.4275 -0.2250  0.4859
   15MOL    C83 7391   6.410   0.606   7.475 -0.3335  0.8514  0.9628
   15MOL    C84 7392   6.531   0.652   7.538  1.1432  0.0119  0.1502
   15MOL    C85 7393   6.654   0.613   7.490 -0.2306 -0.2612  0.3612
   15MOL    C86 7394   6.656   0.547   7.365 -0.1766 -0.1845 -0.2042
   15MOL    C87 7395   6.541   0.499   7.299  0.0423  0.0845  0.3217
   15MOL    C88 7396   6.415   0.524   7.358 -0.0932  0.9208 -0.2569
   15MOL    C89 7397   6.481   0.726   7.651 -0.4550 -0.1571  0.0213
   15MOL    C90 7398   6.341   0.728   7.647 -0.2604 -0.6284 -0.0129
   15MOL    C91 7399   6.269   0.798   7.748  0.3825  0.8544  0.5330
   15MOL    C92 7400   6.333   0.865   7.850  0.2653 -0.7392  0.2697
   15MOL    C93 7401   6.471   0.884   7.842 -0.5645  0.3546 -0.1698
   15MOL    C94 7402   6.549   0.804   7.753  0.2574 -0.2225 -0.2425
   15MOL    H95 7403   6.043   0.819   7.551  0.7283 -1.5681  0.5520
   15MOL    H96 7404   5.995   0.770   7.394  0.1852  0.6862 -0.8056
   15MOL    H97 7405   6.148   0.584   7.397  0.7285 -1.0323  1.3040
   15MOL    H98 7406   6.747   0.642   7.537  0.9837 -0.1380 -2.0370
   15MOL    H99 7407   6.748   0.529   7.311  0.8146 -1.4247  1.7946
   15MOL   H100 7408   6.536   0.441   7.208 -1.0860 -1.3407  1.2633
   15MOL   H101 7409   6.329   0.483   7.308  1.2177  0.1644 -1.9491
   15MOL   H102 7410   6.162   0.786   7.752  0.6242 -2.8283 -1.3908
   15MOL   H103 7411   6.264   0.922   7.910 -0.5398  0.2460 -1.5336
   15MOL   H104 7412   6.519   0.953   7.911  0.3454 -1.2852  0.8601
   15MOL   H105 7413   6.656   0.809   7.741  0.2032  0.2735 -0.5323
   15MOL   C106 7414   6.064   0.554   7.585  0.3374 -0.1574  0.1306
   15MOL   C107 7415   6.110   0.402   7.577 -0.0919 -0.0082 -0.2245
   15MOL   N108 7416   6.163   0.351   7.698 -0.3690 -0.4503 -0.2162
   15MOL   C109 7417   6.287   0.284   7.709  0.6845 -0.3495  0.1437
   15MOL   C110 7418   6.302   0.222   7.836  0.2532 -0.0482  0.4043
   15MOL   C111 7419   6.419   0.146   7.868  0.0251 -0.0665 -0.6801
   15MOL   C112 7420   6.516   0.139   7.770  0.4741  0.3053 -0.2298
   15MOL   C113 7421   6.497   0.194   7.648 -0.7152 -0.5110  0.3784
   15MOL   C114 7422   6.391   0.269   7.614 -0.3926  0.4563  0.4103
   15MOL   C115 7423   6.180   0.264   7.910  0.3821 -0.2961 -0.3123
   15MOL   C116 7424   6.100   0.346   7.822  0.3716 -0.1214  0.5256
   15MOL   C117 7425   5.976   0.402   7.867 -0.3628  0.0172 -0.3412
   15MOL   C118 7426   5.937   0.382   8.001  0.3095  0.4046  0.3924
   15MOL   C119 7427   6.019   0.309   8.089 -0.5885 -0.2251 -0.0713
   15MOL   C120 7428   6.135   0.252   8.043  0.0195  0.5191  0.4801
   15MOL   H121 7429   6.071   0.578   7.691  0.7108  0.5747 -0.0566
   15MOL   H122 7430   5.958   0.556   7.561  0.4719 -1.4035 -0.6182
   15MOL   H123 7431   6.191   0.405   7.505 -0.2575  4.9626 -0.3359
   15MOL   H124 7432   6.428   0.101   7.966 -0.8358 -0.8559 -0.9608
   15MOL   H125 7433   6.611   0.093   7.790 -0.9061 -2.3773  0.3438
   15MOL   H126 7434   6.578   0.191   7.577 -1.2843 -0.9905 -0.2617
   15MOL   H127 7435   6.377   0.300   7.511  0.3771  1.1958  0.5196
   15MOL   H128 7436   5.915   0.471   7.811 -1.8127  0.1836  1.3589
   15MOL   H129 7437   5.846   0.424   8.042 -0.5856 -0.5628 -0.5846
   15MOL   H130 7438   5.987   0.303   8.192  1.9121  0.4292  0.7839
   15MOL   H131 7439   6.195   0.194   8.112 -0.1516 -0.0813  0.1250
   15MOL   C132 7440   5.999   0.301   7.536  0.4872 -0.6125 -0.4985
   15MOL   C133 7441   5.926   0.313   7.396  0.2520  0.1123 -0.5343
   15MOL   N134 7442   6.014   0.349   7.283  0.6425 -0.5814  0.0970
   15MOL   C135 7443   5.985   0.442   7.180  0.2629  0.2162  0.5152
   15MOL   C136 7444   6.086   0.448   7.089  1.0746 -0.6721  0.5678
   15MOL   C137 7445   6.079   0.540   6.985 -0.4056  0.1810  0.0624
   15MOL   C138 7446   5.970   0.628   6.974  1.2552 -0.0742  0.2073
   15MOL   C139 7447   5.867   0.624   7.071 -0.1787  0.0745  0.2260
   15MOL   C140 7448   5.881   0.538   7.179 -0.2268 -0.2434 -0.2470
   15MOL   C141 7449   6.180   0.348   7.130 -0.4795 -0.6241  0.5203
   15MOL   C142 7450   6.139   0.295   7.250  0.1753 -1.1014 -0.1960
   15MOL   C143 7451   6.221   0.195   7.315 -0.4640  0.7895  0.3354
   15MOL   C144 7452   6.340   0.156   7.261  0.5543  0.1461  0.3154
   15MOL   C145 7453   6.384   0.205   7.144  0.2816 -0.5740  0.4712
   15MOL   C146 7454   6.305   0.304   7.080 -0.8595  0.4796  0.2122
   15MOL   H147 7455   6.042   0.202   7.552 -2.2718 -1.3159  3.0706
   15MOL   H148 7456   5.929   0.296   7.619  0.3884 -1.0393 -0.6060
   15MOL   H149 7457   5.862   0.401   7.397 -0.3590 -0.3413  0.9858
   15MOL   H150 7458   6.152   0.545   6.905 -1.2958 -0.4459 -0.7971
   15MOL   H151 7459   5.965   0.709   6.904 -1.8491 -0.3879 -0.0377
   15MOL   H152 7460   5.777   0.684   7.070 -1.2934 -1.3975  4.4061
   15MOL   H153 7461   5.805   0.538   7.256  1.7371 -1.0475  1.7319
   15MOL   H154 7462   6.197   0.170   7.417 -0.6457  1.3366  0.4267
   15MOL   H155 7463   6.406   0.085   7.310  0.2709 -0.9857 -0.9088
   15MOL   H156 7464   6.479   0.174   7.103  0.0440 -0.1679 -0.4038
   15MOL   H157 7465   6.334   0.346   6.985 -0.1316 -1.5647 -0.4973
   15MOL   C158 7466   5.842   0.186   7.362  0.3529  0.4673 -0.2335
   15MOL   C159 7467   5.721   0.158   7.451 -0.6474  0.5097  0.1221
   15MOL   N160 7468   5.627   0.264   7.450 -0.0013 -0.2728 -0.4632
   15MOL   C161 7469   5.609   0.351   7.561  0.2369  0.2464 -0.9551
   15MOL   C162 7470   5.516   0.452   7.528 -0.0213 -0.1699 -0.4169
   15MOL   C163 7471   5.485   0.550   7.622 -0.0103 -0.8143 -0.2452
   15MOL   C164 7472   5.536   0.543   7.751  0.5055  0.3399 -0.2312
   15MOL   C165 7473   5.632   0.442   7.794  0.3700 -0.0380 -0.1022
   15MOL   C166 7474   5.667   0.349   7.692 -0.5137 -0.0577  1.0551
   15MOL   C167 7475   5.464   0.421   7.400 -0.3547 -0.1617  0.0802
   15MOL   C168 7476   5.547   0.316   7.346 -0.5255 -0.0790  0.1502
   15MOL   C169 7477   5.525   0.271   7.209 -0.1545 -1.1528 -0.7197
   15MOL   C170 7478   5.421   0.331   7.132  0.5421 -0.6039  0.1223
   15MOL   C171 7479   5.331   0.427   7.191  0.2997  0.9157 -0.0996
   15MOL   C172 7480   5.364   0.480   7.318 -0.0274  0.1842 -0.3647
   15MOL   H173 7481   5.811   0.168   7.259  2.9016 -1.8147 -0.6551
   15MOL   H174 7482   5.916   0.107   7.372  0.0831  0.3276  0.7113
   15MOL   H175 7483   5.757   0.146   7.553 -0.6138  0.5945  0.1206
   15MOL   H176 7484   5.408   0.624   7.603 -0.3562 -0.3540  2.7732
   15MOL   H177 7485   5.498   0.619   7.817 -1.8007  0.7739 -1.9606
   15MOL   H178 7486   5.680   0.451   7.890 -4.1658 -0.7296  2.3617
   15MOL   H179 7487   5.730   0.264   7.715 -0.2647 -0.4295 -0.9051
   15MOL   H180 7488   5.575   0.180   7.178 -1.0043 -2.0513  0.5015
   15MOL   H181 7489   5.381   0.299   7.037  1.7153 -1.1264 -0.1942
   15MOL   H182 7490   5.248   0.466   7.134  0.1642 -0.1168 -0.6256
   15MOL   H183 7491   5.315   0.566   7.361 -1.6250 -1.1794  0.6245
   15MOL   C184 7492   5.665   0.017   7.420 -0.0638 -0.6447 -0.4445
   15MOL   C185 7493   5.747   8.119   7.480 -0.2672 -0.1684 -0.2479
   15MOL   N186 7494   5.744   8.116   7.628 -0.4268 -0.0401  0.6321
   15MOL   C187 7495   5.859   8.130   7.707  0.2658  0.5353 -0.5574
   15MOL   C188 7496   5.823   8.120   7.846  0.3263 -0.1108  0.2715
   15MOL   C189 7497   5.920   8.128   7.946 -0.8162  1.1939 -0.3638
   15MOL   C190 7498   6.052   8.153   7.909 -0.8417 -0.0985 -0.4076
   15MOL   C191 7499   6.088   8.159   7.775  0.0315 -0.1990  0.1595
   15MOL   C192 7500   5.993   8.148   7.675 -0.4143  0.4051  0.2156
   15MOL   C193 7501   5.683   8.104   7.851 -0.0055  0.2728  0.1484
   15MOL   C194 7502   5.633   8.104   7.713  0.0238 -0.3307 -0.4169
   15MOL   C195 7503   5.495   8.094   7.687 -0.4486 -0.0079  0.1078
   15MOL   C196 7504   5.408   8.061   7.791 -0.2246 -0.5338 -0.3313
   15MOL   C197 7505   5.451   8.048   7.927 -0.6089  0.9404 -0.0403
   15MOL   C198 7506   5.588   8.083   7.951 -0.4842 -0.1460  0.1604
   15MOL   H199 7507   5.568   0.004   7.468 -0.3868  0.6200 -0.7565
   15MOL   H200 7508   5.646   0.003   7.313 -0.2904 -0.9089 -0.3707
   15MOL   H201 7509   5.850   8.137   7.449 -1.2509  3.2450 -1.7288
   15MOL   H202 7510   5.892   8.131   8.050 -0.2195 -0.7369 -0.1099
   15MOL   H203 7511   6.125   8.170   7.987 -3.1944 -0.3283  1.8836
   15MOL   H204 7512   6.193   8.166   7.751 -0.4198  1.5538 -1.4633
   15MOL   H205 7513   6.023   8.172   7.574  0.1462 -0.6102  0.1305
   15MOL   H206 7514   5.460   8.099   7.585 -0.0033  3.5377  0.0816
   15MOL   H207 7515   5.303   8.065   7.768  0.3062  5.2350 -2.3786
   15MOL   H208 7516   5.397   8.031   8.018  1.1848  0.1905  0.9142
   15MOL   H209 7517   5.620   8.058   8.051  1.2425 -0.9094 -0.5676
   15MOL   C210 7518   5.693   7.983   7.422 -0.4559  0.1005 -0.2319
   15MOL   C211 7519   5.729   7.953   7.277  0.2656  0.0923  0.0995
   15MOL   N212 7520   5.863   7.993   7.245 -0.8650 -0.0657 -0.5992
   15MOL   C213 7521   5.895   8.097   7.152  0.4305 -0.6468  0.2707
   15MOL   C214 7522   6.036   8.132   7.146  0.3731  0.3651  0.1598
   15MOL   C215 7523   6.085   0.004   7.062 -0.6706  0.0055  0.1568
   15MOL   C216 7524   6.000   0.084   6.982 -0.2756 -0.0316 -0.3429
   15MOL   C217 7525   5.862   0.054   6.991  0.1589  0.3082  0.2268
   15MOL   C218 7526   5.809   8.181   7.074 -0.3908 -0.0789  0.6611
   15MOL   C219 7527   6.099   8.041   7.241 -0.1709  0.4494 -0.0177
   15MOL   C220 7528   5.990   7.958   7.296 -0.0307  0.2027  0.7843
   15MOL   C221 7529   6.029   7.860   7.389 -0.4644 -0.0047  0.4537
   15MOL   C222 7530   6.163   7.841   7.423  0.5463 -0.9857 -0.4614
   15MOL   C223 7531   6.262   7.934   7.389 -0.4683 -0.7191 -0.6253
   15MOL   C224 7532   6.227   8.034   7.294 -0.4259 -0.2217 -0.4323
   15MOL   H225 7533   5.759   7.917   7.477  0.5841  0.5633 -0.9058
   15MOL   H226 7534   5.593   7.975   7.466 -1.1008 -0.0030 -1.6677
   15MOL   H227 7535   5.670   8.022   7.216  1.4174  0.6671 -0.3785
   15MOL   H228 7536   6.186   0.041   7.072 -0.8311  1.0799 -1.8624
   15MOL   H229 7537   6.037   0.170   6.929 -0.4139  1.1932  1.4763
   15MOL   H230 7538   5.814   0.121   6.921 -0.0323  1.3787  1.3494
   15MOL   H231 7539   5.703   8.165   7.076 -0.2227 -1.4117 -0.4301
   15MOL   H232 7540   5.957   7.789   7.426  0.0611 -1.0349 -0.4592
   15MOL   H233 7541   6.185   7.760   7.491 -2.3096 -1.7519 -0.3863
   15MOL   H234 7542   6.366   7.932   7.419 -0.3088  2.7333 -0.8509
   15MOL   H235 7543   6.307   8.098   7.260 -0.0040 -1.5018 -1.9135
   15MOL   C236 7544   5.696   7.807   7.220 -0.7400 -0.6246  0.0165
   15MOL   C237 7545   5.555   7.775   7.182  0.5099 -0.4928 -0.6830
   15MOL   N238 7546   5.497   7.879   7.089 -0.8227 -0.2577 -0.0494
   15MOL   C239 7547   5.413   7.985   7.126  0.1354 -0.2924  0.3102
   15MOL   C240 7548   5.386   8.064   7.008  0.1078 -0.2354  1.1340
   15MOL   C241 7549   5.306   8.181   7.021 -0.5447 -0.3110  0.5112
   15MOL   C242 7550   5.259   8.226   7.150  0.2464  0.4688 -0.5591
   15MOL   C243 7551   5.283   8.147   7.265  0.4846 -0.4026 -0.2468
   15MOL   C244 7552   5.363   8.030   7.254  0.3142  0.0849 -0.2314
   15MOL   C245 7553   5.452   7.996   6.894 -0.2651 -0.0746  0.1694
   15MOL   C246 7554   5.518   7.881   6.953  1.2884  0.3529  0.5159
   15MOL   C247 7555   5.592   7.795   6.869  0.4162  0.3377  0.6088
   15MOL   C248 7556   5.594   7.818   6.730  0.0693  0.2357  0.3337
   15MOL   C249 7557   5.534   7.930   6.669 -0.2505 -0.4611 -0.4350
   15MOL   C250 7558   5.473   8.021   6.753  0.0566  0.0995  0.3041
   15MOL   H251 7559   5.766   7.791   7.138 -2.1130  1.4255 -1.6204
   15MOL   H252 7560   5.729   7.742   7.301  0.2205  0.4604  0.5122
   15MOL   H253 7561   5.502   7.794   7.275  0.3953  1.2802 -1.0981
   15MOL   H254 7562   5.282   8.225   6.926  0.3146 -0.6780  0.1128
   15MOL   H255 7563   5.199   0.086   7.172  0.2240  0.7617 -1.7521
   15MOL   H256 7564   5.244   8.188   7.357  1.2232 -1.8523  0.7206
   15MOL   H257 7565   5.381   7.975   7.345 -1.1662 -0.8597 -0.4875
   15MOL   H258 7566   5.645   7.708   6.904 -0.3300 -1.7112 -3.0465
   15MOL   H259 7567   5.642   7.745   6.668  0.6377  0.6917  0.2377
   15MOL   H260 7568   5.531   7.950   6.563 -1.4194 -1.5517 -0.6129
   15MOL   H261 7569   5.425   8.108   6.709 -0.1486  0.3297  0.9802
   15MOL   C262 7570   5.521   7.626   7.151  0.3111  0.1229  0.0034
   15MOL   C263 7571   5.367   7.594   7.182 -0.1170  0.4799  0.4134
   15MOL   N264 7572   5.307   7.501   7.093  0.5628 -0.0860 -0.4075
   15MOL   C265 7573   5.206   7.521   7.002 -0.4214  0.1961  0.2263
   15MOL   C266 7574   5.161   7.394   6.950 -0.2934  0.5235 -0.1725
   15MOL   C267 7575   5.046   7.389   6.874 -0.2425  0.0569  0.6044
   15MOL   C268 7576   4.982   7.511   6.850 -0.1908 -0.3034  0.0772
   15MOL   C269 7577   5.025   7.636   6.900  0.3526 -0.1980 -0.5816
   15MOL   C270 7578   5.146   7.643   6.964 -0.1806  0.2776 -0.1287
   15MOL   C271 7579   5.260   7.303   6.988  0.1493  0.3301  0.7110
   15MOL   C272 7580   5.341   7.367   7.088 -0.1203  0.2226  0.7212
   15MOL   C273 7581   5.443   7.294   7.153  0.5557 -0.5646  0.3430
   15MOL   C274 7582   5.474   7.157   7.107 -0.1934 -0.4132 -0.2399
   15MOL   C275 7583   5.386   7.103   7.013  0.4821  0.4297  0.0450
   15MOL   C276 7584   5.279   7.171   6.958  0.0121  0.5726 -0.0115
   15MOL   H277 7585   5.544   7.593   7.050  0.3851 -1.6668  0.5944
   15MOL   H278 7586   5.581   7.566   7.220  0.5130  1.1683  0.7522
   15MOL   H279 7587   5.311   7.682   7.150  0.5583  1.0316  0.7447
   15MOL   H280 7588   5.017   7.299   6.823 -1.8443  1.0831 -0.3449
   15MOL   H281 7589   4.897   7.519   6.784 -1.0212  0.7143  1.2359
   15MOL   H282 7590   4.967   7.723   6.874 -1.3468 -1.7423 -2.1794
   15MOL   H283 7591   5.177   7.740   7.001  0.1084 -0.2730  1.1125
   15MOL   H284 7592   5.512   7.342   7.221  0.5295  1.2875 -0.9082
   15MOL   H285 7593   5.550   7.104   7.163 -1.5309 -0.5453  1.5080
   15MOL   H286 7594   5.400   6.997   6.998  0.0014  0.6265 -1.8464
   15MOL   H287 7595   5.212   7.126   6.887 -0.4928  2.4684 -0.7439
   15MOL   C288 7596   5.344   7.572   7.337  0.3707  0.3415 -0.2281
   15MOL   C289 7597   5.198   7.593   7.382 -0.6762  0.0536  0.3195
   15MOL   N290 7598   5.168   7.529   7.515  0.1707 -0.0423  0.2294
   15MOL   C291 7599   5.114   7.404   7.533 -0.3105  0.8059 -0.0171
   15MOL   C292 7600   5.103   7.373   7.674 -0.8409  0.9458 -0.1216
   15MOL   C293 7601   5.043   7.250   7.715 -0.2176  0.3417 -0.0184
   15MOL   C294 7602   5.010   7.151   7.618  0.5824 -0.5763  0.4700
   15MOL   C295 7603   5.020   7.179   7.481  0.1428 -0.2891  0.1194
   15MOL   C296 7604   5.072   7.304   7.439  0.8468 -0.0464  0.6970
   15MOL   C297 7605   5.159   7.488   7.750 -0.1892  0.5609  0.2206
   15MOL   C298 7606   5.197   7.582   7.644 -0.5088 -0.5625 -0.4064
   15MOL   C299 7607   5.254   7.707   7.683 -0.2012 -0.1177  0.0828
   15MOL   C300 7608   5.264   7.737   7.821  0.5685 -0.3158  0.0133
   15MOL   C301 7609   5.212   7.657   7.919 -0.3641  0.5419  0.0457
   15MOL   C302 7610   5.162   7.528   7.882  0.0324  0.5897  0.0082
   15MOL   H303 7611   5.383   7.472   7.355  0.3349 -0.1612 -2.7334
   15MOL   H304 7612   5.409   7.641   7.391  0.6495  0.4287 -0.6667
   15MOL   H305 7613   5.142   7.531   7.312  0.7427 -0.8836 -0.0166
   15MOL   H306 7614   5.043   7.221   7.819  1.5219 -2.3882 -0.7325
   15MOL   H307 7615   4.969   7.057   7.653  1.9564 -1.3350  0.0838
   15MOL   H308 7616   4.980   7.099   7.420 -2.4437  0.3636  0.9280
   15MOL   H309 7617   5.083   7.320   7.333  1.1578  1.2304  0.9046
   15MOL   H310 7618   5.305   7.773   7.614 -0.5621  0.1066  0.0348
   15MOL   H311 7619   5.305   7.832   7.851 -0.5863  0.3074 -0.3521
   15MOL   H312 7620   5.215   7.680   8.024  0.4789 -2.0642  0.6284
   15MOL   H313 7621   5.131   7.457   7.958 -1.6639 -0.7650 -1.9137
   15MOL   C314 7622   5.154   7.740   7.366 -0.2029 -0.5747 -0.0591
   15MOL   C315 7623   5.015   7.783   7.426  0.9347  0.3086  0.6571
   15MOL   N316 7624   4.989   7.920   7.400  0.4075 -0.4386  0.1748
   15MOL   C317 7625   5.003   8.027   7.494  0.1158  0.1297 -0.2885
   15MOL   C318 7626   4.962   8.147   7.431 -0.4268  0.2814 -0.2730
   15MOL   C319 7627   4.973   0.039   7.500 -0.5723 -0.5562  0.0489
   15MOL   C320 7628   5.010   0.045   7.633 -0.4259 -0.1802  0.6202
   15MOL   C321 7629   5.041   8.153   7.697 -0.6574 -0.6121 -0.0823
   15MOL   C322 7630   5.032   8.028   7.632  0.5148 -0.2202  0.2682
   15MOL   C323 7631   4.920   8.116   7.294 -0.4683 -0.3089 -0.0003
   15MOL   C324 7632   4.950   7.976   7.280  0.1892  1.1002  0.7367
   15MOL   C325 7633   4.932   7.912   7.156 -0.3421 -0.1399  1.3410
   15MOL   C326 7634   4.876   7.978   7.047 -0.1595 -0.3825  0.7650
   15MOL   C327 7635   4.849   8.113   7.054 -1.1972 -0.0970  0.2162
   15MOL   C328 7636   4.865   8.179   7.181 -0.0107  0.0362  0.4980
   15MOL   H329 7637   5.223   7.806   7.419 -2.0944  2.3825 -1.1635
   15MOL   H330 7638   5.158   7.762   7.259  1.7052 -0.3989  0.0307
   15MOL   H331 7639   5.024   7.772   7.534 -1.0194  0.6128  0.8592
   15MOL   H332 7640   4.929   0.130   7.462  2.0113  0.3540 -0.8780
   15MOL   H333 7641   5.000   0.141   7.683 -1.4030  1.1021 -1.9225
   15MOL   H334 7642   5.068   8.147   7.801 -0.3518 -0.4258 -0.1515
   15MOL   H335 7643   5.066   7.936   7.676 -0.0913  0.5866  2.5031
   15MOL   H336 7644   4.943   7.805   7.146  1.9988  0.0996  1.1214
   15MOL   H337 7645   4.849   7.935   6.952 -0.3948  1.6776 -0.1309
   15MOL   H338 7646   4.813   8.170   6.970 -0.0210  0.0466 -0.2046
   15MOL   H339 7647   4.841   0.057   7.172  0.2392 -0.1238 -2.5181
   15MOL   C340 7648   4.897   7.679   7.391 -0.2427 -0.0319 -0.5067
   15MOL   C341 7649   4.830   7.633   7.522  0.7041  0.2466 -0.2372
   15MOL   N342 7650   4.753   7.741   7.585  0.7130 -0.0749 -0.2701
   15MOL   C343 7651   4.777   7.786   7.713  0.6007  0.4425 -0.7632
   15MOL   C344 7652   4.689   7.895   7.743 -0.5969 -0.5030 -0.4947
   15MOL   C345 7653   4.687   7.952   7.872 -0.1242  0.5812 -0.6419
   15MOL   C346 7654   4.779   7.909   7.966  0.2109  0.4707 -0.3627
   15MOL   C347 7655   4.878   7.811   7.932  0.6782  0.1712 -0.1475
   15MOL   C348 7656   4.871   7.746   7.810 -0.7548  0.3764 -0.3447
   15MOL   C349 7657   4.603   7.908   7.630  0.9611 -0.5012 -0.7549
   15MOL   C350 7658   4.645   7.816   7.531  0.0360 -0.2686  0.1873
   15MOL   C351 7659   4.582   7.811   7.408 -1.2483  0.7510 -0.4203
   15MOL   C352 7660   4.493   7.913   7.369 -0.7052 -0.2871  0.7667
   15MOL   C353 7661   4.441   7.996   7.468  0.2098 -0.5824  0.5300
   15MOL   C354 7662   4.497   7.997   7.598 -0.3222 -0.6816  0.1835
   15MOL   H355 7663   4.829   7.733   7.325 -0.1309 -2.7524 -2.9303
   15MOL   H356 7664   4.937   7.594   7.337 -0.7025  0.9509 -2.4488
   15MOL   H357 7665   4.905   7.607   7.597 -1.3422  0.8878  2.1004
   15MOL   H358 7666   4.618   8.034   7.883 -2.4434 -1.4149  0.3199
   15MOL   H359 7667   4.783   7.956   8.063 -2.6668 -1.3749  0.7042
   15MOL   H360 7668   4.943   7.769   8.007 -2.2616 -3.6455  0.4860
   15MOL   H361 7669   4.942   7.668   7.785 -0.6967  0.0891  0.6806
   15MOL   H362 7670   4.604   7.733   7.337  0.6278 -0.0375  0.9831
   15MOL   H363 7671   4.457   7.916   7.267  0.9501 -0.5150  0.1629
   15MOL   H364 7672   4.375   8.078   7.444  1.7546  0.9316  1.3736
   15MOL   H365 7673   4.461   8.065   7.674 -1.4016 -1.4296  0.3624
   15MOL   C366 7674   4.732   7.515   7.493  0.0749  0.1591 -0.5061
   15MOL   C367 7675   4.622   7.485   7.589  0.3400 -0.9365  0.7559
   15MOL   N368 7676   4.525   7.394   7.540 -0.1560 -0.0033  0.0957
   15MOL   C369 7677   4.394   7.428   7.507  0.1475  0.3917 -0.3084
   15MOL   C370 7678   4.320   7.311   7.458 -0.0544  0.5515 -0.2912
   15MOL   C371 7679   4.187   7.330   7.426 -0.1559 -0.4330 -0.0733
   15MOL   C372 7680   4.119   7.452   7.435 -0.1937 -0.7513  0.4717
   15MOL   C373 7681   4.192   7.562   7.476 -0.3068 -0.2916 -0.6883
   15MOL   C374 7682   4.330   7.554   7.498 -0.0247 -0.2141  0.2159
   15MOL   C375 7683   4.414   7.200   7.475  0.6189 -0.2619 -0.1676
   15MOL   C376 7684   4.543   7.261   7.505  0.3386  0.1255  0.3015
   15MOL   C377 7685   4.657   7.176   7.505  0.4939 -0.1867  0.1747
   15MOL   C378 7686   4.646   7.036   7.484 -0.0407 -0.1549 -0.5615
   15MOL   C379 7687   4.519   6.983   7.454 -0.0275  0.4279 -0.1290
   15MOL   C380 7688   4.400   7.062   7.457 -0.6197  0.1651 -1.0867
   15MOL   H381 7689   4.672   7.537   7.405 -0.5162  1.1824  0.1502
   15MOL   H382 7690   4.791   7.429   7.459  0.7969  0.4861 -0.0945
   15MOL   H383 7691   4.571   7.581   7.601  1.0519 -0.6370  1.5150
   15MOL   H384 7692   4.129   7.245   7.394 -0.8363 -0.0724  0.1829
   15MOL   H385 7693   4.014   7.467   7.416 -0.1294  0.5063  1.0659
   15MOL   H386 7694   4.136   7.654   7.481 -3.3074 -1.8876 -3.1484
   15MOL   H387 7695   4.388   7.643   7.516  0.9304 -0.8958  0.5553
   15MOL   H388 7696   4.758   7.210   7.520  0.7961 -0.8159 -0.4015
   15MOL   H389 7697   4.735   6.974   7.488  0.5613  0.7087 -0.2632
   15MOL   H390 7698   4.511   6.880   7.422 -1.5239  0.8926 -1.3594
   15MOL   H391 7699   4.303   7.022   7.435  0.7427 -1.9398 -3.4573
   15MOL   C392 7700   4.682   7.446   7.725  0.5691  0.3682  0.3779
   15MOL   C393 7701   4.583   7.426   7.837  0.2841  0.2755 -0.3019
   15MOL   N394 7702   4.628   7.330   7.940  0.4395 -0.8430 -0.1801
   15MOL   C395 7703   4.615   7.192   7.943  0.3023  0.4334  0.0135
   15MOL   C396 7704   4.680   7.139   8.053  0.0327  0.1257 -0.1551
   15MOL   C397 7705   4.661   7.002   8.085  0.3886 -0.3898 -0.4714
   15MOL   C398 7706   4.597   6.916   7.998 -0.6424  0.1519 -0.1363
   15MOL   C399 7707   4.533   6.976   7.887 -0.1927 -0.0999  0.4421
   15MOL   C400 7708   4.547   7.111   7.851  0.2674 -0.1722  0.5406
   15MOL   C401 7709   4.742   7.245   8.116  0.1413  0.5798  0.1512
   15MOL   C402 7710   4.712   7.364   8.048  0.0355  0.4652  0.3226
   15MOL   C403 7711   4.761   7.485   8.096  0.6013  0.7450 -0.4236
   15MOL   C404 7712   4.827   7.491   8.215  0.3909  0.1057  0.3797
   15MOL   C405 7713   4.866   7.374   0.058 -0.1512 -0.3261 -0.1790
   15MOL   C406 7714   4.820   7.252   0.009  0.0003 -0.3577 -0.2890
   15MOL   H407 7715   4.735   7.351   7.713  0.0183 -0.0761  1.3153
   15MOL   H408 7716   4.758   7.510   7.769  1.9213 -1.7021  1.1586
   15MOL   H409 7717   4.502   7.372   7.787 -0.0118 -0.6616  1.1640
   15MOL   H410 7718   4.703   6.960   8.175  1.7442 -0.5384 -1.1520
   15MOL   H411 7719   4.594   6.809   8.015 -0.1432  0.0561 -0.6536
   15MOL   H412 7720   4.476   6.916   7.817 -1.1078 -0.2927  1.3523
   15MOL   H413 7721   4.507   7.148   7.758 -0.5163 -0.3372  0.8042
   15MOL   H414 7722   4.733   7.584   8.064 -2.2786  0.4518  1.0362
   15MOL   H415 7723   4.854   7.592   0.013 -0.7539  0.6837 -0.5995
   15MOL   H416 7724   4.907   7.374   0.158 -1.3781  2.7752  0.3593
   15MOL   H417 7725   4.853   7.165   0.065  0.1384 -0.5968 -0.7387
   15MOL   C418 7726   4.508   7.554   7.898  0.6912  0.0695 -0.2737
   15MOL   C419 7727   4.365   7.532   7.953 -0.3589  0.4298 -0.3515
   15MOL   N420 7728   4.306   7.652   7.994 -0.0741 -0.3085 -0.3596
   15MOL   C421 7729   4.287   7.694   8.124 -0.1356  0.4297 -0.7896
   15MOL   C422 7730   4.213   7.813   8.127 -0.1778 -0.2062 -0.2965
   15MOL   C423 7731   4.173   7.871   0.023  0.5407  0.0386  1.0585
   15MOL   C424 7732   4.198   7.799   0.147 -0.0849 -0.4881  0.0978
   15MOL   C425 7733   4.277   7.683   0.145 -0.2491 -0.2233 -0.0803
   15MOL   C426 7734   4.316   7.630   0.018 -0.1615 -0.6435 -0.3317
   15MOL   C427 7735   4.185   7.855   7.986  0.0465 -0.3831 -0.9692
   15MOL   C428 7736   4.257   7.757   7.910 -0.2370 -0.1164  0.4471
   15MOL   C429 7737   4.260   7.774   7.771 -0.1907  0.0553 -0.2637
   15MOL   C430 7738   4.194   7.878   7.705  0.3414 -0.3439  0.1883
   15MOL   C431 7739   4.113   7.970   7.777  0.5435 -0.4816  0.1388
   15MOL   C432 7740   4.120   7.959   7.917 -0.5743 -0.2628 -0.1301
   15MOL   H433 7741   4.567   7.612   7.969  0.6452 -2.8565  2.2725
   15MOL   H434 7742   4.509   7.614   7.808  0.8558 -1.9035 -1.6193
   15MOL   H435 7743   4.386   7.472   8.041  1.4627  3.5328  1.4374
   15MOL   H436 7744   4.129   7.970   0.023 -0.6499 -0.4750  1.0352
   15MOL   H437 7745   4.169   7.853   0.236 -2.1604  0.2478 -1.0006
   15MOL   H438 7746   4.307   7.629   0.233  2.8709  0.8283 -0.4500
   15MOL   H439 7747   4.372   7.538   0.020 -0.4238 -0.8168 -0.7937
   15MOL   H440 7748   4.330   7.710   7.720  1.1892  0.6328  0.8916
   15MOL   H441 7749   4.197   7.881   7.597  1.2747 -1.2673  0.1813
   15MOL   H442 7750   4.055   8.052   7.735  0.7578  0.8832  2.4274
   15MOL   H443 7751   4.081   8.032   7.987 -0.5445 -0.4937  0.1295
   15MOL   C444 7752   4.266   7.448   7.871 -0.5569  0.3461  0.1406
   15MOL   C445 7753   4.134   7.408   7.942 -0.0506  0.2393  0.4290
   15MOL   N446 7754   4.040   7.343   7.855  0.0091  0.6069  0.7065
   15MOL   C447 7755   3.916   7.395   7.813 -0.4492  0.8890 -0.3849
   15MOL   C448 7756   3.852   7.301   7.731  0.1516 -0.2045  0.0819
   15MOL   C449 7757   3.722   7.338   7.684 -0.0242  0.8335 -0.6113
   15MOL   C450 7758   3.665   7.471   7.709 -0.0889  0.2323  0.1147
   15MOL   C451 7759   3.739   7.560   7.784 -0.4816 -0.3859  0.2408
   15MOL   C452 7760   3.860   7.516   7.836 -0.2520 -0.0238 -0.9653
   15MOL   C453 7761   3.935   7.193   7.714 -0.2026 -0.0037  0.0910
   15MOL   C454 7762   4.050   7.220   7.792 -0.1371  0.3431 -0.3529
   15MOL   C455 7763   4.153   7.124   7.790 -0.0727  0.0091  0.2401
   15MOL   C456 7764   4.154   7.010   7.714 -0.1178  1.1079  0.2951
   15MOL   C457 7765   4.037   6.982   7.634 -0.2023 -0.1091 -0.1938
   15MOL   C458 7766   3.927   7.077   7.636  0.1290  0.2066 -0.4321
   15MOL   H459 7767   4.253   7.487   7.770  0.3151 -0.5193 -0.3151
   15MOL   H460 7768   4.316   7.350   7.872 -1.0510  0.0682 -1.1995
   15MOL   H461 7769   4.090   7.504   7.970  3.3116  1.4873  1.6872
   15MOL   H462 7770   3.675   7.283   7.603 -0.5430  0.0327  0.2288
   15MOL   H463 7771   3.561   7.488   7.684 -0.2235  0.9105  1.1339
   15MOL   H464 7772   3.696   7.656   7.805  0.2746 -0.1859  0.9159
   15MOL   H465 7773   3.901   7.596   7.895 -1.6575  0.9072 -1.2089
   15MOL   H466 7774   4.241   7.140   7.851 -0.1145 -1.0440  0.5980
   15MOL   H467 7775   4.239   6.947   7.737 -1.3827  0.2078  2.7333
   15MOL   H468 7776   4.028   6.888   7.581  0.5732  1.1729 -2.7134
   15MOL   H469 7777   3.839   7.047   7.580 -1.2032  2.9249  0.1322
   15MOL   C470 7778   4.155   7.333   8.074  0.6156 -0.2021 -0.4690
   15MOL   C471 7779   4.024   7.284   8.145 -0.2978 -0.7653  0.4681
   15MOL   N472 7780   4.067   7.198   0.025 -0.0012  0.0505 -0.0545
   15MOL   C473 7781   4.062   7.056   0.023 -0.6257 -0.2695 -0.3628
   15MOL   C474 7782   4.104   7.008   0.152  0.4060 -0.0497 -0.1044
   15MOL   C475 7783   4.110   6.867   0.175 -0.3084 -0.4963 -0.1936
   15MOL   C476 7784   4.071   6.774   0.076 -0.5537  0.6225  0.0313
   15MOL   C477 7785   4.014   6.823   8.180 -0.6306 -0.4039 -0.0739
   15MOL   C478 7786   4.017   6.964   8.149  0.5169  0.2092  0.3244
   15MOL   C479 7787   4.141   7.127   0.232  0.2216 -0.2153  0.4655
   15MOL   C480 7788   4.124   7.239   0.151  0.4048 -0.0222 -0.1290
   15MOL   C481 7789   4.162   7.371   0.194 -0.1999  1.1826 -0.3893
   15MOL   C482 7790   4.205   7.391   0.330 -0.3657 -0.7905  0.3332
   15MOL   C483 7791   4.225   7.279   0.411  0.0294 -0.4386  0.3579
   15MOL   C484 7792   4.188   7.152   0.367  0.5209  0.2015 -0.0734
   15MOL   H485 7793   4.225   7.251   8.054  1.4253  0.7781 -1.7982
   15MOL   H486 7794   4.212   7.398   8.140  0.4889 -0.4918 -0.0729
   15MOL   H487 7795   3.964   7.224   8.076 -1.0722  2.2357 -1.5909
   15MOL   H488 7796   4.153   6.824   0.264 -1.1703 -2.5411 -0.7384
   15MOL   H489 7797   4.065   6.669   0.100  1.2664  0.4505 -0.1880
   15MOL   H490 7798   3.976   6.763   8.098  3.0072 -2.5122 -0.3115
   15MOL   H491 7799   3.976   7.009   8.059 -0.9575 -1.1889  0.2831
   15MOL   H492 7800   4.142   7.459   0.134 -2.2510 -0.0334 -1.5275
   15MOL   H493 7801   4.236   7.486   0.372 -1.1230 -0.0479 -0.7540
   15MOL   H494 7802   4.252   7.289   0.515  0.8162 -2.3990  0.3527
   15MOL   H495 7803   4.204   7.064   0.427 -4.6719  0.5020  1.9400
   15MOL   C496 7804   3.936   7.409   8.178 -0.9249  0.2672  0.4671
   15MOL   C497 7805   3.827   7.385   0.058  0.5181 -0.2301 -0.2268
   15MOL   N498 7806   3.725   7.490   0.056 -0.1657 -0.4057 -0.6271
   15MOL   C499 7807   3.618   7.490   8.194  0.7626 -0.4989  0.3021
   15MOL   C500 7808   3.528   7.597   0.007 -0.3005 -0.2466 -0.0036
   15MOL   C501 7809   3.405   7.611   8.161 -0.0929 -0.1462 -0.7123
   15MOL   C502 7810   3.385   7.533   8.045 -0.2607 -0.2766 -0.0230
   15MOL   C503 7811   3.472   7.427   8.002  0.7290  0.4277 -0.3441
   15MOL   C504 7812   3.584   7.403   8.084 -0.6653 -0.6413  0.3463
   15MOL   C505 7813   3.587   7.662   0.123  0.2647  0.1799  0.1790
   15MOL   C506 7814   3.715   7.603   0.138 -0.3607  0.1473 -0.3473
   15MOL   C507 7815   3.813   7.661   0.219 -0.2198  0.1910  0.2206
   15MOL   C508 7816   3.781   7.771   0.305 -0.6878 -0.0018 -0.5116
   15MOL   C509 7817   3.644   7.822   0.302 -0.1001 -0.5900  0.1301
   15MOL   C510 7818   3.556   7.772   0.202 -0.2874 -0.1694  0.9876
   15MOL   H511 7819   3.992   7.502   8.191 -3.0731  1.2981  2.7465
   15MOL   H512 7820   3.883   7.441   8.087 -0.3754 -0.9422 -0.2856
   15MOL   H513 7821   3.864   7.374   0.160  2.2290  0.0914 -0.8001
   15MOL   H514 7822   3.340   7.693   8.187 -1.5303 -0.8204 -2.1406
   15MOL   H515 7823   3.305   7.538   7.972  0.8620 -0.8238 -1.3274
   15MOL   H516 7824   3.458   7.372   7.911  0.3139 -1.7562  1.0118
   15MOL   H517 7825   3.652   7.326   8.048 -3.2120 -1.9289 -1.8760
   15MOL   H518 7826   3.913   7.620   0.221 -0.3037 -0.0105  0.2435
   15MOL   H519 7827   3.852   7.813   0.374  0.0497 -2.1273  0.0547
   15MOL   H520 7828   3.618   7.889   0.382  1.9168  0.1997  0.1490
   15MOL   H521 7829   3.459   7.815   0.180  0.0069  0.4644  0.9302
   15MOL   H522 7830   3.777   7.290   0.043  1.4905 -0.8850  0.6017
   16MOL     C1 7831   7.809   7.453   4.614 -0.3884  0.4703 -0.5367
   16MOL     C2 7832   7.898   7.541   4.705 -0.6244 -0.4218  0.1981
   16MOL     N3 7833   7.810   7.637   4.771 -0.1249 -0.2655 -0.1659
   16MOL     C4 7834   7.825   7.779   4.768  0.0198 -0.0886 -0.2948
   16MOL     C5 7835   7.717   7.840   4.840  0.6879  0.4162 -0.5852
   16MOL     C6 7836   7.706   7.979   4.840  0.3941  0.0832 -0.9176
   16MOL     C7 7837   7.806   8.054   4.775 -0.2088  0.3109 -0.8618
   16MOL     C8 7838   7.916   7.996   4.701 -0.4504 -0.3538 -0.5046
   16MOL     C9 7839   7.924   7.859   4.704 -0.1260 -0.2418  0.2644
   16MOL    C10 7840   7.646   7.737   4.901  0.0671 -0.5224  0.3369
   16MOL    C11 7841   7.708   7.614   4.863 -0.3258  0.2013  0.7104
   16MOL    C12 7842   7.664   7.489   4.921  0.3720 -0.4497 -0.3412
   16MOL    C13 7843   7.559   7.485   5.014  0.8190  0.2589  0.0739
   16MOL    C14 7844   7.498   7.608   5.045  0.7814  0.4036 -0.8412
   16MOL    C15 7845   7.540   7.727   4.992 -0.2799 -0.0393 -0.2477
   16MOL    H16 7846   7.748   7.513   4.546  0.6692  2.1443 -0.0153
   16MOL    H17 7847   7.753   7.375   4.666 -0.0331  0.7942  0.3284
   16MOL    H18 7848   7.950   7.596   4.627 -0.3599 -2.5475 -1.1418
   16MOL    H19 7849   7.616   8.025   4.877 -0.6562 -2.6301 -0.0409
   16MOL    H20 7850   7.791   8.161   4.779  0.6182  0.4072 -0.2043
   16MOL    H21 7851   7.991   8.056   4.653  0.2608 -1.3514 -0.6623
   16MOL    H22 7852   8.007   7.812   4.654  0.8809 -0.9056  2.4677
   16MOL    H23 7853   7.717   7.397   4.900  1.7915  0.5993 -1.4025
   16MOL    H24 7854   7.531   7.401   5.077 -0.6297  0.3776 -0.4008
   16MOL    H25 7855   7.423   7.600   5.123  0.3136  1.9701 -1.0916
   16MOL    H26 7856   7.501   7.826   5.011 -0.9801 -0.4414  0.4302
   16MOL    H27 7857   7.876   7.397   4.549  1.1143 -0.0262  1.3975
   16MOL    C28 7858   8.001   7.482   4.796  0.0521  0.0763  0.5882
   16MOL    C29 7859   8.120   7.409   4.734  0.2874  0.0923 -0.0711
   16MOL    N30 7860   8.164   7.480   4.616 -0.2693  0.6790  0.2990
   16MOL    C31 7861   8.168   7.431   4.483  0.3545  0.2523 -0.4992
   16MOL    C32 7862   0.009   7.530   4.402 -0.2624 -0.4993  0.0644
   16MOL    C33 7863   0.007   7.514   4.259 -0.2567  0.3347 -0.2476
   16MOL    C34 7864   8.198   7.391   4.200 -0.0067 -0.4056  0.6998
   16MOL    C35 7865   8.148   7.289   4.280 -0.0887  0.4148 -0.5632
   16MOL    C36 7866   8.126   7.305   4.417 -0.9916 -0.2063 -0.4525
   16MOL    C37 7867   0.048   7.635   4.494  0.1464 -0.4021  0.6490
   16MOL    C38 7868   8.226   7.604   4.618  0.0338 -0.5744 -0.4405
   16MOL    C39 7869   0.019   7.690   4.732 -0.2882 -0.4810  0.2439
   16MOL    C40 7870   0.097   7.802   4.715 -0.2950  0.1781 -0.2038
   16MOL    C41 7871   0.144   7.837   4.585 -0.0326 -0.4438  0.8369
   16MOL    C42 7872   0.110   7.761   4.474  0.4200  0.7721 -0.0491
   16MOL    H43 7873   8.019   7.559   4.870  1.6290  1.4762 -1.1914
   16MOL    H44 7874   7.948   7.410   4.858  0.2832  1.1847  2.0856
   16MOL    H45 7875   8.109   7.312   4.685  0.5929  0.2241 -0.4051
   16MOL    H46 7876   0.032   7.596   4.193  0.6021 -0.1603 -0.5497
   16MOL    H47 7877   8.206   7.385   4.092  1.6440 -1.7905  0.8714
   16MOL    H48 7878   8.115   7.201   4.227 -1.4077  0.2044  0.5723
   16MOL    H49 7879   8.088   7.227   4.482 -1.2331  0.2065 -0.0922
   16MOL    H50 7880   8.212   7.669   4.832 -1.4400 -1.1426 -0.2797
   16MOL    H51 7881   0.122   7.851   4.808  0.8632 -0.2681 -0.2754
   16MOL    H52 7882   0.215   7.917   4.571 -1.7602  1.1757  1.1254
   16MOL    H53 7883   0.130   7.805   4.377 -1.6586  0.0366 -0.8237
   16MOL    C54 7884   0.011   7.385   4.832  0.2074  0.8394  0.2480
   16MOL    C55 7885   8.216   7.262   4.923  0.2492 -0.0605 -0.2987
   16MOL    N56 7886   0.003   7.130   4.855 -0.5824 -0.8212  0.2104
   16MOL    C57 7887   8.139   7.024   4.862 -0.8989  0.0355  0.1032
   16MOL    C58 7888   8.180   6.919   4.781 -0.5752  0.3133  0.3960
   16MOL    C59 7889   8.110   6.798   4.779  0.0479  0.4089 -0.2500
   16MOL    C60 7890   7.998   6.779   4.854  0.3259  0.2062 -0.8509
   16MOL    C61 7891   7.946   6.889   4.925 -0.1597  0.1354 -0.4605
   16MOL    C62 7892   8.014   7.018   4.928  0.2183  0.0053  0.3467
   16MOL    C63 7893   0.074   6.960   4.723  0.5856 -0.1908  0.0620
   16MOL    C64 7894   0.102   7.093   4.766  0.4123  0.0075 -0.5971
   16MOL    C65 7895   0.227   7.146   4.730  0.4879 -0.4202  0.3719
   16MOL    C66 7896   0.302   7.090   4.623  0.2222  0.0892  0.7297
   16MOL    C67 7897   0.272   6.960   4.573  0.4254 -0.3352 -0.2600
   16MOL    C68 7898   0.165   6.896   4.631  1.0602 -0.3368 -0.4133
   16MOL    H69 7899   0.100   7.366   4.772  0.3344  1.2486  0.3062
   16MOL    H70 7900   0.038   7.480   4.878 -1.5157  1.5064 -0.0624
   16MOL    H71 7901   8.113   7.271   4.957  0.5128  0.7419  0.3140
   16MOL    H72 7902   8.160   6.717   4.728  1.5670  1.1549  0.0349
   16MOL    H73 7903   7.958   6.679   4.865 -0.5259  0.5446 -0.7885
   16MOL    H74 7904   7.851   6.879   4.976 -1.1011  1.2595 -1.9662
   16MOL    H75 7905   7.979   7.096   4.993 -3.0879 -1.3694  0.3203
   16MOL    H76 7906   0.250   7.239   4.778 -1.4120 -0.4314  1.3656
   16MOL    H77 7907   0.393   7.139   4.593  0.8359 -1.4966 -0.0907
   16MOL    H78 7908   0.330   6.921   4.492 -1.0073 -3.3565  0.1102
   16MOL    H79 7909   0.141   6.795   4.602  0.2202  0.1639 -1.5374
   16MOL    C80 7910   0.075   7.258   5.052  0.1540 -0.5120 -0.4629
   16MOL    C81 7911   0.058   7.372   5.155  0.5831  0.0293  0.0089
   16MOL    N82 7912   8.150   7.418   5.177  0.1770  0.5313 -0.2915
   16MOL    C83 7913   8.103   7.544   5.155  1.4329 -0.2865  0.5331
   16MOL    C84 7914   7.959   7.557   5.185  0.3527  0.0221 -0.6367
   16MOL    C85 7915   7.895   7.677   5.169  0.6209 -0.0392 -0.2126
   16MOL    C86 7916   7.966   7.788   5.126 -0.3660 -0.3809  0.4837
   16MOL    C87 7917   8.105   7.780   5.103  0.1247  0.1713 -0.5348
   16MOL    C88 7918   8.176   7.656   5.111 -0.0045  0.3926  0.4252
   16MOL    C89 7919   7.925   7.416   5.227 -0.1586 -0.8340  0.4180
   16MOL    C90 7920   8.047   7.339   5.224 -0.4127  0.4502 -0.0391
   16MOL    C91 7921   8.045   7.205   5.263  0.3900  0.2320  0.2001
   16MOL    C92 7922   7.923   7.145   5.297  0.6422 -0.0554  0.3635
   16MOL    C93 7923   7.805   7.221   5.308 -0.3753 -0.9014  0.0461
   16MOL    C94 7924   7.803   7.354   5.267 -0.3177  0.6641 -0.5518
   16MOL    H95 7925   0.049   7.163   5.099  0.2201  0.3608  1.3625
   16MOL    H96 7926   0.179   7.244   5.022 -0.5862 -1.7756 -2.5426
   16MOL    H97 7927   0.110   7.454   5.105 -2.8717  1.5564 -1.2900
   16MOL    H98 7928   7.790   7.686   5.194  0.3867 -1.6131 -0.5643
   16MOL    H99 7929   7.917   7.883   5.110  0.6597  0.7640  3.6616
   16MOL   H100 7930   8.159   7.871   5.080  0.8114 -0.0482  0.1680
   16MOL   H101 7931   0.056   7.657   5.101 -0.1370  0.2087 -1.2562
   16MOL   H102 7932   8.133   7.143   5.254  1.0284  1.1199  0.2630
   16MOL   H103 7933   7.929   7.039   5.316 -3.6053 -1.0398 -3.0833
   16MOL   H104 7934   7.714   7.175   5.344  0.0925 -0.3221  2.0464
   16MOL   H105 7935   7.715   7.414   5.282 -1.2263 -0.8766  0.3921
   16MOL   C106 7936   0.119   7.334   5.288 -0.0135 -0.0105 -0.0470
   16MOL   C107 7937   0.273   7.332   5.306 -0.1070  0.2033  1.0900
   16MOL   N108 7938   0.335   7.430   5.221  0.0987  0.0811 -0.7656
   16MOL   C109 7939   0.437   7.400   5.130 -0.2460 -0.3142 -0.2640
   16MOL   C110 7940   0.478   7.518   5.060 -0.4773  0.6615  0.1832
   16MOL   C111 7941   0.580   7.513   4.964  0.9299 -0.0697  0.7197
   16MOL   C112 7942   0.638   7.388   4.940  0.1267 -0.2845  0.0169
   16MOL   C113 7943   0.602   7.273   5.009 -0.3733 -0.1273 -0.7212
   16MOL   C114 7944   0.499   7.272   5.099 -0.8770 -0.7479  0.4575
   16MOL   C115 7945   0.401   7.627   5.111 -0.2031  0.2891  0.2709
   16MOL   C116 7946   0.320   7.572   5.216  1.3837 -0.7226  0.3482
   16MOL   C117 7947   0.241   7.660   5.289 -0.8000 -0.3626  0.3965
   16MOL   C118 7948   0.227   7.796   5.251 -1.3256 -1.0127 -0.1201
   16MOL   C119 7949   0.299   7.850   5.139  0.7319  0.1946  0.3688
   16MOL   C120 7950   0.387   7.766   5.071  0.1387  0.2333 -0.5110
   16MOL   H121 7951   0.081   7.409   5.357  1.8300  1.7286 -0.8908
   16MOL   H122 7952   0.073   7.242   5.326 -1.2860  0.7415  0.2659
   16MOL   H123 7953   0.298   7.231   5.272 -1.2344  0.6455 -1.1608
   16MOL   H124 7954   0.614   7.606   4.921 -1.2480  0.3509 -0.1898
   16MOL   H125 7955   0.712   7.381   4.862 -0.5643 -2.0021 -0.5068
   16MOL   H126 7956   0.664   7.186   4.996 -1.8098 -1.3020  0.1521
   16MOL   H127 7957   0.475   7.177   5.145  0.6169 -1.0007  0.7283
   16MOL   H128 7958   0.176   7.622   5.366 -1.2778  0.0954  0.2217
   16MOL   H129 7959   0.150   7.855   5.297 -0.7733  1.0496 -1.7921
   16MOL   H130 7960   0.270   7.950   5.107 -2.4460  0.3171  3.2676
   16MOL   H131 7961   0.438   7.800   4.983  1.6121  2.0057  0.9934
   16MOL   C132 7962   0.320   7.357   5.455  0.4388 -0.3432  0.0543
   16MOL   C133 7963   0.281   7.234   5.544 -0.3315 -0.6104 -0.0414
   16MOL   N134 7964   0.330   7.104   5.495 -0.7750  0.3129 -0.1796
   16MOL   C135 7965   0.254   7.007   5.422  0.1108 -0.5947 -0.4779
   16MOL   C136 7966   0.343   6.920   5.353  0.4160 -0.7233  0.2640
   16MOL   C137 7967   0.296   6.829   5.263  0.2743  0.1218 -0.4106
   16MOL   C138 7968   0.157   6.823   5.245 -0.6433 -0.1360  0.1571
   16MOL   C139 7969   0.066   6.903   5.316 -0.4085 -0.5174 -0.7279
   16MOL   C140 7970   0.113   6.998   5.406  0.0332  0.3614 -0.1910
   16MOL   C141 7971   0.472   6.952   5.398 -0.5613  0.4089 -0.0336
   16MOL   C142 7972   0.461   7.064   5.487  0.2680 -0.1850 -0.2536
   16MOL   C143 7973   0.582   7.126   5.529  1.5285 -0.7108 -0.0242
   16MOL   C144 7974   0.705   7.057   5.511 -0.3521 -0.3790  0.0081
   16MOL   C145 7975   0.711   6.946   5.431 -0.1542 -0.4817  0.1287
   16MOL   C146 7976   0.596   6.891   5.373  0.4557 -0.3300  0.2201
   16MOL   H147 7977   0.428   7.371   5.453  0.0656  2.9295  0.8618
   16MOL   H148 7978   0.290   7.459   5.476 -0.1378 -0.0849 -1.8916
   16MOL   H149 7979   0.173   7.222   5.535 -0.6050  1.3869  0.4565
   16MOL   H150 7980   0.358   6.767   5.200  1.5550 -0.4221  1.3277
   16MOL   H151 7981   0.112   6.764   5.167 -1.7394  2.9629 -1.6315
   16MOL   H152 7982   8.190   6.875   5.299 -0.7354  0.9272 -1.1560
   16MOL   H153 7983   0.049   7.056   5.471  0.6127  0.4325  0.3245
   16MOL   H154 7984   0.580   7.222   5.579  0.6860 -0.7581  0.0273
   16MOL   H155 7985   0.797   7.101   5.548 -0.5505 -0.4798  0.6287
   16MOL   H156 7986   0.804   6.897   5.404  0.3666 -1.1911  3.0884
   16MOL   H157 7987   0.606   6.801   5.315  2.1446  0.8594 -1.4066
   16MOL   C158 7988   0.301   7.248   5.693  0.1910  0.1473 -0.1248
   16MOL   C159 7989   0.197   7.352   5.761  0.2612  0.0630  0.1827
   16MOL   N160 7990   0.058   7.331   5.722  0.0937  0.2420  1.2357
   16MOL   C161 7991   8.199   7.430   5.672  0.2988  0.3041 -0.5677
   16MOL   C162 7992   8.077   7.367   5.631 -0.2654  0.8460  1.0308
   16MOL   C163 7993   7.978   7.447   5.571  0.3123  0.3933 -0.6523
   16MOL   C164 7994   7.994   7.590   5.548  0.0023  0.2537 -0.3224
   16MOL   C165 7995   8.121   7.646   5.590  0.7999 -0.2833 -0.1262
   16MOL   C166 7996   8.216   7.572   5.649 -0.5084  0.5859  0.4027
   16MOL   C167 7997   8.092   7.227   5.655  0.0550 -0.7272  0.6480
   16MOL   C168 7998   8.216   7.204   5.715 -0.0623  0.4512  0.5482
   16MOL   C169 7999   0.027   7.073   5.746 -0.5317 -0.4212  0.3197
   16MOL   C170 8000   8.176   6.957   5.718 -0.7948 -0.2522 -0.5578
   16MOL   C171 8001   8.056   6.985   5.661  0.2138 -0.2931 -0.3024
   16MOL   C172 8002   8.007   7.116   5.630  0.5447 -0.2384  0.2659
   16MOL   H173 8003   0.299   7.152   5.744  1.8946 -0.6815 -1.5398
   16MOL   H174 8004   0.402   7.289   5.702 -0.3446  1.1940  1.2593
   16MOL   H175 8005   0.230   7.451   5.730  0.1163  0.7908  2.2657
   16MOL   H176 8006   7.889   7.394   5.543  0.0475  0.6289 -0.2512
   16MOL   H177 8007   7.920   7.664   5.522  1.5346  1.3265 -1.6737
   16MOL   H178 8008   8.130   7.753   5.578  0.9761 -0.0264  2.2112
   16MOL   H179 8009   0.079   7.620   5.683 -0.3961  0.1790  0.6922
   16MOL   H180 8010   0.124   7.055   5.791  1.3987  1.8161 -2.8200
   16MOL   H181 8011   8.214   6.859   5.741 -3.8429 -1.2556  0.4092
   16MOL   H182 8012   7.991   6.905   5.631 -0.4549  0.0377  0.2472
   16MOL   H183 8013   7.911   7.123   5.582  1.2744  1.5639 -1.0037
   16MOL   C184 8014   0.209   7.346   5.917  0.2659 -0.4506 -0.0339
   16MOL   C185 8015   0.155   7.459   6.002 -0.2646  0.0962  0.2631
   16MOL   N186 8016   0.062   7.416   6.100 -0.0231 -0.1955 -0.0574
   16MOL   C187 8017   8.158   7.467   6.113  0.3624 -0.1287 -0.5966
   16MOL   C188 8018   8.096   7.391   6.221 -0.3525 -0.1355 -0.5057
   16MOL   C189 8019   7.960   7.419   6.247 -0.0718 -0.4496  0.2002
   16MOL   C190 8020   7.896   7.533   6.188  0.0358 -0.7237  0.4495
   16MOL   C191 8021   7.952   7.600   6.082  0.4142 -0.1604  0.0573
   16MOL   C192 8022   8.081   7.569   6.046  0.0934 -0.0175 -0.1164
   16MOL   C193 8023   8.187   7.294   6.272  0.5181 -0.2662 -0.5322
   16MOL   C194 8024   0.080   7.316   6.202  0.1945 -0.0400  0.0805
   16MOL   C195 8025   0.195   7.244   6.225 -0.1348  0.5589  0.5994
   16MOL   C196 8026   0.187   7.132   6.314 -0.5406 -0.5125 -0.3624
   16MOL   C197 8027   0.074   7.103   6.391 -0.8154  0.1775  0.0837
   16MOL   C198 8028   8.193   7.190   6.373 -0.2155 -0.0727  0.9066
   16MOL   H199 8029   0.169   7.251   5.952 -0.6525  0.0176  0.1983
   16MOL   H200 8030   0.315   7.336   5.943  0.5881  1.0805 -0.6533
   16MOL   H201 8031   0.107   7.526   5.930  2.9665  2.8888  0.5723
   16MOL   H202 8032   7.914   7.358   6.323  1.4045 -0.4185  1.1325
   16MOL   H203 8033   7.791   7.552   6.205  0.3254  0.8168  0.5114
   16MOL   H204 8034   7.891   7.668   6.024  2.1934  2.0174  0.6927
   16MOL   H205 8035   8.128   7.637   5.976 -2.5026  1.4835 -0.4485
   16MOL   H206 8036   0.281   7.250   6.159 -0.2446  0.9607  0.4945
   16MOL   H207 8037   0.267   7.059   6.317  3.0622  3.2494 -1.1539
   16MOL   H208 8038   0.069   7.016   6.455 -1.9618  1.8448  2.3682
   16MOL   H209 8039   8.100   7.167   6.424 -0.4030  1.4309  1.2868
   16MOL   C210 8040   0.268   7.539   6.079  0.6420 -0.4488  0.4792
   16MOL   C211 8041   0.338   7.644   5.988 -0.4748  0.3260  0.8324
   16MOL   N212 8042   0.245   7.753   5.960  1.0051  0.1029 -0.1142
   16MOL   C213 8043   0.229   7.792   5.831  0.0875 -1.3447 -0.2272
   16MOL   C214 8044   0.136   7.908   5.831  0.2489  0.2612 -0.2758
   16MOL   C215 8045   0.104   7.975   5.714 -0.1834  0.4623  0.1787
   16MOL   C216 8046   0.168   7.933   5.594 -0.5444  0.4482  0.1173
   16MOL   C217 8047   0.268   7.828   5.589  0.3819  1.0001  0.3701
   16MOL   C218 8048   0.297   7.758   5.709 -0.1170  0.2253 -0.5955
   16MOL   C219 8049   0.095   7.923   5.966  0.1840 -1.0310  0.1747
   16MOL   C220 8050   0.163   7.831   6.043 -0.1987 -0.0096 -0.1281
   16MOL   C221 8051   0.151   7.828   6.187 -0.1811 -0.3198 -0.4488
   16MOL   C222 8052   0.063   7.926   6.243  0.7613 -0.5004 -0.7989
   16MOL   C223 8053   8.223   8.022   6.162  0.0094 -0.6556 -0.0079
   16MOL   C224 8054   0.007   8.015   6.022 -0.5275 -0.1389  0.8295
   16MOL   H225 8055   0.221   7.580   6.168  2.3427  4.0714 -0.5872
   16MOL   H226 8056   0.345   7.468   6.111  0.6200  0.1592  1.9120
   16MOL   H227 8057   0.374   7.600   5.895 -0.6849  2.8923 -0.5235
   16MOL   H228 8058   0.030   8.051   5.695  0.1157  0.3624 -1.5119
   16MOL   H229 8059   0.141   7.980   5.500  1.6911  0.4670 -0.5453
   16MOL   H230 8060   0.308   7.805   5.491 -1.1131  1.8020 -0.4532
   16MOL   H231 8061   0.368   7.677   5.706  0.2471  0.5044  0.4087
   16MOL   H232 8062   0.203   7.759   6.251  1.8070  0.4529 -1.1912
   16MOL   H233 8063   0.061   7.935   6.351  0.3954 -0.1271 -0.8331
   16MOL   H234 8064   8.165   8.101   6.208  1.5595  0.0754  0.7202
   16MOL   H235 8065   8.184   8.085   5.956  1.6952 -0.0587 -0.8477
   16MOL   C236 8066   0.461   7.706   6.055  0.2310 -0.0251  0.2219
   16MOL   C237 8067   0.577   7.615   6.092 -0.0844  0.3016  0.1601
   16MOL   N238 8068   0.622   7.525   5.983 -0.1210  0.6032 -0.7079
   16MOL   C239 8069   0.626   7.385   5.992  0.4203 -1.0135 -0.0248
   16MOL   C240 8070   0.684   7.330   5.872 -0.0122  0.3162  0.5199
   16MOL   C241 8071   0.697   7.191   5.865  0.2190 -0.6264  0.5737
   16MOL   C242 8072   0.653   7.107   5.962 -0.2542  0.2556  0.3336
   16MOL   C243 8073   0.603   7.161   6.083  0.5778 -0.3688 -0.1908
   16MOL   C244 8074   0.587   7.298   6.098  0.1725 -0.3330 -0.1296
   16MOL   C245 8075   0.720   7.437   5.782 -0.0316 -0.4483  0.1269
   16MOL   C246 8076   0.681   7.553   5.853 -0.0144 -0.5287 -0.2234
   16MOL   C247 8077   0.700   7.680   5.791  0.1420  0.2630  0.3852
   16MOL   C248 8078   0.749   7.691   5.657 -0.2954 -0.0248  0.3169
   16MOL   C249 8079   0.782   7.575   5.589 -0.0559  0.2878 -0.1035
   16MOL   C250 8080   0.779   7.454   5.650  0.7327  0.1862 -0.3160
   16MOL   H251 8081   0.500   7.790   5.998  0.1347  0.3633  0.7201
   16MOL   H252 8082   0.428   7.759   6.145 -0.4709  1.6593 -0.9986
   16MOL   H253 8083   0.545   7.551   6.174 -1.9878  0.7760 -0.1905
   16MOL   H254 8084   0.758   7.151   5.785  0.6359 -1.9364  1.5229
   16MOL   H255 8085   0.661   7.001   5.945 -3.3435 -0.1692  1.2510
   16MOL   H256 8086   0.566   7.100   6.163 -0.9620  1.3475  0.4366
   16MOL   H257 8087   0.537   7.340   6.185  2.9320  1.3293  0.6936
   16MOL   H258 8088   0.672   7.777   5.828  0.2223  0.7643 -0.8687
   16MOL   H259 8089   0.760   7.787   5.609  0.7600 -0.2034  0.1988
   16MOL   H260 8090   0.802   7.586   5.484 -0.3326  2.5250  0.0506
   16MOL   H261 8091   0.805   7.363   5.598 -0.6925 -1.8159  2.3110
   16MOL   C262 8092   0.701   7.692   6.142 -0.7896  0.2838 -0.0185
   16MOL   C263 8093   0.703   7.757   6.280 -0.3901 -0.4279  0.6038
   16MOL   N264 8094   0.638   7.674   6.379 -0.1124  0.0266  0.3725
   16MOL   C265 8095   0.537   7.722   6.466  0.4785  0.6053  0.3932
   16MOL   C266 8096   0.485   7.613   6.546 -0.1537  0.2491 -0.4887
   16MOL   C267 8097   0.381   7.641   6.640 -0.7687  0.1471 -0.1127
   16MOL   C268 8098   0.335   7.775   6.661  0.2572  0.0056 -0.6560
   16MOL   C269 8099   0.393   7.881   6.586  0.0034  0.3608 -0.3133
   16MOL   C270 8100   0.487   7.853   6.485  0.4480  0.7830 -0.9304
   16MOL   C271 8101   0.564   7.496   6.509  0.9516 -0.7216  0.8170
   16MOL   C272 8102   0.663   7.542   6.417 -0.5466  0.5167 -0.3345
   16MOL   C273 8103   0.760   7.453   6.375 -0.5591  0.2499  0.3018
   16MOL   C274 8104   0.764   7.322   6.421 -0.5083 -0.3570  1.0260
   16MOL   C275 8105   0.666   7.274   6.508  0.2829 -0.0607 -0.4393
   16MOL   C276 8106   0.571   7.362   6.553  0.4572 -0.4272 -0.4975
   16MOL   H277 8107   0.776   7.614   6.138 -2.0734 -1.2018  3.1459
   16MOL   H278 8108   0.751   7.756   6.069  0.0155 -1.4743 -1.0214
   16MOL   H279 8109   0.642   7.848   6.274  2.3402  1.6442  2.8949
   16MOL   H280 8110   0.342   7.558   6.696  0.6490  0.3672  1.2241
   16MOL   H281 8111   0.264   7.793   6.741  0.0871  3.3056 -1.4512
   16MOL   H282 8112   0.356   7.983   6.585 -1.7043 -0.2311 -0.1282
   16MOL   H283 8113   0.511   7.932   6.415  1.2977  1.5445  0.1919
   16MOL   H284 8114   0.831   7.480   6.298 -0.4195 -3.9891 -1.1990
   16MOL   H285 8115   0.838   7.256   6.378 -1.0853 -0.5036  0.2321
   16MOL   H286 8116   0.656   7.173   6.544  0.4265  0.5050  1.2357
   16MOL   H287 8117   0.492   7.320   6.614  0.2912 -1.0148 -1.1045
   16MOL   C288 8118   0.846   7.798   6.324 -0.2283 -0.1307 -0.0609
   16MOL   C289 8119   0.907   7.905   6.240 -1.0122 -0.4803  0.0107
   16MOL   N290 8120   0.818   8.023   6.221 -0.2177  0.2159  0.3827
   16MOL   C291 8121   0.798   8.085   6.095  0.5156 -0.0496 -0.3039
   16MOL   C292 8122   0.696   8.190   6.109 -0.3034  0.1901  0.1466
   16MOL   C293 8123   0.660   0.032   5.998  0.0267 -0.6993  0.0516
   16MOL   C294 8124   0.708   0.005   5.870 -0.4824  0.0450 -0.9898
   16MOL   C295 8125   0.802   8.125   5.857  0.0871 -0.9358 -0.5811
   16MOL   C296 8126   0.846   8.049   5.968  0.0517  0.4871 -0.2270
   16MOL   C297 8127   0.662   8.194   6.251  0.4911 -0.5829  0.2551
   16MOL   C298 8128   0.746   8.100   6.320  0.7316  0.1001  0.3631
   16MOL   C299 8129   0.732   8.082   6.461 -0.3955 -0.4600  0.0658
   16MOL   C300 8130   0.642   8.165   6.533  0.0158 -0.1478  0.3244
   16MOL   C301 8131   0.571   0.042   6.467 -0.2177  0.2318  0.2675
   16MOL   C302 8132   0.584   0.060   6.329  0.0057  0.4701 -0.4449
   16MOL   H303 8133   0.845   7.818   6.431  0.6423 -0.1574 -0.0417
   16MOL   H304 8134   0.905   7.707   6.313 -2.0381 -1.2841 -0.4289
   16MOL   H305 8135   0.919   7.872   6.137  0.4009  1.3192 -0.4350
   16MOL   H306 8136   0.598   0.118   6.020 -0.1323 -0.9154  0.4341
   16MOL   H307 8137   0.681   0.053   5.777 -3.3123  0.9053  0.2155
   16MOL   H308 8138   0.837   8.090   5.760  2.0068 -0.7318  0.0271
   16MOL   H309 8139   0.906   7.961   5.949  0.1089  0.5697 -0.4272
   16MOL   H310 8140   0.787   8.010   6.519 -2.2024 -0.4811  1.8129
   16MOL   H311 8141   0.630   8.147   6.639  1.4428 -0.9291  0.3646
   16MOL   H312 8142   0.504   0.100   6.528  2.7318  2.3415  1.6366
   16MOL   H313 8143   0.526   0.140   6.283  2.7548  2.3454 -0.7867
   16MOL   C314 8144   1.056   7.945   6.290 -0.4740  0.2171  0.7081
   16MOL   C315 8145   1.169   7.841   6.273 -0.3927 -0.5963  1.0038
   16MOL   N316 8146   1.164   7.789   6.136  0.2308  0.0406 -0.3642
   16MOL   C317 8147   1.120   7.661   6.097  0.2835  0.8248  0.3604
   16MOL   C318 8148   1.116   7.656   5.955  0.0182 -0.4103 -0.0384
   16MOL   C319 8149   1.068   7.541   5.893 -0.1647 -0.1151 -0.0253
   16MOL   C320 8150   1.037   7.422   5.971 -0.3525 -0.3499 -0.3461
   16MOL   C321 8151   1.044   7.429   6.111  0.0365 -0.3421 -0.1019
   16MOL   C322 8152   1.076   7.553   6.176  0.5085 -0.0278 -0.6183
   16MOL   C323 8153   1.155   7.780   5.907  0.6701  0.5261  0.4467
   16MOL   C324 8154   1.185   7.859   6.017 -0.3846 -0.2875  0.1149
   16MOL   C325 8155   1.226   7.993   5.990  0.7024  0.3727 -0.2579
   16MOL   C326 8156   1.241   8.040   5.863 -0.0377 -0.5738 -0.5596
   16MOL   C327 8157   1.217   7.958   5.758  0.0637 -0.3969 -0.5249
   16MOL   C328 8158   1.168   7.830   5.772  0.2383 -0.2966  0.1748
   16MOL   H329 8159   1.097   8.033   6.242  0.6239 -0.2292  0.8256
   16MOL   H330 8160   1.038   7.980   6.392 -1.6204 -0.1360  0.6386
   16MOL   H331 8161   1.147   7.757   6.339 -3.0790 -1.0012 -0.3547
   16MOL   H332 8162   1.053   7.539   5.786 -2.4116 -0.0481  0.2598
   16MOL   H333 8163   1.013   7.332   5.917  2.2751 -0.3110 -1.6566
   16MOL   H334 8164   1.004   7.346   6.166 -0.2012  0.0495  0.3244
   16MOL   H335 8165   1.072   7.566   6.283  0.6266  0.4661 -0.6729
   16MOL   H336 8166   1.256   8.050   6.077  5.0860 -0.6182 -0.9646
   16MOL   H337 8167   1.268   8.143   5.844 -1.2714  0.0003  0.6632
   16MOL   H338 8168   1.229   8.000   5.660  1.6460  0.9189  0.2102
   16MOL   H339 8169   1.156   7.773   5.681 -1.0710 -3.0332  2.0002
   16MOL   C340 8170   1.310   7.883   6.311  0.0516 -0.0363  0.5100
   16MOL   C341 8171   1.322   7.933   6.464  0.0613  0.2193 -0.4809
   16MOL   N342 8172   1.274   7.824   6.551  0.0760 -0.2936  0.4800
   16MOL   C343 8173   1.159   7.836   6.636 -0.4742  0.5675  0.2217
   16MOL   C344 8174   1.132   7.703   6.687 -0.1005 -0.4865 -0.2272
   16MOL   C345 8175   1.022   7.670   6.766  0.7021  0.2398  0.0039
   16MOL   C346 8176   0.925   7.771   6.793 -0.6627  0.7796 -0.7678
   16MOL   C347 8177   0.953   7.906   6.748  0.0502  0.0901 -0.9256
   16MOL   C348 8178   1.074   7.942   6.678 -0.1664 -0.3730  0.3150
   16MOL   C349 8179   1.237   7.616   6.646 -0.1566  0.6517 -1.0653
   16MOL   C350 8180   1.321   7.693   6.558 -0.3347 -0.8437  0.3867
   16MOL   C351 8181   1.445   7.653   6.512 -0.8906  0.5383  0.2904
   16MOL   C352 8182   1.483   7.521   6.542  0.3564 -0.2440 -0.9253
   16MOL   C353 8183   1.398   7.434   6.618 -0.2649 -0.1651  0.2468
   16MOL   C354 8184   1.273   7.483   6.671 -0.3633 -0.0755  0.3599
   16MOL   H355 8185   1.376   7.797   6.293  0.4285  0.7159 -1.8275
   16MOL   H356 8186   1.344   7.972   6.258  0.7120 -1.8094 -2.1513
   16MOL   H357 8187   1.260   8.021   6.483 -0.3010 -0.4483  1.5404
   16MOL   H358 8188   1.006   7.570   6.804 -1.6008 -0.2197 -2.0489
   16MOL   H359 8189   0.844   7.747   6.860  2.6274 -0.4028  3.0002
   16MOL   H360 8190   0.880   7.984   6.768  0.2917  0.1713 -0.3662
   16MOL   H361 8191   1.091   8.040   6.637 -2.9492 -0.0706 -0.2145
   16MOL   H362 8192   1.514   7.716   6.457 -0.2312 -0.1155  0.3529
   16MOL   H363 8193   1.582   7.489   6.511  0.9259  0.6135 -0.0292
   16MOL   H364 8194   1.423   7.330   6.632 -0.6740 -0.2019  0.7618
   16MOL   H365 8195   1.215   7.418   6.735 -0.5213  0.6847  0.9871
   16MOL   C366 8196   1.458   7.996   6.497 -0.3153  0.9518  0.3960
   16MOL   C367 8197   1.458   8.060   6.639  0.0055  0.9502 -0.2697
   16MOL   N368 8198   1.528   7.973   6.737  0.0273 -0.1049 -0.2791
   16MOL   C369 8199   1.472   7.924   6.855  0.4352 -0.3831 -0.4612
   16MOL   C370 8200   1.555   7.820   6.907  0.0719 -0.7462  0.0699
   16MOL   C371 8201   1.509   7.736   7.009  0.1613 -0.5773 -0.2802
   16MOL   C372 8202   1.385   7.759   7.075 -0.0540  0.1840 -0.1752
   16MOL   C373 8203   1.301   7.867   7.026  0.0971  0.6188 -0.0673
   16MOL   C374 8204   1.339   7.948   6.916 -0.2240  0.1763 -0.0105
   16MOL   C375 8205   1.676   7.831   6.830 -0.1994  0.2026 -0.7127
   16MOL   C376 8206   1.655   7.924   6.733  0.0317  0.3656  0.9924
   16MOL   C377 8207   1.760   7.937   6.633 -0.5873  0.3753 -0.9201
   16MOL   C378 8208   1.883   7.866   6.649 -0.2296 -0.9518  0.8376
   16MOL   C379 8209   1.905   7.783   6.760 -0.3428 -0.6633  0.5252
   16MOL   C380 8210   1.796   7.763   6.847  0.4058  0.3726 -0.0109
   16MOL   H381 8211   1.534   7.920   6.476 -1.9381  0.1394 -2.7817
   16MOL   H382 8212   1.472   8.075   6.424 -2.5160 -2.8572 -4.4824
   16MOL   H383 8213   1.362   8.066   6.691  0.0498 -0.0648 -0.0569
   16MOL   H384 8214   1.566   7.652   7.045  1.1708  0.6290  0.9754
   16MOL   H385 8215   1.353   7.700   7.160  3.0165  1.2973  1.8481
   16MOL   H386 8216   1.216   7.896   7.086  1.0439  1.4422  0.8792
   16MOL   H387 8217   1.276   8.029   6.883 -1.5209 -0.6019  0.5038
   16MOL   H388 8218   1.740   8.000   6.548 -1.8008  1.4650  0.1587
   16MOL   H389 8219   1.963   7.883   6.578 -0.1056 -2.2855  0.6420
   16MOL   H390 8220   1.998   7.729   6.769  0.7548  0.9662 -0.7060
   16MOL   H391 8221   1.817   7.693   6.927  0.5123  0.6177  0.1743
   16MOL   C392 8222   1.508   8.205   6.659 -0.1806  0.4505  0.5401
   16MOL   C393 8223   1.459   0.088   6.568  0.2794  0.6798  0.0251
   16MOL   N394 8224   1.316   0.079   6.528  0.3844 -0.4170  0.1428
   16MOL   C395 8225   1.261   0.078   6.398 -0.3337 -0.1762  0.5710
   16MOL   C396 8226   1.126   0.084   6.406 -0.5192 -0.1624  0.0751
   16MOL   C397 8227   1.054   0.085   6.281 -0.2478  0.1753 -0.4732
   16MOL   C398 8228   1.116   0.075   6.156  0.0376 -0.3709 -0.4055
   16MOL   C399 8229   1.260   0.068   6.158  0.2354 -0.4171 -0.3785
   16MOL   C400 8230   1.330   0.078   6.280 -0.3690 -0.7495  0.3749
   16MOL   C401 8231   1.091   0.092   6.539 -0.5049 -0.3313 -0.0015
   16MOL   C402 8232   1.213   0.089   6.619 -0.1599 -0.0511 -0.0455
   16MOL   C403 8233   1.211   0.106   6.761  0.2071  0.4347  0.2340
   16MOL   C404 8234   1.090   0.122   6.832  0.3589 -0.2396  0.2806
   16MOL   C405 8235   0.978   0.128   6.752  0.4216 -0.0278 -0.4251
   16MOL   C406 8236   0.975   0.114   6.612 -0.2915 -0.1510  0.5544
   16MOL   H407 8237   1.487   0.004   6.762  1.7586  0.5690  0.9217
   16MOL   H408 8238   1.615   8.215   6.643 -0.5747  2.5744 -1.0648
   16MOL   H409 8239   1.519   0.059   6.482 -0.0978 -0.4869  0.1383
   16MOL   H410 8240   0.946   0.090   6.291 -0.3885 -1.4136 -1.0297
   16MOL   H411 8241   1.061   0.075   6.064 -0.3751 -0.9731 -0.1673
   16MOL   H412 8242   1.313   0.057   6.064  1.6919  1.5083  0.1900
   16MOL   H413 8243   1.437   0.063   6.273  0.0499  3.1455 -3.4022
   16MOL   H414 8244   1.303   0.090   6.816  0.3642  0.8728  0.1005
   16MOL   H415 8245   1.078   0.116   6.939 -1.1330 -0.3267  0.1242
   16MOL   H416 8246   0.887   0.139   6.810  1.0986 -0.2436  0.6853
   16MOL   H417 8247   0.878   0.129   6.566  0.6578  0.6623 -1.2454
   16MOL   C418 8248   1.506   0.232   6.600 -0.1510 -0.2296  0.1913
   16MOL   C419 8249   1.650   0.243   6.621 -0.1304 -0.4849 -0.7317
   16MOL   N420 8250   1.739   0.190   6.521  0.4449 -0.1533 -0.8794
   16MOL   C421 8251   1.832   0.094   6.548 -0.1336 -0.4690 -0.8058
   16MOL   C422 8252   1.908   0.071   6.433 -0.1804  0.2519  0.6241
   16MOL   C423 8253   2.025   8.211   6.441  0.5178  0.5892 -0.3943
   16MOL   C424 8254   2.068   8.160   6.563  0.4881 -0.1893 -0.4449
   16MOL   C425 8255   1.991   8.188   6.679 -0.1054 -0.2498 -0.2048
   16MOL   C426 8256   1.869   0.030   6.670  0.0789  0.0829  0.1324
   16MOL   C427 8257   1.847   0.143   6.322  0.4489 -0.3162  0.0558
   16MOL   C428 8258   1.744   0.222   6.384 -0.0084  0.5692 -0.6770
   16MOL   C429 8259   1.669   0.307   6.304 -0.2542  0.0871 -0.3241
   16MOL   C430 8260   1.685   0.315   6.167  0.4641  0.4160 -0.8789
   16MOL   C431 8261   1.783   0.242   6.107 -0.2005 -0.3102 -1.4554
   16MOL   C432 8262   1.860   0.149   6.181 -0.0380  0.6080 -0.5534
   16MOL   H433 8263   1.471   0.303   6.525 -0.7337 -1.7593 -0.9979
   16MOL   H434 8264   1.454   0.255   6.693 -1.2833  0.9772 -0.7200
   16MOL   H435 8265   1.669   0.190   6.714 -3.3490  1.0359  0.8777
   16MOL   H436 8266   2.089   8.198   6.355  0.7993  0.5435 -0.1786
   16MOL   H437 8267   2.151   8.091   6.564  0.9261  0.3469  0.8276
   16MOL   H438 8268   2.022   8.145   6.773 -0.0012  1.2266  0.4539
   16MOL   H439 8269   1.807   0.040   6.759  2.6154  1.2033  1.8544
   16MOL   H440 8270   1.607   0.374   6.362  1.8011 -0.2432  2.3926
   16MOL   H441 8271   1.631   0.382   6.101 -2.5356 -1.3819 -0.3244
   16MOL   H442 8272   1.790   0.248   5.999  0.8666 -0.6094 -1.4118
   16MOL   H443 8273   1.935   0.090   6.131  0.4426 -0.0876  0.9696
   16MOL   C444 8274   1.681   0.392   6.650  0.7312  0.2983 -0.1072
   16MOL   C445 8275   1.616   0.461   6.777  0.3253  0.6077  0.6649
   16MOL   N446 8276   1.652   0.388   6.901 -0.1057 -0.0448  0.4907
   16MOL   C447 8277   1.557   0.321   6.983  0.1797 -0.1767 -0.3861
   16MOL   C448 8278   1.621   0.265   7.096  0.1738 -0.6449  0.0397
   16MOL   C449 8279   1.542   0.195   7.192 -0.7112 -0.2786  0.4295
   16MOL   C450 8280   1.401   0.183   7.173 -0.3119 -0.1025  0.2187
   16MOL   C451 8281   1.341   0.232   7.055 -0.1409 -0.0539  0.0346
   16MOL   C452 8282   1.417   0.304   6.958 -0.0430  0.3007  0.6488
   16MOL   C453 8283   1.761   0.301   7.073  1.1579  0.1801 -0.4579
   16MOL   C454 8284   1.776   0.364   6.952 -0.3290 -0.2200 -0.1977
   16MOL   C455 8285   1.899   0.398   6.908 -0.0480  0.0743 -0.1135
   16MOL   C456 8286   2.015   0.372   6.982  0.3382  0.7538  0.6353
   16MOL   C457 8287   1.999   0.329   7.118  0.0220 -0.0821  0.2939
   16MOL   C458 8288   1.871   0.283   7.157  0.9786  0.1460 -0.2386
   16MOL   H459 8289   1.789   0.405   6.659  0.8255 -0.6223  0.1124
   16MOL   H460 8290   1.650   0.449   6.562 -1.6675 -2.1882 -0.9049
   16MOL   H461 8291   1.508   0.451   6.768  0.7265 -1.4895 -2.9197
   16MOL   H462 8292   1.585   0.154   7.282  0.3111 -1.0503 -0.3929
   16MOL   H463 8293   1.348   0.125   7.247  0.0949  0.9720  1.3635
   16MOL   H464 8294   1.235   0.252   7.050 -0.0225  0.9516  1.1923
   16MOL   H465 8295   1.373   0.358   6.876 -1.7835 -0.3441  1.1501
   16MOL   H466 8296   1.900   0.457   6.818 -1.6768  0.1612 -0.0872
   16MOL   H467 8297   2.113   0.392   6.942 -0.7037 -0.1573 -2.5087
   16MOL   H468 8298   2.088   0.328   7.179  0.6553  1.7791 -0.5429
   16MOL   H469 8299   1.875   0.255   7.261  3.1529  0.9924 -0.0580
   16MOL   C470 8300   1.643   0.616   6.778 -0.2782  0.4182 -0.6218
   16MOL   C471 8301   1.582   0.699   6.663 -0.8469 -0.1705  0.4341
   16MOL   N472 8302   1.444   0.665   6.624  0.1130  0.1281 -0.2257
   16MOL   C473 8303   1.395   0.620   6.499  0.0255 -0.8074  0.5011
   16MOL   C474 8304   1.261   0.588   6.505 -0.4818 -0.0517  0.1164
   16MOL   C475 8305   1.195   0.542   6.386  0.1359  0.5011  0.8283
   16MOL   C476 8306   1.270   0.531   6.268 -0.4282  1.1303 -0.4780
   16MOL   C477 8307   1.405   0.556   6.266 -0.0712  0.9933 -0.0733
   16MOL   C478 8308   1.472   0.617   6.376  0.0496  0.1858 -1.1395
   16MOL   C479 8309   1.216   0.627   6.634  0.2856  0.0201  0.5351
   16MOL   C480 8310   1.330   0.677   6.706  0.1581 -0.7095  0.2570
   16MOL   C481 8311   1.310   0.717   6.840  0.8504  0.2908 -0.0498
   16MOL   C482 8312   1.181   0.725   6.896 -0.3504  0.1056 -1.0466
   16MOL   C483 8313   1.070   0.685   6.817  0.2430  0.1230 -0.3023
   16MOL   C484 8314   1.087   0.639   6.690 -0.0079 -0.2167  0.7657
   16MOL   H485 8315   1.597   0.651   6.870  1.4072 -1.2087  0.8812
   16MOL   H486 8316   1.747   0.639   6.803 -0.4027  1.1346 -0.7774
   16MOL   H487 8317   1.636   0.684   6.570 -1.3042  0.2881  0.0893
   16MOL   H488 8318   1.092   0.511   6.393 -0.3391  1.7559 -0.2850
   16MOL   H489 8319   1.218   0.484   6.186 -0.5190 -0.5819  0.5246
   16MOL   H490 8320   1.457   0.536   6.174  0.7248  0.2650  0.5221
   16MOL   H491 8321   1.577   0.643   6.369 -0.1212  1.8871  1.8678
   16MOL   H492 8322   1.395   0.752   6.896  2.0201 -1.0606 -0.9466
   16MOL   H493 8323   1.179   0.762   6.997  2.4037 -0.9637 -0.5672
   16MOL   H494 8324   0.966   0.681   6.848 -0.9856  0.0662 -4.0541
   16MOL   H495 8325   1.002   0.597   6.639  0.0836  0.5841 -0.0420
   16MOL   C496 8326   1.607   0.848   6.699  0.3393  0.3702 -0.0590
   16MOL   C497 8327   1.561   0.948   6.587  0.1499 -0.2473  0.2848
   16MOL   N498 8328   1.633   1.069   6.586 -0.4019 -0.4947  0.0800
   16MOL   C499 8329   1.774   1.082   6.554 -0.2494  0.6410 -0.3001
   16MOL   C500 8330   1.813   1.210   6.597  0.5197 -0.2074  0.1093
   16MOL   C501 8331   1.944   1.255   6.563  0.2314  0.9305 -0.0661
   16MOL   C502 8332   2.036   1.179   6.486 -1.2101  0.6080 -0.1075
   16MOL   C503 8333   2.000   1.047   6.464  0.1734 -0.0328  0.7232
   16MOL   C504 8334   1.870   0.995   6.495 -0.6362  0.3137 -0.2540
   16MOL   C505 8335   1.698   1.276   6.656  0.1593 -0.4005  0.3203
   16MOL   C506 8336   1.587   1.191   6.643 -0.3276  0.2371 -0.3097
   16MOL   C507 8337   1.455   1.224   6.691  0.4926  0.1122  0.1187
   16MOL   C508 8338   1.444   1.356   6.748 -0.0823 -0.6083  0.4681
   16MOL   C509 8339   1.551   1.444   6.755  0.3269  0.4681  0.2263
   16MOL   C510 8340   1.679   1.404   6.708  0.8138  0.0807 -0.1263
   16MOL   H511 8341   1.559   0.877   6.793  1.6610  0.4415  0.6064
   16MOL   H512 8342   1.712   0.863   6.723  0.6577  0.2843 -1.4028
   16MOL   H513 8343   1.455   0.970   6.599  0.4436  0.8486  0.9564
   16MOL   H514 8344   1.970   1.357   6.587 -1.3332  0.9147  1.8488
   16MOL   H515 8345   2.129   1.218   6.446 -1.6345  2.4512  0.6546
   16MOL   H516 8346   2.062   0.980   6.407  0.7033  1.3106 -0.3172
   16MOL   H517 8347   1.846   0.890   6.488 -0.1398  0.0062  2.1945
   16MOL   H518 8348   1.373   1.157   6.671  1.6627 -1.5919  0.9216
   16MOL   H519 8349   1.348   1.384   6.786 -0.4836 -4.6464  2.7366
   16MOL   H520 8350   1.541   1.545   6.792  1.8699  0.6590  0.1280
   16MOL   H521 8351   1.765   1.466   6.723 -0.1041  0.9738  1.5855
   16MOL   H522 8352   1.569   0.913   6.484 -0.8810  0.1373  0.0640
   17MOL     C1 8353   7.751   0.501   4.113  0.2993 -0.0163  0.0875
   17MOL     C2 8354   7.692   0.359   4.090  0.3377 -0.2228  0.5692
   17MOL     N3 8355   7.790   0.255   4.118  0.8249 -0.1249 -0.2155
   17MOL     C4 8356   7.836   0.157   4.035 -0.5963 -0.7950  0.1770
   17MOL     C5 8357   7.895   0.051   4.106 -0.5731 -0.6498 -0.7733
   17MOL     C6 8358   7.943   8.168   4.043 -0.3545  0.1761 -0.0514
   17MOL     C7 8359   7.953   8.161   3.902  0.1949  0.0471 -0.0564
   17MOL     C8 8360   7.891   0.037   3.826  0.5058  0.0519  0.5224
   17MOL     C9 8361   7.841   0.149   3.892 -0.1678 -0.1924 -0.4196
   17MOL    C10 8362   7.897   0.095   4.245 -0.0865 -0.0937 -0.0048
   17MOL    C11 8363   7.842   0.228   4.245 -0.2330 -0.0697  0.3714
   17MOL    C12 8364   7.835   0.291   4.376 -0.8142 -0.2921 -0.0959
   17MOL    C13 8365   7.885   0.235   4.493 -0.8544 -0.5461 -0.2104
   17MOL    C14 8366   7.945   0.111   4.487 -0.8217  0.2525 -0.0904
   17MOL    C15 8367   7.951   0.040   4.367  0.2152  0.1028  0.8966
   17MOL    H16 8368   7.732   0.524   4.218 -1.6041  2.0445 -0.6646
   17MOL    H17 8369   7.709   0.581   4.053 -0.7713  1.6682  2.9826
   17MOL    H18 8370   7.677   0.359   3.982  0.8562  1.1131  0.4867
   17MOL    H19 8371   7.988   8.095   4.108 -0.7252 -0.2312 -0.2466
   17MOL    H20 8372   8.002   8.072   3.865 -2.3954 -0.9729 -1.1887
   17MOL    H21 8373   7.884   0.037   3.718 -2.0562  1.4246  0.6431
   17MOL    H22 8374   7.787   0.217   3.827  0.3009 -1.9736 -2.7568
   17MOL    H23 8375   7.782   0.385   4.387 -1.3052 -0.5117 -0.5847
   17MOL    H24 8376   7.871   0.278   4.591  0.8905 -3.5319  1.4218
   17MOL    H25 8377   7.978   0.064   4.578 -0.5062  1.3366  0.3699
   17MOL    H26 8378   8.001   8.172   4.358  0.5465  0.4320 -1.0525
   17MOL    H27 8379   7.859   0.492   4.106  0.2774 -0.0934 -0.1981
   17MOL    C28 8380   7.552   0.336   4.166 -1.2709 -0.9681  0.0075
   17MOL    C29 8381   7.512   0.184   4.165 -0.2090 -0.7907 -0.2313
   17MOL    N30 8382   7.418   0.156   4.268 -0.1377 -0.1603 -0.9476
   17MOL    C31 8383   7.440   0.094   4.394  0.5047 -0.0467  0.8515
   17MOL    C32 8384   7.321   0.078   4.468  0.5520 -0.5521  0.0620
   17MOL    C33 8385   7.328   0.007   4.585  0.5091  0.0636 -1.0566
   17MOL    C34 8386   7.448   8.202   4.649 -1.1079  0.4703 -0.1539
   17MOL    C35 8387   7.567   0.003   4.576 -0.2301 -0.9718  0.6173
   17MOL    C36 8388   7.564   0.055   4.446  0.2015  0.1230  0.9066
   17MOL    C37 8389   7.222   0.136   4.379  0.3869  0.8247  0.0711
   17MOL    C38 8390   7.281   0.194   4.266  0.0309  0.7367  0.3483
   17MOL    C39 8391   7.204   0.264   4.170 -0.7881 -0.4974  0.2037
   17MOL    C40 8392   7.066   0.276   4.186  0.0741  0.3926 -0.5462
   17MOL    C41 8393   7.001   0.218   4.301 -0.3855  0.5507 -0.6239
   17MOL    C42 8394   7.078   0.146   4.391  0.3753 -0.6428 -0.1782
   17MOL    H43 8395   7.546   0.379   4.266  0.2339 -1.0115  0.1167
   17MOL    H44 8396   7.483   0.398   4.109  2.2546  0.6430 -2.6683
   17MOL    H45 8397   7.600   0.130   4.200 -0.6332 -0.2324  1.8065
   17MOL    H46 8398   7.229   8.213   4.621  0.7300  0.0133 -0.4709
   17MOL    H47 8399   7.456   8.155   4.746  0.7939 -0.3534 -0.6882
   17MOL    H48 8400   7.656   8.189   4.622  1.5508 -0.3036 -2.0715
   17MOL    H49 8401   7.655   0.058   4.388 -2.3951  1.5662 -3.3891
   17MOL    H50 8402   7.243   0.314   4.083  0.1647  0.5594  1.2319
   17MOL    H51 8403   7.002   0.331   4.119  0.0641  0.8345 -0.1737
   17MOL    H52 8404   6.894   0.214   4.318 -0.5790 -0.2633 -2.0011
   17MOL    H53 8405   7.026   0.088   4.466 -1.7416  0.8715 -0.4286
   17MOL    C54 8406   7.463   0.118   4.029  0.5276 -0.4074  0.8955
   17MOL    C55 8407   7.426   8.194   4.037 -0.6031 -0.1485  0.6504
   17MOL    N56 8408   7.353   8.153   3.910 -0.0798 -0.2880 -0.3857
   17MOL    C57 8409   7.219   8.138   3.905 -0.1640 -0.7419  0.8757
   17MOL    C58 8410   7.173   8.081   3.781 -0.3833  0.5943 -0.1418
   17MOL    C59 8411   7.037   8.048   3.764 -0.6299 -0.1242 -0.3621
   17MOL    C60 8412   6.942   8.075   3.864 -0.5257 -0.2958 -0.1829
   17MOL    C61 8413   6.979   8.133   3.988  0.1139 -0.3863 -0.3319
   17MOL    C62 8414   7.118   8.164   4.006  0.1601 -0.0218  0.4477
   17MOL    C63 8415   7.295   8.071   3.707  0.2958  0.5357 -0.1462
   17MOL    C64 8416   7.403   8.116   3.784 -0.3528 -0.1687  0.5212
   17MOL    C65 8417   7.538   8.122   3.733 -0.6953 -0.0470  0.2394
   17MOL    C66 8418   7.561   8.080   3.598  0.7555 -0.7177  0.1313
   17MOL    C67 8419   7.455   8.023   3.525  0.7287 -0.1169  0.1336
   17MOL    C68 8420   7.326   8.017   3.581  0.4144 -0.5709  0.6453
   17MOL    H69 8421   7.386   0.176   3.979  0.7480 -0.3421  0.6334
   17MOL    H70 8422   7.544   0.141   3.960  1.4550  0.2359  2.1789
   17MOL    H71 8423   7.360   8.198   4.124 -1.3012 -1.0633  0.1663
   17MOL    H72 8424   7.010   8.003   3.670 -1.1310 -0.6388  0.0240
   17MOL    H73 8425   6.838   8.049   3.846  0.2443 -2.5571 -1.6151
   17MOL    H74 8426   6.897   8.137   4.057  0.2568  2.9132 -0.2514
   17MOL    H75 8427   7.145   8.205   4.101  1.4212  0.7999 -0.2612
   17MOL    H76 8428   7.619   8.153   3.797  0.1947 -0.4568 -0.6659
   17MOL    H77 8429   7.660   8.079   3.555  0.7691 -1.1983  0.1713
   17MOL    H78 8430   7.465   7.991   3.422 -0.8167  0.9371 -0.3643
   17MOL    H79 8431   7.245   7.982   3.518 -0.4813  2.7860 -0.2177
   17MOL    C80 8432   7.528   8.096   4.089 -0.6033 -0.0397 -0.1743
   17MOL    C81 8433   7.471   7.958   4.097  0.2077 -0.2264  0.5817
   17MOL    N82 8434   7.578   7.860   4.085  0.5603 -0.3383  0.0680
   17MOL    C83 8435   7.598   7.782   3.970 -0.1767 -0.1661  0.8108
   17MOL    C84 8436   7.713   7.706   3.995  0.3930 -0.2488  0.4683
   17MOL    C85 8437   7.761   7.627   3.889 -1.0371 -0.2181  0.3616
   17MOL    C86 8438   7.692   7.627   3.763 -0.5547  0.5164  0.3833
   17MOL    C87 8439   7.574   7.706   3.739 -0.0313  0.0104  0.2129
   17MOL    C88 8440   7.522   7.779   3.847 -0.8568  0.2410 -0.2189
   17MOL    C89 8441   7.764   7.734   4.124  0.5053 -0.6090  0.5189
   17MOL    C90 8442   7.685   7.843   4.176  0.6502  0.5244  0.0013
   17MOL    C91 8443   7.722   7.899   4.299 -0.0505 -0.1374 -0.0714
   17MOL    C92 8444   7.830   7.854   4.373 -0.3574 -0.0628 -0.0324
   17MOL    C93 8445   7.900   7.743   4.328 -0.6687 -0.3860  0.1925
   17MOL    C94 8446   7.879   7.693   4.196 -1.0003 -0.1792  0.9639
   17MOL    H95 8447   7.605   8.096   4.012  0.7639  2.4810  1.1544
   17MOL    H96 8448   7.583   8.125   4.178  2.1907 -2.4086 -1.0618
   17MOL    H97 8449   7.400   7.945   4.016 -1.6576 -1.9398  2.4047
   17MOL    H98 8450   7.851   7.568   3.894 -0.8842 -0.1515 -1.4874
   17MOL    H99 8451   7.733   7.569   3.682 -1.6959  1.4632 -0.9047
   17MOL   H100 8452   7.526   7.703   3.642 -0.9330  2.0095  0.5602
   17MOL   H101 8453   7.438   7.842   3.822 -1.6794 -1.0325 -0.7245
   17MOL   H102 8454   7.663   7.985   4.328 -1.1465 -0.1261 -2.1870
   17MOL   H103 8455   7.856   7.908   4.463  2.5308  3.3912 -2.7538
   17MOL   H104 8456   7.982   7.707   4.389 -0.5425  3.0114  2.1308
   17MOL   H105 8457   7.943   7.611   4.168 -1.5225 -0.0446 -0.6834
   17MOL   C106 8458   7.380   7.941   4.219  0.2731  0.1533 -0.3162
   17MOL   C107 8459   7.324   7.804   4.249  0.3642  0.4634 -0.9027
   17MOL   N108 8460   7.268   7.810   4.383  0.2120 -0.3995 -0.1205
   17MOL   C109 8461   7.320   7.730   4.489 -0.4554  0.3191  0.2655
   17MOL   C110 8462   7.224   7.737   4.599  0.4280 -0.3109  1.0537
   17MOL   C111 8463   7.256   7.662   4.715 -0.0919  0.0141 -0.1845
   17MOL   C112 8464   7.362   7.580   4.717  0.4512  0.1219 -0.2021
   17MOL   C113 8465   7.450   7.568   4.609 -0.2207  0.2642  0.4362
   17MOL   C114 8466   7.435   7.649   4.493 -0.7676  0.5222  0.8849
   17MOL   C115 8467   7.120   7.819   4.554  0.3272 -0.0916  0.0974
   17MOL   C116 8468   7.150   7.868   4.424 -0.4898 -0.4372  0.2562
   17MOL   C117 8469   7.065   7.959   4.358  0.9712 -0.2155 -0.0259
   17MOL   C118 8470   6.943   7.993   4.422  0.3700 -0.3769 -0.3384
   17MOL   C119 8471   6.911   7.950   4.552  0.7702  0.2105 -0.4098
   17MOL   C120 8472   6.998   7.864   4.616  0.4080 -0.2573 -0.6415
   17MOL   H121 8473   7.423   7.981   4.311 -0.6243 -0.6314  0.4501
   17MOL   H122 8474   7.296   8.010   4.218 -0.7363 -1.0195  1.0251
   17MOL   H123 8475   7.413   7.742   4.259 -0.2082  0.2640  4.1572
   17MOL   H124 8476   7.186   7.669   4.796 -0.7503 -1.5777 -0.6007
   17MOL   H125 8477   7.370   7.506   4.794  0.7237  0.4295  0.0655
   17MOL   H126 8478   7.511   7.479   4.615  0.1398  0.5223  0.5823
   17MOL   H127 8479   7.501   7.633   4.409 -1.9350  0.2516 -0.0015
   17MOL   H128 8480   7.085   7.995   4.259  1.2481 -0.2812  0.0071
   17MOL   H129 8481   6.875   8.056   4.367 -0.0040 -2.1393 -1.9438
   17MOL   H130 8482   6.817   7.973   4.600  1.2878  0.8333  0.3112
   17MOL   H131 8483   6.976   7.825   4.714  3.2015  1.8776  0.9167
   17MOL   C132 8484   7.233   7.737   4.134 -0.1594 -0.0448 -0.8254
   17MOL   C133 8485   7.229   7.585   4.148 -0.3626  0.0210  0.4651
   17MOL   N134 8486   7.107   7.534   4.108  0.2026  0.3378 -0.1667
   17MOL   C135 8487   7.003   7.499   4.201 -0.3198 -0.0305  0.3616
   17MOL   C136 8488   6.893   7.455   4.128  0.3445 -0.3707 -0.3936
   17MOL   C137 8489   6.787   7.404   4.203  0.1661  0.4806 -0.0371
   17MOL   C138 8490   6.783   7.409   4.346  0.4468  0.0011  0.2010
   17MOL   C139 8491   6.894   7.450   4.416  0.4177 -0.1723 -0.2019
   17MOL   C140 8492   7.001   7.501   4.343  0.1446  0.3682 -0.0630
   17MOL   C141 8493   6.926   7.466   3.988  0.7360  1.0352 -0.0043
   17MOL   C142 8494   7.055   7.521   3.984 -0.7617 -0.2594  0.4389
   17MOL   C143 8495   7.113   7.566   3.858 -1.0449  0.3835 -0.3676
   17MOL   C144 8496   7.045   7.537   3.740 -0.5332  0.2850  0.6363
   17MOL   C145 8497   6.922   7.465   3.744 -0.2907  0.2666  0.0453
   17MOL   C146 8498   6.859   7.439   3.863 -0.1812  0.2907  0.3765
   17MOL   H147 8499   7.132   7.776   4.139 -0.8803 -1.9298 -0.3537
   17MOL   H148 8500   7.278   7.763   4.038 -1.5523 -0.7460 -1.6815
   17MOL   H149 8501   7.243   7.568   4.255  2.0103 -2.1333 -0.1434
   17MOL   H150 8502   6.701   7.371   4.147  0.5948  0.5102 -0.7148
   17MOL   H151 8503   6.706   7.356   4.399  0.2807  0.3376  0.2995
   17MOL   H152 8504   6.885   7.451   4.523  2.6692 -0.7357  0.0168
   17MOL   H153 8505   7.091   7.527   4.397  0.6799  0.9702 -1.2406
   17MOL   H154 8506   7.207   7.619   3.858  0.5482 -2.2939  2.1951
   17MOL   H155 8507   7.078   7.580   3.647 -1.2546 -1.8686 -0.6503
   17MOL   H156 8508   6.872   7.441   3.651 -2.4299 -1.0374  1.4767
   17MOL   H157 8509   6.758   7.401   3.859 -0.0900 -0.3282  2.8480
   17MOL   C158 8510   7.360   7.520   4.085  0.1194  0.3380  0.5902
   17MOL   C159 8511   7.369   7.369   4.110 -0.1376 -0.6465 -0.0770
   17MOL   N160 8512   7.454   7.289   4.018  0.0753 -0.0953  0.0563
   17MOL   C161 8513   7.407   7.215   3.915 -0.3336 -0.0010 -0.9945
   17MOL   C162 8514   7.515   7.145   3.854  0.0105  0.4527 -0.3282
   17MOL   C163 8515   7.482   7.071   3.738  0.4982  0.6134 -0.1887
   17MOL   C164 8516   7.349   7.049   3.690  0.1188  0.1061 -0.3937
   17MOL   C165 8517   7.249   7.113   3.757 -0.1927 -0.4840 -0.2640
   17MOL   C166 8518   7.276   7.188   3.870  0.3075  0.2421  0.8604
   17MOL   C167 8519   7.635   7.180   3.933  0.2594  0.5771  0.1757
   17MOL   C168 8520   7.594   7.286   4.020 -0.4430 -0.1945 -1.3681
   17MOL   C169 8521   7.687   7.355   4.095  0.4858 -0.3020  0.3429
   17MOL   C170 8522   7.822   7.320   4.084 -0.7474 -0.0876  0.7402
   17MOL   C171 8523   7.867   7.220   3.994 -0.0825  0.3709  0.9063
   17MOL   C172 8524   7.771   7.149   3.922 -0.4894 -0.2283 -0.3098
   17MOL   H173 8525   7.383   7.541   3.981  1.0207  2.4785  1.1726
   17MOL   H174 8526   7.447   7.569   4.131  1.8670 -2.0333 -0.0888
   17MOL   H175 8527   7.267   7.332   4.102 -0.2957  0.2034 -2.4098
   17MOL   H176 8528   7.567   7.045   3.677  0.6296 -0.1673  0.3177
   17MOL   H177 8529   7.332   6.995   3.597  2.7124 -0.2234 -0.7027
   17MOL   H178 8530   7.149   7.115   3.716 -1.0028 -0.2848  1.6402
   17MOL   H179 8531   7.192   7.237   3.917 -0.2094 -0.1328  0.3346
   17MOL   H180 8532   7.657   7.427   4.170  0.0372 -0.4900  0.3465
   17MOL   H181 8533   7.895   7.369   4.146 -0.3714 -1.9102  1.7502
   17MOL   H182 8534   7.968   7.185   3.978 -0.5837 -1.1733  1.0639
   17MOL   H183 8535   7.804   7.074   3.851 -0.2883 -0.6992  0.2712
   17MOL   C184 8536   7.398   7.341   4.259 -1.2771  0.8673  0.0003
   17MOL   C185 8537   7.428   7.188   4.300  0.4009  1.0059 -0.2584
   17MOL   N186 8538   7.482   7.180   4.437 -0.7741 -0.0274  0.0759
   17MOL   C187 8539   7.610   7.136   4.468 -0.1232 -0.0910 -0.1180
   17MOL   C188 8540   7.634   7.154   4.605  0.0500  0.3725 -0.0227
   17MOL   C189 8541   7.760   7.122   4.665  0.2725  0.2161  0.5444
   17MOL   C190 8542   7.862   7.077   4.575  0.0891 -0.2360 -0.0643
   17MOL   C191 8543   7.843   7.065   4.438  0.5456 -0.4190 -0.4941
   17MOL   C192 8544   7.715   7.088   4.381 -0.1366 -0.4038  0.6400
   17MOL   C193 8545   7.505   7.177   4.663  0.6953  0.1778  0.4466
   17MOL   C194 8546   7.413   7.203   4.556 -0.0317 -0.1788  0.3916
   17MOL   C195 8547   7.275   7.235   4.582 -0.2331 -0.0357 -0.2826
   17MOL   C196 8548   7.229   7.246   4.715 -0.7428 -0.6102 -0.2125
   17MOL   C197 8549   7.324   7.239   4.823 -0.6175 -0.9556 -0.1680
   17MOL   C198 8550   7.455   7.203   4.792 -0.4894  0.8269 -0.6563
   17MOL   H199 8551   7.481   7.400   4.298 -0.0220 -0.1570 -1.0582
   17MOL   H200 8552   7.309   7.369   4.316 -0.1805  3.6539  0.4182
   17MOL   H201 8553   7.503   7.160   4.225 -0.3724 -0.8517 -0.3728
   17MOL   H202 8554   7.790   7.133   4.768  4.4367 -1.7740 -0.3348
   17MOL   H203 8555   7.956   7.046   4.618  0.6885  0.3594 -0.9248
   17MOL   H204 8556   7.922   7.039   4.370  2.4414  1.3928  0.9685
   17MOL   H205 8557   7.706   7.087   4.274 -2.4356 -2.2437  0.8097
   17MOL   H206 8558   7.198   7.243   4.507  0.1354  0.0558 -0.6561
   17MOL   H207 8559   7.127   7.272   4.736 -1.3140 -1.6197 -1.6605
   17MOL   H208 8560   7.301   7.254   4.927 -0.7588  1.1154 -0.4725
   17MOL   H209 8561   7.519   7.189   4.879 -1.9869 -0.5865  0.2411
   17MOL   C210 8562   7.305   7.098   4.274 -0.5347 -0.5552 -0.0738
   17MOL   C211 8563   7.281   6.955   4.336 -0.1429  0.2210 -0.9663
   17MOL   N212 8564   7.136   6.928   4.317 -0.1934 -0.5490 -0.8336
   17MOL   C213 8565   7.049   6.918   4.425 -0.2332  0.0493  0.3766
   17MOL   C214 8566   6.923   6.877   4.378 -1.1356 -0.6483  0.6960
   17MOL   C215 8567   6.819   6.862   4.469 -0.2330 -0.0676  0.0417
   17MOL   C216 8568   6.835   6.885   4.604  0.5872  0.2020 -0.8834
   17MOL   C217 8569   6.962   6.912   4.656  0.2228 -0.3455 -0.2369
   17MOL   C218 8570   7.072   6.931   4.568  0.9282  0.5618  0.0765
   17MOL   C219 8571   6.929   6.871   4.231 -0.0756 -0.0712 -0.3640
   17MOL   C220 8572   7.058   6.912   4.198 -0.0750  0.4586  0.5201
   17MOL   C221 8573   7.094   6.928   4.058 -0.3315  0.1177  0.6004
   17MOL   C222 8574   6.990   6.919   3.956 -0.3911 -0.5817 -0.0915
   17MOL   C223 8575   6.864   6.874   3.992 -0.2721  0.7349 -0.7028
   17MOL   C224 8576   6.836   6.854   4.129 -0.2474  0.2283 -0.9950
   17MOL   H225 8577   7.222   7.158   4.312 -0.5091  0.1955 -1.1805
   17MOL   H226 8578   7.283   7.100   4.167 -0.5406 -0.1221 -0.0637
   17MOL   H227 8579   7.300   6.958   4.444 -0.6101  0.8252 -0.9021
   17MOL   H228 8580   6.728   6.836   4.417 -0.8476  0.1590  0.9797
   17MOL   H229 8581   6.747   6.870   4.665  0.3352  2.3483 -0.6799
   17MOL   H230 8582   6.973   6.922   4.763  0.5211  1.3584 -0.4102
   17MOL   H231 8583   7.165   6.941   4.622 -0.3311 -0.6681  2.5252
   17MOL   H232 8584   7.193   6.957   4.027  0.2945  0.0485  2.4276
   17MOL   H233 8585   7.012   6.960   3.858 -2.4154 -1.3448 -0.9100
   17MOL   H234 8586   6.789   6.861   3.915 -1.3839 -0.1289  0.4993
   17MOL   H235 8587   6.736   6.835   4.166 -0.3178 -0.9245 -1.7470
   17MOL   C236 8588   7.378   6.843   4.284  0.2524 -0.7733 -0.6645
   17MOL   C237 8589   7.370   6.705   4.361 -0.0145 -0.8001  0.2462
   17MOL   N238 8590   7.472   6.616   4.299 -0.3722 -0.0365 -0.3204
   17MOL   C239 8591   7.447   6.521   4.204 -0.5604  0.0258  0.0319
   17MOL   C240 8592   7.558   6.444   4.176 -0.7920 -0.2531  0.6696
   17MOL   C241 8593   7.552   6.329   4.089 -0.1126 -0.3238  0.3204
   17MOL   C242 8594   7.435   6.289   4.032  0.0389  0.9278  0.0073
   17MOL   C243 8595   7.319   6.366   4.065 -0.2504 -0.0629 -0.2149
   17MOL   C244 8596   7.331   6.482   4.142 -0.5676 -1.0415  0.1085
   17MOL   C245 8597   7.666   6.498   4.258 -1.0493  0.4474  0.4240
   17MOL   C246 8598   7.613   6.615   4.323  0.8927 -0.1054  0.1926
   17MOL   C247 8599   7.696   6.698   4.402  1.1182  0.0558  0.3014
   17MOL   C248 8600   7.835   6.654   4.426  0.1546  0.7283 -0.1288
   17MOL   C249 8601   7.891   6.544   4.357  0.0136 -0.2762 -0.5790
   17MOL   C250 8602   7.805   6.464   4.272 -0.3458 -0.6985 -0.4802
   17MOL   H251 8603   7.353   6.831   4.179 -1.1881  0.5201 -0.4828
   17MOL   H252 8604   7.480   6.881   4.288  0.0561 -0.4771  2.2367
   17MOL   H253 8605   7.274   6.656   4.340  0.0964 -0.4763 -1.0504
   17MOL   H254 8606   7.645   6.274   4.076 -0.2144 -0.6884  1.1051
   17MOL   H255 8607   7.438   6.195   3.979  0.3017  0.6984  0.4295
   17MOL   H256 8608   7.222   6.328   4.037 -0.3030 -0.8198  0.9572
   17MOL   H257 8609   7.242   6.535   4.173  0.7004 -0.5391  3.0272
   17MOL   H258 8610   7.655   6.784   4.453  0.1423  0.4895 -1.1799
   17MOL   H259 8611   7.903   6.713   4.485 -0.6305  0.1264  1.3847
   17MOL   H260 8612   7.989   6.503   4.375 -0.6307 -1.3344  0.5486
   17MOL   H261 8613   7.857   6.380   4.227  0.3825 -1.2848  1.4334
   17MOL   C262 8614   7.374   6.716   4.519  0.0648 -0.3707  0.3692
   17MOL   C263 8615   7.385   6.580   4.597 -1.0223 -0.0891 -0.0520
   17MOL   N264 8616   7.440   6.596   4.727  0.1258  0.3238  0.0509
   17MOL   C265 8617   7.562   6.541   4.760 -0.7206  0.0574 -0.2691
   17MOL   C266 8618   7.612   6.593   4.881  0.6652  0.0200 -0.8246
   17MOL   C267 8619   7.736   6.548   4.933  0.3288 -0.8501 -0.1059
   17MOL   C268 8620   7.817   6.457   4.859  0.6963 -0.4840  0.0980
   17MOL   C269 8621   7.768   6.414   4.733  0.5722 -0.2019 -1.1069
   17MOL   C270 8622   7.646   6.454   4.686  0.3831 -0.6739 -0.2164
   17MOL   C271 8623   7.519   6.695   4.918  0.3899 -0.2661 -0.0648
   17MOL   C272 8624   7.409   6.672   4.838 -0.1032 -0.1815 -0.8028
   17MOL   C273 8625   7.298   6.753   4.849  0.9502  0.7863  0.5734
   17MOL   C274 8626   7.288   6.855   4.951 -0.2595  0.1397  0.4075
   17MOL   C275 8627   7.405   6.881   5.029 -0.4489 -0.1260  0.1773
   17MOL   C276 8628   7.519   6.802   5.005 -0.1534 -0.0240  0.1167
   17MOL   H277 8629   7.432   6.799   4.560  0.7035 -0.2250 -0.8133
   17MOL   H278 8630   7.271   6.732   4.551 -0.9677 -4.3727 -0.7594
   17MOL   H279 8631   7.455   6.525   4.534 -1.9140 -0.0481 -1.0962
   17MOL   H280 8632   7.774   6.579   5.030  0.1515  0.7494 -0.5257
   17MOL   H281 8633   7.913   6.417   4.887  0.1385 -1.0068  1.3003
   17MOL   H282 8634   7.824   6.351   4.666  2.3133  1.3755 -1.1832
   17MOL   H283 8635   7.613   6.408   4.593 -2.8359 -1.2791  1.1708
   17MOL   H284 8636   7.208   6.734   4.792  1.9170 -2.1081 -0.0896
   17MOL   H285 8637   7.192   6.905   4.958 -0.6825 -0.9841  2.8104
   17MOL   H286 8638   7.403   6.956   5.107 -0.5012 -0.3198  0.3636
   17MOL   H287 8639   7.600   6.820   5.074 -1.3379 -0.9246  1.7957
   17MOL   C288 8640   7.256   6.500   4.597 -0.1385  0.2679  0.3778
   17MOL   C289 8641   7.286   6.356   4.639 -0.0397 -0.5173 -0.3427
   17MOL   N290 8642   7.179   6.297   4.729  0.5577 -0.3489  0.4279
   17MOL   C291 8643   7.188   6.277   4.872  0.2971 -0.1899  0.8584
   17MOL   C292 8644   7.073   6.204   4.912  0.1918  0.1853 -0.3316
   17MOL   C293 8645   7.064   6.158   5.044  0.6614  0.6709 -0.2848
   17MOL   C294 8646   7.171   6.192   5.140 -0.0586  0.5772  0.0082
   17MOL   C295 8647   7.285   6.266   5.096 -0.3663 -0.8073 -0.8915
   17MOL   C296 8648   7.292   6.309   4.964  0.7331 -0.7764 -0.2442
   17MOL   C297 8649   6.984   6.194   4.799  1.0728 -0.3649  0.4304
   17MOL   C298 8650   7.048   6.256   4.690  0.3024 -0.1500  0.1955
   17MOL   C299 8651   6.985   6.260   4.565 -0.0821 -0.3458  0.5236
   17MOL   C300 8652   6.856   6.198   4.553  0.0447  0.2462 -0.3599
   17MOL   C301 8653   6.788   6.152   4.664 -0.2938 -0.0574  0.0372
   17MOL   C302 8654   6.858   6.134   4.780  0.2755  0.2407 -0.0380
   17MOL   H303 8655   7.187   6.540   4.672  2.1415  0.5540  2.4168
   17MOL   H304 8656   7.203   6.494   4.502 -2.0564 -1.4114  1.5061
   17MOL   H305 8657   7.377   6.359   4.700 -1.4057 -1.8925  1.8304
   17MOL   H306 8658   6.973   6.108   5.075  0.1218  2.0700  0.4418
   17MOL   H307 8659   7.164   6.146   5.238 -0.3174 -0.8255 -0.6649
   17MOL   H308 8660   7.366   6.287   5.165 -0.5594  1.1038 -1.2186
   17MOL   H309 8661   7.376   6.371   4.937 -0.9941  1.4238 -0.6818
   17MOL   H310 8662   7.019   6.325   4.486  0.8075 -0.9099  0.4412
   17MOL   H311 8663   6.802   6.199   4.459  0.2714 -1.0809 -0.5119
   17MOL   H312 8664   6.683   6.127   4.665 -0.1018 -1.0057 -1.8991
   17MOL   H313 8665   6.805   6.101   4.868  0.4102  0.3431  0.0817
   17MOL   C314 8666   7.330   6.263   4.519 -1.0066 -0.3529 -0.2524
   17MOL   C315 8667   7.337   6.114   4.558  0.0289  0.0692 -0.8149
   17MOL   N316 8668   7.357   6.037   4.439  0.1314  0.0366 -0.4554
   17MOL   C317 8669   7.255   5.960   4.375  0.6503 -0.8403  1.0472
   17MOL   C318 8670   7.299   5.907   4.251 -0.2145 -0.0256 -0.5782
   17MOL   C319 8671   7.207   5.840   4.167  0.5728  0.3715 -0.6623
   17MOL   C320 8672   7.069   5.827   4.211  0.4686  0.3987  1.0644
   17MOL   C321 8673   7.030   5.875   4.336  0.9747  0.1664  0.0967
   17MOL   C322 8674   7.124   5.937   4.416 -0.0690  0.5344  0.1177
   17MOL   C323 8675   7.446   5.939   4.248 -0.3021  0.1462  0.1473
   17MOL   C324 8676   7.468   6.028   4.358 -0.0376 -0.4762 -0.0522
   17MOL   C325 8677   7.594   6.094   4.372 -0.1241 -0.1126 -0.1617
   17MOL   C326 8678   7.709   6.065   4.293  0.5807  0.1247  0.2260
   17MOL   C327 8679   7.687   5.969   4.191 -0.2619 -0.4069  0.0495
   17MOL   C328 8680   7.558   5.911   4.165  0.7752  0.1050 -0.4375
   17MOL   H329 8681   7.260   6.274   4.436  2.3276 -1.2836 -3.3202
   17MOL   H330 8682   7.427   6.294   4.481 -1.3418 -0.5894 -1.3388
   17MOL   H331 8683   7.236   6.084   4.588  0.2165 -0.3104 -0.5556
   17MOL   H332 8684   7.233   5.810   4.067 -0.8493  0.3510 -1.0342
   17MOL   H333 8685   7.004   5.772   4.145 -0.6359  0.5185  2.0372
   17MOL   H334 8686   6.935   5.856   4.384  0.7850 -0.1197 -0.3884
   17MOL   H335 8687   7.092   5.969   4.514  0.6724  0.4540  0.3940
   17MOL   H336 8688   7.618   6.158   4.455  1.1587 -1.3264  0.4261
   17MOL   H337 8689   7.806   6.106   4.318 -0.2450  0.5971  2.7689
   17MOL   H338 8690   7.775   5.951   4.130  0.9608 -0.0565  1.6746
   17MOL   H339 8691   7.548   5.837   4.088 -1.3080 -0.3808  0.2719
   17MOL   C340 8692   7.448   6.089   4.670 -0.6751 -0.0549 -0.1992
   17MOL   C341 8693   7.454   5.946   4.716 -0.7060 -0.3696 -0.9265
   17MOL   N342 8694   7.585   5.921   4.785 -0.4713 -0.4725 -0.3155
   17MOL   C343 8695   7.682   5.831   4.735  0.0682  0.1630 -0.2332
   17MOL   C344 8696   7.788   5.830   4.829 -0.1013  0.4716 -0.6125
   17MOL   C345 8697   7.895   5.740   4.806 -0.5087  0.1400 -0.2276
   17MOL   C346 8698   7.907   5.672   4.686  0.1652 -0.2056  0.1097
   17MOL   C347 8699   7.804   5.673   4.599 -0.1456 -0.3085 -0.3938
   17MOL   C348 8700   7.685   5.755   4.621 -0.0976  0.1996  0.1029
   17MOL   C349 8701   7.755   5.915   4.935 -0.9256 -0.2743  0.1844
   17MOL   C350 8702   7.634   5.976   4.907  0.3321  0.5930 -0.1229
   17MOL   C351 8703   7.593   6.081   4.991  0.1434 -0.1172 -0.7117
   17MOL   C352 8704   7.660   6.118   5.108  0.9359 -0.0473 -0.4570
   17MOL   C353 8705   7.784   6.055   5.138  0.7575  0.0110 -0.3477
   17MOL   C354 8706   7.825   5.958   5.048 -0.0947 -0.3269 -0.2488
   17MOL   H355 8707   7.548   6.102   4.629  0.0044 -1.0682  1.0644
   17MOL   H356 8708   7.439   6.158   4.755 -1.1666 -1.8987  1.2860
   17MOL   H357 8709   7.447   5.888   4.625 -3.4334  0.5655 -1.3386
   17MOL   H358 8710   7.975   5.733   4.877 -0.2871 -1.7829 -0.6380
   17MOL   H359 8711   7.998   5.618   4.665 -0.7799 -1.8411  0.1275
   17MOL   H360 8712   7.805   5.619   4.505  2.9555  0.4956 -0.8898
   17MOL   H361 8713   7.606   5.756   4.547 -0.2278 -1.2651  0.2067
   17MOL   H362 8714   7.512   6.142   4.954  0.2614  0.1612 -0.5159
   17MOL   H363 8715   7.625   6.197   5.173  1.5026 -1.2982  1.3945
   17MOL   H364 8716   7.841   6.071   5.228  1.8241  0.4514 -1.1037
   17MOL   H365 8717   7.926   5.923   5.060  0.2329  0.5750 -0.3056
   17MOL   C366 8718   7.341   5.909   4.811 -0.5549  0.9258  0.0205
   17MOL   C367 8719   7.332   5.762   4.839  0.1091  0.1626  0.3086
   17MOL   N368 8720   7.245   5.740   4.953  0.0385 -0.0286 -0.0173
   17MOL   C369 8721   7.289   5.687   5.078  0.0920 -0.4460  0.3177
   17MOL   C370 8722   7.175   5.671   5.162 -0.4126  0.3565 -0.4597
   17MOL   C371 8723   7.195   5.618   5.289 -0.9289  0.2673 -0.7011
   17MOL   C372 8724   7.317   5.586   5.344 -0.0566  0.0063  0.2746
   17MOL   C373 8725   7.432   5.595   5.263 -0.3051 -0.5154 -0.2771
   17MOL   C374 8726   7.413   5.651   5.133  1.3134 -0.3704  0.5228
   17MOL   C375 8727   7.057   5.716   5.091 -0.1122 -0.7388  0.2350
   17MOL   C376 8728   7.106   5.760   4.957 -0.0192  0.1180 -0.0484
   17MOL   C377 8729   7.016   5.805   4.859 -0.0429  0.5920  0.4818
   17MOL   C378 8730   6.875   5.820   4.892  0.0854 -0.0675 -0.0897
   17MOL   C379 8731   6.840   5.786   5.026  0.3991 -0.4764  0.1223
   17MOL   C380 8732   6.919   5.729   5.120  0.4049 -0.1758 -0.1224
   17MOL   H381 8733   7.349   5.971   4.900 -0.5350 -2.3488  2.3898
   17MOL   H382 8734   7.243   5.938   4.773  0.2699  0.5511 -2.5135
   17MOL   H383 8735   7.429   5.735   4.881 -0.0043 -1.0604 -0.1958
   17MOL   H384 8736   7.110   5.604   5.354 -0.7434  4.2048  0.5565
   17MOL   H385 8737   7.327   5.552   5.446  1.0780 -0.0969  0.1428
   17MOL   H386 8738   7.534   5.569   5.286 -0.2197  0.5781  0.6179
   17MOL   H387 8739   7.503   5.654   5.073 -0.2859 -0.4954 -1.9666
   17MOL   H388 8740   7.052   5.834   4.761  0.2011 -0.7710  0.1560
   17MOL   H389 8741   6.801   5.854   4.822 -0.7278  0.0347  0.8164
   17MOL   H390 8742   6.735   5.797   5.052  0.2988 -0.6928 -0.1962
   17MOL   H391 8743   6.881   5.701   5.217 -1.5651  0.3903 -0.7075
   17MOL   C392 8744   7.307   5.670   4.715  0.7325 -0.2735  0.2145
   17MOL   C393 8745   7.246   5.533   4.730  0.0628 -0.4537 -0.5342
   17MOL   N394 8746   7.169   5.484   4.614  0.0626 -0.3585  0.2569
   17MOL   C395 8747   7.033   5.443   4.615 -0.7548  0.4296 -0.2107
   17MOL   C396 8748   7.005   5.374   4.497  0.2834  0.2885 -0.1790
   17MOL   C397 8749   6.884   5.316   4.474 -0.4751 -0.0712 -0.2206
   17MOL   C398 8750   6.783   5.312   4.576  0.1131  0.2277  0.0058
   17MOL   C399 8751   6.802   5.396   4.690  0.0071  0.0798 -0.4801
   17MOL   C400 8752   6.933   5.454   4.710  0.3539  0.2890  0.0212
   17MOL   C401 8753   7.118   5.393   4.410  0.3126 -0.5230  0.5556
   17MOL   C402 8754   7.223   5.446   4.490 -0.7698  0.3926  0.2295
   17MOL   C403 8755   7.351   5.464   4.425  0.5405  0.3945  0.6999
   17MOL   C404 8756   7.377   5.426   4.294  0.2408  0.3275  0.1553
   17MOL   C405 8757   7.275   5.364   4.223  0.7442  0.6144  0.3159
   17MOL   C406 8758   7.145   5.362   4.277  0.7656  0.5923 -0.0864
   17MOL   H407 8759   7.242   5.726   4.646 -0.9283 -0.8099  1.3150
   17MOL   H408 8760   7.403   5.660   4.665  1.4418  1.4920  1.1899
   17MOL   H409 8761   7.165   5.552   4.801  0.8762 -1.2414  0.6172
   17MOL   H410 8762   6.863   5.273   4.377  2.3960 -1.1551 -0.3857
   17MOL   H411 8763   6.691   5.256   4.566  0.1617 -0.3410  2.3996
   17MOL   H412 8764   6.726   5.406   4.767 -0.8138  0.4851 -1.3306
   17MOL   H413 8765   6.958   5.501   4.804  0.5854  0.2712 -0.0318
   17MOL   H414 8766   7.429   5.511   4.483  1.9421  0.9376 -1.6046
   17MOL   H415 8767   7.480   5.430   4.260 -0.5947  2.9966 -2.2028
   17MOL   H416 8768   7.293   5.324   4.125 -2.2052 -1.6134  0.6184
   17MOL   H417 8769   7.075   5.305   4.217 -0.0740  1.3828  0.1252
   17MOL   C418 8770   7.328   5.429   4.803 -0.2435  0.1517 -0.0591
   17MOL   C419 8771   7.248   5.309   4.866 -0.3044  0.3646 -0.0273
   17MOL   N420 8772   7.334   5.195   4.894  0.1788  0.6339 -0.5986
   17MOL   C421 8773   7.332   5.073   4.825  0.0023 -0.6744 -0.2754
   17MOL   C422 8774   7.440   4.995   4.872  0.2212  0.2251 -0.1705
   17MOL   C423 8775   7.457   4.863   4.823  0.0955 -0.2197 -0.4017
   17MOL   C424 8776   7.361   4.813   4.731 -0.6321  0.0107 -0.3752
   17MOL   C425 8777   7.269   4.900   4.669  0.7959 -0.1959  0.3330
   17MOL   C426 8778   7.247   5.029   4.719 -0.1752 -0.5072 -0.0054
   17MOL   C427 8779   7.513   5.071   4.968 -0.3331 -0.1897  1.0338
   17MOL   C428 8780   7.441   5.195   4.985 -0.9069  0.1135 -0.8123
   17MOL   C429 8781   7.490   5.295   5.077  0.3871 -0.3653 -1.0041
   17MOL   C430 8782   7.606   5.265   5.148  0.4522 -0.0206 -0.3826
   17MOL   C431 8783   7.675   5.142   5.127 -0.9191 -0.0145 -0.5234
   17MOL   C432 8784   7.629   5.042   5.040  0.4680  0.3977  0.1368
   17MOL   H433 8785   7.404   5.390   4.735  1.1095  1.6526  0.5535
   17MOL   H434 8786   7.379   5.485   4.880  2.0696  0.0385 -1.4435
   17MOL   H435 8787   7.180   5.271   4.790  1.2892 -2.6771 -0.0412
   17MOL   H436 8788   7.539   4.804   4.861  0.5563  1.8482  1.9919
   17MOL   H437 8789   7.352   4.712   4.692 -4.2524 -1.0401  2.9060
   17MOL   H438 8790   7.209   4.857   4.590 -0.0580  0.5393  0.5739
   17MOL   H439 8791   7.165   5.086   4.677  1.4027  0.1048 -2.4196
   17MOL   H440 8792   7.447   5.394   5.086 -0.1180 -0.6620 -0.0486
   17MOL   H441 8793   7.644   5.346   5.209 -0.0036 -0.0877 -0.0012
   17MOL   H442 8794   7.767   5.139   5.184 -1.3236  1.2437  0.2056
   17MOL   H443 8795   7.690   4.954   5.027 -0.8983 -0.3805 -1.0966
   17MOL   C444 8796   7.157   5.342   4.983 -0.3793 -0.0095 -0.2928
   17MOL   C445 8797   7.106   5.225   5.074 -0.1539  1.1382  0.4374
   17MOL   N446 8798   7.040   5.283   5.191 -0.1679  0.5258  0.0908
   17MOL   C447 8799   7.079   5.277   5.325 -1.0312 -0.1353  0.6838
   17MOL   C448 8800   6.986   5.346   5.406 -0.1181  0.2940 -0.4776
   17MOL   C449 8801   7.006   5.348   5.544 -0.6337 -0.1486  1.0818
   17MOL   C450 8802   7.124   5.296   5.606 -0.0504  0.4993 -0.0031
   17MOL   C451 8803   7.219   5.234   5.523 -0.7136 -0.0856 -0.2700
   17MOL   C452 8804   7.196   5.221   5.385  0.5766  0.1233 -1.1219
   17MOL   C453 8805   6.882   5.389   5.325 -0.1607  0.4296  0.1458
   17MOL   C454 8806   6.914   5.350   5.192 -0.5838  0.7760  1.0273
   17MOL   C455 8807   6.825   5.375   5.084  0.0933 -0.5149  0.5570
   17MOL   C456 8808   6.704   5.432   5.113 -0.0181 -0.3272 -0.1470
   17MOL   C457 8809   6.672   5.486   5.241 -0.1142  0.6683 -0.1911
   17MOL   C458 8810   6.756   5.449   5.346  0.8032  0.4968  0.5376
   17MOL   H459 8811   7.210   5.420   5.037 -1.9876  1.9772 -1.5248
   17MOL   H460 8812   7.071   5.391   4.938  0.4635  2.9269  1.1686
   17MOL   H461 8813   7.197   5.176   5.106 -0.5488  0.3112  0.2915
   17MOL   H462 8814   6.927   5.381   5.610 -4.0360 -2.9329 -1.3869
   17MOL   H463 8815   7.130   5.306   5.713  1.2405 -0.0466 -0.0109
   17MOL   H464 8816   7.309   5.197   5.570 -0.6490 -0.5695 -0.7661
   17MOL   H465 8817   7.273   5.171   5.329 -1.7079 -3.2017 -1.4358
   17MOL   H466 8818   6.842   5.337   4.984 -0.0169  2.6398 -0.7405
   17MOL   H467 8819   6.629   5.458   5.039 -0.6680 -1.7005  0.0238
   17MOL   H468 8820   6.573   5.528   5.252 -0.1591  0.0564  1.8999
   17MOL   H469 8821   6.729   5.480   5.445 -2.0825  0.5433 -0.2267
   17MOL   C470 8822   7.021   5.117   5.007  0.3765 -0.0354 -0.2503
   17MOL   C471 8823   7.016   4.990   5.093 -0.6438 -0.1769 -0.6172
   17MOL   N472 8824   6.894   4.918   5.070  0.0152  0.4294  1.0761
   17MOL   C473 8825   6.795   4.890   5.159 -0.1147  0.4012  0.5053
   17MOL   C474 8826   6.689   4.813   5.096 -0.1350 -0.0867  0.6101
   17MOL   C475 8827   6.578   4.773   5.169  0.2733  0.3698 -0.2005
   17MOL   C476 8828   6.559   4.825   5.299 -0.7441 -0.0125  0.3349
   17MOL   C477 8829   6.664   4.896   5.367  0.5438 -0.3989 -0.6753
   17MOL   C478 8830   6.784   4.921   5.299 -0.3073  0.5307  1.0142
   17MOL   C479 8831   6.733   4.791   4.963 -0.8589  0.2323  0.2141
   17MOL   C480 8832   6.862   4.856   4.950  0.4394  0.8771 -0.7130
   17MOL   C481 8833   6.928   4.852   4.827 -0.4579  0.4502  0.1782
   17MOL   C482 8834   6.870   4.792   4.715 -0.5827 -1.3122  0.2370
   17MOL   C483 8835   6.737   4.744   4.725  0.1356 -0.3404 -0.4069
   17MOL   C484 8836   6.672   4.739   4.851 -0.4007  0.2427 -0.4211
   17MOL   H485 8837   6.917   5.147   4.993  0.2305 -0.8291 -0.8956
   17MOL   H486 8838   7.058   5.086   4.909  0.0750 -3.2220  0.5860
   17MOL   H487 8839   7.009   5.020   5.198  2.4341  1.1393 -0.7187
   17MOL   H488 8840   6.504   4.713   5.118 -0.5111  0.6108  0.6544
   17MOL   H489 8841   6.469   4.803   5.355 -0.5728  0.6215  0.8530
   17MOL   H490 8842   6.662   4.930   5.470  0.4215  0.5543 -0.9859
   17MOL   H491 8843   6.858   4.981   5.349 -0.7438  0.7406  1.4041
   17MOL   H492 8844   7.028   4.892   4.815 -0.7627  1.3921  0.7491
   17MOL   H493 8845   6.921   4.786   4.620  1.2400  1.8148  0.9428
   17MOL   H494 8846   6.683   4.713   4.637 -0.3417 -1.2525  0.2066
   17MOL   H495 8847   6.568   4.717   4.872  0.2453 -0.8157  1.7937
   17MOL   C496 8848   7.147   4.905   5.094  0.5584  0.7179  0.0303
   17MOL   C497 8849   7.128   4.759   5.153 -0.4461  1.0342 -0.2500
   17MOL   N498 8850   7.232   4.668   5.107  0.3200  0.3934  0.7619
   17MOL   C499 8851   7.357   4.638   5.155 -0.7313 -0.3903  0.1612
   17MOL   C500 8852   7.430   4.572   5.056  0.9506  0.1363  0.5211
   17MOL   C501 8853   7.572   4.569   5.069  0.4084  0.3766  0.1544
   17MOL   C502 8854   7.632   4.609   5.187 -0.3186 -0.7143  0.1813
   17MOL   C503 8855   7.561   4.673   5.282  0.5308 -0.2382 -0.2475
   17MOL   C504 8856   7.418   4.689   5.274  0.2044  0.2379  0.0455
   17MOL   C505 8857   7.335   4.534   4.955  0.0056  0.0108 -0.3645
   17MOL   C506 8858   7.210   4.589   4.990  0.6441  0.2421  0.6134
   17MOL   C507 8859   7.099   4.572   4.903  0.4782 -0.5316 -0.4490
   17MOL   C508 8860   7.113   4.504   4.782 -0.3251  0.4287 -0.0414
   17MOL   C509 8861   7.237   4.462   4.744 -0.4165 -0.2869 -0.3565
   17MOL   C510 8862   7.347   4.474   4.826 -0.7454  0.3148 -0.1007
   17MOL   H511 8863   7.181   4.897   4.990 -0.9138  2.0137 -0.5616
   17MOL   H512 8864   7.240   4.947   5.133  1.0867  1.8659 -2.3397
   17MOL   H513 8865   7.030   4.727   5.119 -1.1151  0.9672  1.6673
   17MOL   H514 8866   7.623   4.543   4.977 -2.5433  1.5728 -1.8856
   17MOL   H515 8867   7.739   4.602   5.190 -0.0585  2.4902 -0.1151
   17MOL   H516 8868   7.619   4.739   5.345 -0.5169 -0.4673  0.9831
   17MOL   H517 8869   7.368   4.746   5.351 -1.6414 -1.2072 -0.0666
   17MOL   H518 8870   7.005   4.620   4.929  0.4420 -0.7036 -0.2619
   17MOL   H519 8871   7.028   4.508   4.715 -0.0443 -0.4452 -0.4679
   17MOL   H520 8872   7.244   4.413   4.648 -2.8511 -1.2567 -0.0855
   17MOL   H521 8873   7.441   4.432   4.794  0.1777  1.7109  0.7083
   17MOL   H522 8874   7.132   4.762   5.262 -0.4248  2.0929 -0.2749
   18MOL     C1 8875   1.264   0.647   2.176 -0.0962 -0.3308 -0.0711
   18MOL     C2 8876   1.364   0.737   2.117  0.3626  0.4662 -0.7490
   18MOL     N3 8877   1.500   0.681   2.126  0.8517 -0.0729 -0.1337
   18MOL     C4 8878   1.602   0.741   2.202  0.2177  0.0843  0.1580
   18MOL     C5 8879   1.724   0.669   2.185 -0.6407 -0.3551  0.1277
   18MOL     C6 8880   1.840   0.711   2.251  0.4667 -0.0128 -0.2476
   18MOL     C7 8881   1.830   0.815   2.340  0.1145  0.3825 -0.2370
   18MOL     C8 8882   1.709   0.884   2.364  0.3919  0.7938  0.0411
   18MOL     C9 8883   1.595   0.849   2.289 -0.2089  0.2812 -0.3177
   18MOL    C10 8884   1.689   0.552   2.106  0.6057 -0.2254  0.2739
   18MOL    C11 8885   1.553   0.562   2.071  0.2294 -0.2461  0.6514
   18MOL    C12 8886   1.491   0.463   1.995 -0.1835 -0.8321  0.1658
   18MOL    C13 8887   1.561   0.349   1.953  0.1574  0.1150  0.5448
   18MOL    C14 8888   1.701   0.341   1.983 -0.3847  0.1857  0.8742
   18MOL    C15 8889   1.757   0.438   2.063  0.1924  0.5821 -0.1173
   18MOL    H16 8890   1.236   0.576   2.098 -2.5159 -0.6845  1.0817
   18MOL    H17 8891   1.178   0.701   2.213  1.7465 -0.1392  4.2858
   18MOL    H18 8892   1.358   0.835   2.164  3.7558  0.8981 -1.1190
   18MOL    H19 8893   1.922   0.646   2.226  1.3722  1.1766 -0.4004
   18MOL    H20 8894   1.926   0.845   2.380  0.6124 -0.9434 -0.4021
   18MOL    H21 8895   1.707   0.966   2.435  0.5611  2.4328 -1.7883
   18MOL    H22 8896   1.503   0.903   2.308 -0.5598  0.2924 -1.9504
   18MOL    H23 8897   1.389   0.483   1.964  0.5921  2.7106 -0.2489
   18MOL    H24 8898   1.504   0.271   1.903  0.2144  0.0809  0.5333
   18MOL    H25 8899   1.763   0.267   1.934 -0.6150  1.0788 -0.8055
   18MOL    H26 8900   1.861   0.431   2.092  0.6846  2.9404 -1.2074
   18MOL    H27 8901   1.291   0.591   2.266 -0.0152 -0.3372 -0.0989
   18MOL    C28 8902   1.338   0.760   1.962 -0.2134  0.7126  0.4265
   18MOL    C29 8903   1.214   0.853   1.928 -0.0650 -0.2479 -0.2609
   18MOL    N30 8904   1.225   0.986   2.000 -0.0770 -0.1177 -0.0219
   18MOL    C31 8905   1.131   1.053   2.072  0.0243  0.3227 -0.1299
   18MOL    C32 8906   1.174   1.180   2.115  0.0553 -0.7011  0.2083
   18MOL    C33 8907   1.088   1.264   2.194  0.8545 -0.2581 -0.6188
   18MOL    C34 8908   0.955   1.221   2.221 -0.1027  0.0194 -0.4376
   18MOL    C35 8909   0.914   1.091   2.182 -0.0923 -0.1391  0.0763
   18MOL    C36 8910   1.001   1.010   2.108  0.0055  0.2696 -0.5082
   18MOL    C37 8911   1.299   1.200   2.048 -0.4999  0.4518 -0.0508
   18MOL    C38 8912   1.332   1.075   1.979  0.5568  0.3847  0.2071
   18MOL    C39 8913   1.447   1.069   1.901 -0.2763  0.4069 -0.8581
   18MOL    C40 8914   1.535   1.178   1.896 -0.8706 -0.0099 -0.5458
   18MOL    C41 8915   1.506   1.295   1.965  0.4494 -0.0992  0.1322
   18MOL    C42 8916   1.388   1.309   2.038  0.2530  0.2704  0.0333
   18MOL    H43 8917   1.432   0.791   1.917  0.0394 -0.3445  0.1944
   18MOL    H44 8918   1.330   0.666   1.906  0.5586 -1.3704  3.6899
   18MOL    H45 8919   1.128   0.808   1.978 -0.0055 -1.7517 -1.4839
   18MOL    H46 8920   1.122   1.366   2.209  2.3645 -0.6545 -1.3010
   18MOL    H47 8921   0.885   1.288   2.269  0.2975 -0.0096  0.1966
   18MOL    H48 8922   0.811   1.066   2.199  0.6521 -2.1308  1.8209
   18MOL    H49 8923   0.965   0.912   2.081  1.0885 -0.8779  2.0794
   18MOL    H50 8924   1.468   0.983   1.840  1.3344  0.7606 -0.8103
   18MOL    H51 8925   1.613   1.167   1.822  0.8018  1.0261  1.0305
   18MOL    H52 8926   1.581   1.373   1.956  0.1804  0.0302 -1.0741
   18MOL    H53 8927   1.360   1.396   2.096  0.7102 -0.0312  0.7232
   18MOL    C54 8928   1.183   0.886   1.779 -0.1112  0.3517  0.5711
   18MOL    C55 8929   1.113   0.764   1.722  0.1027  0.2407 -1.2067
   18MOL    N56 8930   0.985   0.723   1.786  0.8081 -0.3561 -0.1450
   18MOL    C57 8931   0.961   0.594   1.839 -0.2774 -0.2114  1.2513
   18MOL    C58 8932   0.833   0.585   1.896  0.2207  0.6154  0.2560
   18MOL    C59 8933   0.785   0.473   1.962 -0.1655 -0.1971 -0.5891
   18MOL    C60 8934   0.876   0.365   1.983 -0.8488  0.8044 -0.0393
   18MOL    C61 8935   1.002   0.371   1.928  0.7540 -0.5628 -0.3635
   18MOL    C62 8936   1.047   0.484   1.850 -0.5099 -0.6349 -0.3138
   18MOL    C63 8937   0.776   0.713   1.870 -0.6616 -0.7806  0.1184
   18MOL    C64 8938   0.872   0.797   1.804 -0.6209  0.2926  0.5810
   18MOL    C65 8939   0.845   0.927   1.773 -0.3327 -0.3757 -0.1293
   18MOL    C66 8940   0.722   0.982   1.797 -0.1371 -0.0217 -0.7184
   18MOL    C67 8941   0.625   0.910   1.861  0.7852  0.1789  0.1412
   18MOL    C68 8942   0.651   0.774   1.899 -0.3552  0.2026 -1.3645
   18MOL    H69 8943   1.127   0.979   1.779  0.8238  0.9193  0.2636
   18MOL    H70 8944   1.283   0.903   1.740 -0.3279  0.5709  0.1134
   18MOL    H71 8945   1.183   0.680   1.723 -0.6965 -0.4408 -1.5138
   18MOL    H72 8946   0.686   0.476   2.004 -0.8931 -1.5995 -2.1189
   18MOL    H73 8947   0.849   0.276   2.039  0.8947 -1.1221 -2.1656
   18MOL    H74 8948   1.078   0.299   1.952  0.2752 -1.1686 -0.6540
   18MOL    H75 8949   1.150   0.482   1.817 -0.6513 -0.9626 -0.7365
   18MOL    H76 8950   0.914   0.992   1.721 -1.2157  1.8360  1.3797
   18MOL    H77 8951   0.700   1.085   1.773  2.3652  0.7120  0.0130
   18MOL    H78 8952   0.529   0.951   1.888  0.2390 -1.3844  0.6140
   18MOL    H79 8953   0.579   0.712   1.950 -0.1775  1.0736 -0.0483
   18MOL    C80 8954   1.090   0.795   1.571  0.6229  0.8817 -0.8517
   18MOL    C81 8955   1.214   0.807   1.479  0.3200 -0.3464  0.6936
   18MOL    N82 8956   1.317   0.708   1.514  0.0848 -0.1461 -0.6113
   18MOL    C83 8957   1.440   0.725   1.564  0.5015  0.0331  0.2528
   18MOL    C84 8958   1.502   0.604   1.598 -0.4112 -0.0718  0.4647
   18MOL    C85 8959   1.624   0.607   1.663 -0.4586  0.5462 -0.3381
   18MOL    C86 8960   1.702   0.725   1.663  0.1053 -0.4072 -0.8868
   18MOL    C87 8961   1.639   0.847   1.626  0.3582  0.3482 -0.2962
   18MOL    C88 8962   1.511   0.847   1.584 -0.7537  0.2351 -0.0693
   18MOL    C89 8963   1.402   0.501   1.570  0.2801 -0.4186 -0.1817
   18MOL    C90 8964   1.296   0.569   1.505 -0.5232  0.1479  0.5691
   18MOL    C91 8965   1.188   0.495   1.460 -0.3230 -0.3544  0.5078
   18MOL    C92 8966   1.179   0.359   1.472 -0.2703  0.6457 -0.1314
   18MOL    C93 8967   1.282   0.293   1.542  0.1646  0.2516 -0.2465
   18MOL    C94 8968   1.389   0.361   1.594 -0.4641 -0.6962  0.1522
   18MOL    H95 8969   1.042   0.707   1.529  0.9147  0.2876  0.0467
   18MOL    H96 8970   1.028   0.884   1.564  2.2273  2.2370  1.4458
   18MOL    H97 8971   1.257   0.903   1.507 -0.8820  1.0133 -1.9375
   18MOL    H98 8972   1.669   0.520   1.708 -1.4096  1.0385  1.6321
   18MOL    H99 8973   1.802   0.727   1.704  0.1020  1.3097 -0.9163
   18MOL   H100 8974   1.692   0.941   1.620  0.0050  0.5986  0.4782
   18MOL   H101 8975   1.462   0.942   1.566 -2.6930 -0.5929  0.5953
   18MOL   H102 8976   1.107   0.547   1.410 -0.0940  1.1656  1.6738
   18MOL   H103 8977   1.091   0.309   1.433 -1.2538  2.0835  0.2100
   18MOL   H104 8978   1.273   0.190   1.575 -1.6814  0.9787  1.6247
   18MOL   H105 8979   1.472   0.313   1.645  0.7618 -0.1757 -1.3214
   18MOL   C106 8980   1.181   0.806   1.330  0.3631 -0.0696 -0.3099
   18MOL   C107 8981   1.294   0.837   1.232 -0.4608 -0.7729 -0.2640
   18MOL   N108 8982   1.362   0.715   1.191  0.1506  0.4857 -0.1389
   18MOL   C109 8983   1.499   0.681   1.207  0.0446  0.0571 -0.2680
   18MOL   C110 8984   1.534   0.566   1.130  0.3265 -0.2373  0.2847
   18MOL   C111 8985   1.671   0.526   1.120  0.7996 -0.5546 -0.0325
   18MOL   C112 8986   1.768   0.599   1.193  0.3981  0.5423  0.1931
   18MOL   C113 8987   1.740   0.713   1.269  0.2261 -0.2406 -0.5221
   18MOL   C114 8988   1.605   0.759   1.264  0.1437 -0.2660 -0.6439
   18MOL   C115 8989   1.417   0.511   1.081  0.1891 -0.2460  0.7013
   18MOL   C116 8990   1.311   0.603   1.123  0.6071 -0.1674 -0.6985
   18MOL   C117 8991   1.176   0.574   1.089 -0.2519  0.2571  0.1200
   18MOL   C118 8992   1.143   0.453   1.023 -0.2094  0.1620 -0.3410
   18MOL   C119 8993   1.250   0.370   0.976 -0.5204  1.0743  0.0180
   18MOL   C120 8994   1.385   0.401   0.998  0.5373 -0.3507  0.9163
   18MOL   H121 8995   1.137   0.710   1.306  2.4326 -1.1606  0.1498
   18MOL   H122 8996   1.092   0.869   1.322  1.4251  1.4898 -0.2305
   18MOL   H123 8997   1.369   0.889   1.291  1.4804 -2.0259 -1.5489
   18MOL   H124 8998   1.701   0.439   1.064  1.6171 -1.4527  1.7578
   18MOL   H125 8999   1.872   0.568   1.189  0.5968  0.5244  3.8911
   18MOL   H126 9000   1.816   0.765   1.325 -1.4943  2.2480 -0.4177
   18MOL   H127 9001   1.588   0.850   1.319  0.8250 -0.0390 -0.7972
   18MOL   H128 9002   1.087   0.631   1.110 -1.1486 -0.9208 -0.4805
   18MOL   H129 9003   1.042   0.425   0.998 -0.1378  0.8406 -1.4366
   18MOL   H130 9004   1.213   0.280   0.928 -1.0754  1.3794 -0.1275
   18MOL   H131 9005   1.458   0.330   0.961  0.0999  0.5376 -1.7152
   18MOL   C132 9006   1.267   0.929   1.111  0.1569 -0.6202  0.7072
   18MOL   C133 9007   1.185   1.061   1.148 -0.5864  0.1005  0.1886
   18MOL   N134 9008   1.204   1.127   1.282 -0.3508  0.2532 -0.0145
   18MOL   C135 9009   1.103   1.169   1.367 -0.1638  0.1693 -0.5642
   18MOL   C136 9010   1.163   1.223   1.483 -0.2955  0.3752  0.3484
   18MOL   C137 9011   1.080   1.272   1.592  0.4190  0.7571  1.0345
   18MOL   C138 9012   0.937   1.268   1.576  0.5832 -0.6945  0.3755
   18MOL   C139 9013   0.884   1.230   1.453 -0.3871  0.5522 -0.3753
   18MOL   C140 9014   0.962   1.175   1.350 -0.1155 -0.1537  0.0708
   18MOL   C141 9015   1.308   1.217   1.464  0.5334  0.3546 -0.0739
   18MOL   C142 9016   1.328   1.162   1.337 -0.5268  0.7069  0.3436
   18MOL   C143 9017   1.457   1.139   1.289  0.5999 -0.4827 -0.6042
   18MOL   C144 9018   1.571   1.165   1.371  0.3593  0.4218  0.2932
   18MOL   C145 9019   1.555   1.221   1.499 -0.3415 -0.1646  0.4826
   18MOL   C146 9020   1.423   1.238   1.546  0.1854 -0.3830 -0.3746
   18MOL   H147 9021   1.356   0.961   1.057 -0.4005 -0.9704 -0.4227
   18MOL   H148 9022   1.217   0.878   1.029  0.7613  0.5037 -0.3640
   18MOL   H149 9023   1.080   1.029   1.147 -1.2441  2.1910 -0.0559
   18MOL   H150 9024   1.128   1.304   1.683  0.3460 -0.4046  1.5007
   18MOL   H151 9025   0.879   1.306   1.659  0.3754 -1.4603  0.5875
   18MOL   H152 9026   0.778   1.227   1.433  0.0362  0.6518 -2.7024
   18MOL   H153 9027   0.909   1.133   1.266 -1.4431 -2.3886  1.9544
   18MOL   H154 9028   1.470   1.089   1.194  0.2217  0.7956 -1.3412
   18MOL   H155 9029   1.674   1.146   1.343  0.2827  0.9754 -0.3616
   18MOL   H156 9030   1.635   1.260   1.560 -0.1371  1.0385 -0.5175
   18MOL   H157 9031   1.398   1.265   1.648 -1.0677 -2.7113 -0.0276
   18MOL   C158 9032   1.181   1.165   1.028 -0.2806  0.0074  0.2204
   18MOL   C159 9033   1.098   1.120   0.911 -0.0309  0.8035 -0.3898
   18MOL   N160 9034   0.963   1.100   0.943 -0.5546 -0.0265  0.4469
   18MOL   C161 9035   0.893   0.979   0.955  0.0145  0.4541 -0.3666
   18MOL   C162 9036   0.762   1.009   0.999 -0.4047 -0.2442 -0.1585
   18MOL   C163 9037   0.676   0.903   1.026 -0.5418 -0.7363  0.1518
   18MOL   C164 9038   0.716   0.769   1.018 -0.3123  0.7002 -0.3234
   18MOL   C165 9039   0.846   0.746   0.964  0.8979 -0.3388  0.1558
   18MOL   C166 9040   0.936   0.847   0.940 -0.3323 -0.4465 -0.0929
   18MOL   C167 9041   0.750   1.153   1.004  1.2623  0.0228  0.8749
   18MOL   C168 9042   0.875   1.205   0.974 -0.2000 -0.3467 -0.3427
   18MOL   C169 9043   0.902   1.344   0.989  0.2590 -0.2576 -0.0753
   18MOL   C170 9044   0.797   1.431   1.027 -0.1802  0.3966  0.2493
   18MOL   C171 9045   0.667   1.376   1.051 -0.4573 -0.0182  0.2659
   18MOL   C172 9046   0.642   1.241   1.037  0.2708 -0.0438 -0.2876
   18MOL   H173 9047   1.160   1.264   1.068  0.2191 -0.1821  0.9759
   18MOL   H174 9048   1.285   1.178   0.999 -0.4834  1.1875  0.0036
   18MOL   H175 9049   1.143   1.021   0.903 -0.4139  0.4592  1.5519
   18MOL   H176 9050   0.575   0.921   1.060  0.2917 -1.6114  3.2017
   18MOL   H177 9051   0.649   0.685   1.027 -1.2793  1.2496 -2.3071
   18MOL   H178 9052   0.879   0.648   0.932 -0.8303  0.0996 -3.1919
   18MOL   H179 9053   1.031   0.823   0.894 -0.7788 -1.0037 -0.7379
   18MOL   H180 9054   1.001   1.385   0.972 -1.1248  2.6611 -1.5687
   18MOL   H181 9055   0.824   1.534   1.045  0.1997  0.2646  0.4314
   18MOL   H182 9056   0.583   1.437   1.080  0.7253  0.4783  2.7815
   18MOL   H183 9057   0.544   1.202   1.058  0.8098 -1.9008 -1.1661
   18MOL   C184 9058   1.124   1.177   0.764  0.5738 -0.0698  0.4503
   18MOL   C185 9059   1.266   1.166   0.713 -0.2239  0.1199  0.4230
   18MOL   N186 9060   1.321   1.028   0.711 -0.9167  0.3505 -0.2134
   18MOL   C187 9061   1.453   0.994   0.757 -0.2222  0.5978 -0.3966
   18MOL   C188 9062   1.462   0.853   0.765 -0.1240 -0.1293 -0.1224
   18MOL   C189 9063   1.589   0.797   0.798  0.4207  0.8043  0.0845
   18MOL   C190 9064   1.701   0.868   0.838  0.0108 -0.1086 -0.2223
   18MOL   C191 9065   1.686   1.009   0.846 -0.1789 -0.3534 -0.2877
   18MOL   C192 9066   1.561   1.076   0.807 -0.1812  0.1354 -0.0111
   18MOL   C193 9067   1.339   0.799   0.726 -0.4463  0.2323 -0.4024
   18MOL   C194 9068   1.256   0.905   0.683  1.2437 -0.1166 -0.2883
   18MOL   C195 9069   1.127   0.881   0.638  0.1785 -0.0885  0.2036
   18MOL   C196 9070   1.078   0.746   0.640 -0.0491  0.0650  0.9639
   18MOL   C197 9071   1.163   0.639   0.680  0.2572 -0.1550  0.0172
   18MOL   C198 9072   1.289   0.664   0.720  0.2194  0.4237 -0.7105
   18MOL   H199 9073   1.057   1.144   0.685 -0.6207 -0.2110  1.5060
   18MOL   H200 9074   1.094   1.281   0.775  0.3279  0.1943 -2.3666
   18MOL   H201 9075   1.322   1.221   0.789  0.8861 -0.7797  0.2863
   18MOL   H202 9076   1.606   0.691   0.788  1.4744  1.1858 -2.4531
   18MOL   H203 9077   1.795   0.823   0.866  0.4855  1.6469  1.0420
   18MOL   H204 9078   1.769   1.073   0.874 -0.7902  0.4216 -0.2104
   18MOL   H205 9079   1.546   1.182   0.817 -0.0699  0.2809 -1.3003
   18MOL   H206 9080   1.067   0.964   0.605 -1.3965 -0.5140  1.8938
   18MOL   H207 9081   0.975   0.728   0.612  0.4493 -0.9783 -0.2388
   18MOL   H208 9082   1.126   0.538   0.683 -1.0323  0.2924 -0.3754
   18MOL   H209 9083   1.353   0.580   0.741  2.7691  2.6702  0.7993
   18MOL   C210 9084   1.292   1.231   0.571 -0.3757  0.0972 -0.3709
   18MOL   C211 9085   1.256   1.378   0.547  1.1549 -0.5928 -0.2369
   18MOL   N212 9086   1.253   1.462   0.670 -0.4261  0.2846  0.5262
   18MOL   C213 9087   1.149   1.542   0.704  0.4947  0.3233  0.2688
   18MOL   C214 9088   1.178   1.600   0.829  0.2056 -0.6186  0.0204
   18MOL   C215 9089   1.077   1.682   0.881 -0.5009 -0.3070 -0.6032
   18MOL   C216 9090   0.945   1.696   0.824 -0.3116  0.3915 -0.7329
   18MOL   C217 9091   0.927   1.637   0.697  0.9492  0.5620  0.3224
   18MOL   C218 9092   1.027   1.561   0.634 -0.1434  0.6274  0.0662
   18MOL   C219 9093   1.301   1.554   0.877 -0.2372 -0.2077 -0.0656
   18MOL   C220 9094   1.358   1.485   0.761  0.1321  0.0729 -0.1552
   18MOL   C221 9095   1.490   1.431   0.763 -0.0012  0.2231  0.1761
   18MOL   C222 9096   1.567   1.443   0.882 -0.0054 -0.8181  0.5638
   18MOL   C223 9097   1.511   1.512   0.990  0.6486  1.1451  0.1190
   18MOL   C224 9098   1.382   1.570   0.987 -0.9635 -0.2063 -0.2240
   18MOL   H225 9099   1.397   1.225   0.545 -0.0448  0.5101  0.8757
   18MOL   H226 9100   1.244   1.167   0.496 -0.7743  0.5951 -0.5475
   18MOL   H227 9101   1.156   1.381   0.504  0.0571  2.4158  2.3498
   18MOL   H228 9102   1.094   1.721   0.980 -0.7511  0.5785 -0.8983
   18MOL   H229 9103   0.865   1.755   0.866 -1.8339 -1.5653 -0.8091
   18MOL   H230 9104   0.837   1.647   0.637  0.9947 -0.1879  0.1162
   18MOL   H231 9105   1.007   1.527   0.533 -1.5950  0.9893  0.2179
   18MOL   H232 9106   1.530   1.379   0.676 -0.2782  2.5614 -1.3920
   18MOL   H233 9107   1.667   1.403   0.882  0.7277  0.9395  1.7588
   18MOL   H234 9108   1.570   1.529   1.079  2.8224  1.1745 -1.2811
   18MOL   H235 9109   1.346   1.616   1.078 -0.1035 -0.0178  0.0272
   18MOL   C236 9110   1.345   1.443   0.435  0.2393  0.3794 -0.9162
   18MOL   C237 9111   1.353   1.385   0.288 -0.4898  0.2096  0.4362
   18MOL   N238 9112   1.229   1.322   0.240 -0.6694  0.4306 -0.1528
   18MOL   C239 9113   1.205   1.183   0.205  0.1937 -0.6695  0.2628
   18MOL   C240 9114   1.068   1.168   0.168 -0.0576 -0.8037 -0.6710
   18MOL   C241 9115   1.021   1.045   0.116 -0.8918  0.4767  0.8699
   18MOL   C242 9116   1.110   0.935   0.095  0.2125  0.0941  0.2517
   18MOL   C243 9117   1.241   0.948   0.146 -0.5081  0.0176  0.4894
   18MOL   C244 9118   1.285   1.069   0.205 -0.6100  0.1020 -0.3133
   18MOL   C245 9119   1.004   1.300   0.181  0.0058  0.4678  0.6530
   18MOL   C246 9120   1.104   1.381   0.238  0.1948  0.2436  0.2655
   18MOL   C247 9121   1.068   1.511   0.268 -0.2529 -0.7200 -0.2387
   18MOL   C248 9122   0.940   1.561   0.255  0.7256  0.0998  0.4083
   18MOL   C249 9123   0.839   1.478   0.197  0.0762  0.1982 -0.0797
   18MOL   C250 9124   0.875   1.351   0.147  0.4818  1.2401 -0.3358
   18MOL   H251 9125   1.336   1.551   0.439  2.4580  0.5444  0.1455
   18MOL   H252 9126   1.440   1.432   0.486  0.2048  0.4238 -0.8424
   18MOL   H253 9127   1.423   1.302   0.278 -0.3262  0.6794 -2.4837
   18MOL   H254 9128   0.918   1.038   0.083 -1.1167  0.1443  1.6277
   18MOL   H255 9129   1.088   0.846   0.039  1.0076 -1.0162  1.6691
   18MOL   H256 9130   1.304   0.865   0.121 -1.0252  0.6461 -3.1006
   18MOL   H257 9131   1.387   1.080   0.237 -0.7826  0.1344  0.2289
   18MOL   H258 9132   1.141   1.577   0.312 -0.2339  0.5966 -2.1759
   18MOL   H259 9133   0.908   1.660   0.285  1.6765 -0.5659  3.7438
   18MOL   H260 9134   0.737   1.511   0.184 -0.1326  0.0671  1.1569
   18MOL   H261 9135   0.808   1.284   0.095  2.4234  0.3987 -1.8532
   18MOL   C262 9136   1.403   1.494   0.193 -0.1032 -0.7987  0.1918
   18MOL   C263 9137   1.555   1.539   0.222  0.1085  0.2539 -0.8759
   18MOL   N264 9138   1.641   1.423   0.206  0.6576 -0.1896 -0.2050
   18MOL   C265 9139   1.703   1.350   0.308 -0.1458  0.0988 -0.9738
   18MOL   C266 9140   1.765   1.230   0.254  0.0042  0.1276  0.6067
   18MOL   C267 9141   1.824   1.136   0.345 -0.3640  0.2476  0.1802
   18MOL   C268 9142   1.823   1.157   0.482 -0.2473  0.2049  0.6208
   18MOL   C269 9143   1.769   1.279   0.534 -0.1429  0.4667 -0.8468
   18MOL   C270 9144   1.719   1.374   0.445 -0.2980 -0.3694  0.3229
   18MOL   C271 9145   1.750   1.239   0.112 -0.4582 -0.6797  0.0651
   18MOL   C272 9146   1.678   1.359   0.089 -0.0485  0.4063 -0.7391
   18MOL   C273 9147   1.640   1.392   8.185 -0.1177 -0.4576 -0.6485
   18MOL   C274 9148   1.671   1.313   8.077  0.7002 -0.0320  0.2340
   18MOL   C275 9149   1.733   1.191   8.101  0.5070 -0.0579 -0.2618
   18MOL   C276 9150   1.779   1.159   0.000  0.1143 -0.7784 -0.4557
   18MOL   H277 9151   1.394   1.443   0.097  0.0932  1.4698 -1.0764
   18MOL   H278 9152   1.333   1.577   0.185 -0.2240 -0.6092  2.8345
   18MOL   H279 9153   1.570   1.555   0.328  1.0822  1.4802 -1.1936
   18MOL   H280 9154   1.872   1.044   0.316  0.8538  0.1687  2.3076
   18MOL   H281 9155   1.853   1.076   0.547 -0.4499  0.1404  0.6356
   18MOL   H282 9156   1.764   1.300   0.640  0.8681 -1.0082 -0.5048
   18MOL   H283 9157   1.683   1.465   0.492  1.4271  1.3346 -1.5301
   18MOL   H284 9158   1.579   1.481   8.179 -0.2290 -0.4565  0.3667
   18MOL   H285 9159   1.656   1.345   7.975 -0.5736 -0.7053  0.1935
   18MOL   H286 9160   1.764   1.124   8.022 -2.5193 -1.1569 -0.5942
   18MOL   H287 9161   1.837   1.068   0.008  1.8580  0.4114  0.6336
   18MOL   C288 9162   1.596   1.674   0.153  0.3503  0.3951 -0.5395
   18MOL   C289 9163   1.516   1.801   0.197  0.3767  0.3675 -0.7570
   18MOL   N290 9164   1.475   1.808   0.341 -0.3611 -0.3875 -0.8048
   18MOL   C291 9165   1.344   1.819   0.390 -0.1187 -0.3124  0.1733
   18MOL   C292 9166   1.352   1.831   0.533  0.3640  1.0772 -0.3639
   18MOL   C293 9167   1.229   1.862   0.602 -0.3745  0.1929  0.4865
   18MOL   C294 9168   1.111   1.881   0.532  0.9368 -0.5116 -0.5997
   18MOL   C295 9169   1.105   1.853   0.394 -0.3333 -0.2864  0.0951
   18MOL   C296 9170   1.221   1.825   0.324 -0.2177  0.1891 -0.1367
   18MOL   C297 9171   1.491   1.809   0.569 -0.3433  0.2931  0.2118
   18MOL   C298 9172   1.563   1.801   0.449 -0.3581 -0.3463 -0.4762
   18MOL   C299 9173   1.697   1.771   0.452 -0.3303  0.1858 -0.8941
   18MOL   C300 9174   1.767   1.757   0.569  0.2355 -0.1337  0.0777
   18MOL   C301 9175   1.699   1.777   0.690 -0.0547  0.3948 -0.4927
   18MOL   C302 9176   1.564   1.798   0.692  0.2351 -0.3254  0.1222
   18MOL   H303 9177   1.703   1.686   0.167  0.1450  4.3208 -1.5515
   18MOL   H304 9178   1.588   1.668   0.044 -0.0549 -0.3561 -0.4656
   18MOL   H305 9179   1.423   1.788   0.142 -0.9050  0.3384  1.3670
   18MOL   H306 9180   1.244   1.877   0.708 -0.2377 -0.4392  0.5605
   18MOL   H307 9181   1.021   1.911   0.585  1.9193  1.5912 -0.0621
   18MOL   H308 9182   1.012   1.874   0.344 -0.1948 -1.0169 -0.4692
   18MOL   H309 9183   1.213   1.804   0.219  3.6652  0.6389 -0.6093
   18MOL   H310 9184   1.749   1.743   0.361 -1.6701 -0.3792 -1.4983
   18MOL   H311 9185   1.873   1.737   0.569  0.1728 -0.4572  0.7463
   18MOL   H312 9186   1.758   1.776   0.780  1.6208 -0.9073 -1.5901
   18MOL   H313 9187   1.507   1.802   0.784  0.5737  1.6445  0.2753
   18MOL   C314 9188   1.587   1.936   0.157 -0.0407 -0.1855  0.5256
   18MOL   C315 9189   1.500   2.064   0.201  0.2003 -0.9787  0.6030
   18MOL   N316 9190   1.587   2.171   0.242  0.2883 -0.0629 -0.1492
   18MOL   C317 9191   1.606   2.214   0.372  0.4065  0.2057  0.6514
   18MOL   C318 9192   1.696   2.323   0.370  0.7207  0.0359  0.1172
   18MOL   C319 9193   1.708   2.390   0.495  0.4774 -0.5895  0.3524
   18MOL   C320 9194   1.661   2.343   0.619 -0.2155  0.0622  0.6361
   18MOL   C321 9195   1.593   2.224   0.617  0.9223  0.2781 -0.7009
   18MOL   C322 9196   1.563   2.160   0.497  0.0673  0.6361 -0.5250
   18MOL   C323 9197   1.753   2.331   0.239  0.2920 -0.4576  0.1448
   18MOL   C324 9198   1.678   2.241   0.159 -0.0009 -0.2562  0.0284
   18MOL   C325 9199   1.694   2.243   0.017 -0.3508  0.5853 -0.5315
   18MOL   C326 9200   1.776   2.339   8.187 -0.6218 -0.3512 -0.1081
   18MOL   C327 9201   1.848   2.428   0.045  0.2221  0.4786  0.0198
   18MOL   C328 9202   1.833   2.427   0.180 -0.1888  0.2055  0.4172
   18MOL   H329 9203   1.681   1.942   0.212 -0.0684 -0.4907  0.6070
   18MOL   H330 9204   1.609   1.939   0.050 -0.3997  0.9032  0.4786
   18MOL   H331 9205   1.441   2.047   0.291 -0.3166 -0.1361  0.4261
   18MOL   H332 9206   1.744   2.492   0.493 -0.0555 -0.4066 -0.9835
   18MOL   H333 9207   1.677   2.417   0.696 -1.0091  2.0373 -1.0173
   18MOL   H334 9208   1.559   2.184   0.711  0.7118 -1.8749 -1.6458
   18MOL   H335 9209   1.500   2.072   0.502  1.7174 -0.5444 -0.1352
   18MOL   H336 9210   1.641   2.183   8.171 -1.5758  0.2912  0.5804
   18MOL   H337 9211   1.791   2.343   8.080  2.2315  0.0481  0.2743
   18MOL   H338 9212   1.918   2.507   0.021  0.1425  0.3031 -0.8020
   18MOL   H339 9213   1.877   2.504   0.241  0.8262 -1.4208  1.7906
   18MOL   C340 9214   1.392   2.095   0.092  0.9872 -0.4078  0.3199
   18MOL   C341 9215   1.267   2.178   0.145 -0.3245  0.0746 -0.7356
   18MOL   N342 9216   1.292   2.289   0.235  0.0565 -0.6113 -0.7527
   18MOL   C343 9217   1.249   2.300   0.371 -0.2932 -0.6397 -0.1681
   18MOL   C344 9218   1.294   2.425   0.423  0.1456  0.1836  0.0374
   18MOL   C345 9219   1.272   2.443   0.565  0.5437 -0.0837 -0.3654
   18MOL   C346 9220   1.196   2.349   0.641 -0.2236 -0.4994 -0.0145
   18MOL   C347 9221   1.141   2.237   0.583  0.3699  0.2497  0.1079
   18MOL   C348 9222   1.166   2.211   0.445 -0.1021 -0.1251 -0.2896
   18MOL   C349 9223   1.361   2.493   0.320  0.8792 -0.3072 -0.3140
   18MOL   C350 9224   1.364   2.407   0.205 -0.6368  0.1638 -0.5782
   18MOL   C351 9225   1.436   2.452   0.085  0.5340  0.3650 -0.1930
   18MOL   C352 9226   1.500   2.581   0.091  0.0514  0.0958  0.1499
   18MOL   C353 9227   1.490   2.666   0.199 -0.2369 -0.1752 -0.9030
   18MOL   C354 9228   1.431   2.620   0.317  0.1270  0.3084  0.1884
   18MOL   H355 9229   1.439   2.140   0.005  1.2311 -1.2240  0.0312
   18MOL   H356 9230   1.359   1.997   0.058  1.0040 -0.8591  1.5810
   18MOL   H357 9231   1.202   2.112   0.202 -0.9961 -0.2912 -1.9168
   18MOL   H358 9232   1.305   2.531   0.619  1.0253 -0.5343  0.0789
   18MOL   H359 9233   1.171   2.352   0.746  0.0501 -0.5887  0.0545
   18MOL   H360 9234   1.083   2.162   0.634  1.7758 -1.7594 -1.1463
   18MOL   H361 9235   1.124   2.125   0.394 -3.2746  1.8170 -1.1295
   18MOL   H362 9236   1.442   2.385   0.001 -0.1991  1.4198 -1.0923
   18MOL   H363 9237   1.560   2.614   0.008  0.7424 -1.4983 -0.0066
   18MOL   H364 9238   1.545   2.757   0.214 -2.6058  1.5653 -2.4793
   18MOL   H365 9239   1.435   2.679   0.407 -0.9678 -1.6893  1.5804
   18MOL   C366 9240   1.186   2.216   0.017  0.1192  0.6236  0.5187
   18MOL   C367 9241   1.178   2.114   8.120  0.6139 -0.8149  0.8925
   18MOL   N368 9242   1.120   1.984   8.146  0.0429 -0.0987 -0.3115
   18MOL   C369 9243   1.195   1.865   8.123  0.5755  0.4184 -0.3638
   18MOL   C370 9244   1.100   1.760   8.151  0.0814  0.5119  0.0240
   18MOL   C371 9245   1.148   1.632   8.145 -0.3619 -0.0028 -0.3178
   18MOL   C372 9246   1.277   1.595   8.099 -0.1066  0.2125  0.4200
   18MOL   C373 9247   1.367   1.699   8.064 -0.1967 -0.1867  0.0765
   18MOL   C374 9248   1.325   1.833   8.079 -0.2500 -0.2458  0.1691
   18MOL   C375 9249   0.972   1.816   8.182  0.3294  0.6874 -0.4483
   18MOL   C376 9250   0.986   1.957   8.170  0.6776  0.2546 -0.0558
   18MOL   C377 9251   0.874   2.040   8.197  0.2521 -0.0982  0.5789
   18MOL   C378 9252   0.749   1.981   0.004  0.3836  0.1264  0.1465
   18MOL   C379 9253   0.738   1.844   0.007 -0.8468  0.1134  0.3256
   18MOL   C380 9254   0.846   1.763   8.208  0.1827  0.6452  0.7228
   18MOL   H381 9255   1.086   2.242   0.051 -0.4229  0.9093 -1.2259
   18MOL   H382 9256   1.224   2.306   8.196 -0.9591  0.5041 -0.5958
   18MOL   H383 9257   1.280   2.094   8.089  0.5686 -0.5137  0.5517
   18MOL   H384 9258   1.084   1.548   8.171  0.0057 -0.9179 -2.2731
   18MOL   H385 9259   1.311   1.492   8.096  1.3113  0.6804 -0.5305
   18MOL   H386 9260   1.467   1.685   8.025  0.0575  1.9756 -0.1359
   18MOL   H387 9261   1.380   1.921   8.050  0.3491 -0.3646  0.9230
   18MOL   H388 9262   0.894   2.147   8.198 -2.4505  0.4310  1.6909
   18MOL   H389 9263   0.665   2.044   0.031  1.2208  1.6669 -0.7744
   18MOL   H390 9264   0.644   1.797   0.031  0.0061 -2.2536 -0.7982
   18MOL   H391 9265   0.824   1.659   8.194  0.2201  0.8458 -0.9929
   18MOL   C392 9266   1.102   2.173   8.004  0.3336 -0.2704  0.3407
   18MOL   C393 9267   1.174   2.291   7.924  0.0217 -0.9625  0.6481
   18MOL   N394 9268   1.316   2.277   7.893  0.0717  0.1422  0.0162
   18MOL   C395 9269   1.412   2.374   7.912  0.1646  0.3728 -0.2760
   18MOL   C396 9270   1.542   2.332   7.861  0.1376  0.3625 -0.6516
   18MOL   C397 9271   1.649   2.420   7.878 -0.7421 -0.1620 -0.5705
   18MOL   C398 9272   1.636   2.552   7.932 -0.6955  0.1328 -0.5608
   18MOL   C399 9273   1.508   2.591   7.980 -0.4857 -0.0243 -0.2798
   18MOL   C400 9274   1.398   2.502   7.968 -0.3656  1.2644 -0.8003
   18MOL   C401 9275   1.517   2.204   7.805  0.0923 -0.5876 -0.3037
   18MOL   C402 9276   1.379   2.174   7.822  0.6733 -0.2096  0.2709
   18MOL   C403 9277   1.331   2.057   7.762  0.3946  0.3103  0.1556
   18MOL   C404 9278   1.419   1.965   7.696  0.5753  0.3932 -0.0396
   18MOL   C405 9279   1.555   1.998   7.687  0.0055  0.2833 -0.6692
   18MOL   C406 9280   1.603   2.112   7.746 -0.0060  0.7936  0.5815
   18MOL   H407 9281   1.093   2.090   7.934  0.4587 -0.9526  1.1348
   18MOL   H408 9282   1.000   2.207   8.023 -0.4502 -1.5976 -1.4060
   18MOL   H409 9283   1.167   2.372   7.997 -1.5827 -0.7676  0.3094
   18MOL   H410 9284   1.748   2.385   7.852 -0.1609  2.7626 -2.5293
   18MOL   H411 9285   1.720   2.619   7.943  0.7414 -1.7535  0.4048
   18MOL   H412 9286   1.504   2.686   8.031 -0.9249 -0.5884  0.7602
   18MOL   H413 9287   1.304   2.541   8.006 -0.6817 -1.0914  0.9363
   18MOL   H414 9288   1.232   2.021   7.785  1.4296 -0.6963  3.3777
   18MOL   H415 9289   1.387   1.883   7.633  0.9022  0.6219 -0.5119
   18MOL   H416 9290   1.622   1.931   7.635 -0.1438 -0.6365  0.3023
   18MOL   H417 9291   1.709   2.122   7.728  0.6355 -2.1855  2.3535
   18MOL   C418 9292   1.103   2.337   7.798  0.0086  0.1267  0.5853
   18MOL   C419 9293   0.968   2.419   7.808 -0.2439 -1.0233  0.1272
   18MOL   N420 9294   0.983   2.543   7.889 -0.2323  0.0930 -0.2416
   18MOL   C421 9295   0.902   2.574   8.004  0.3643 -0.2081  0.7828
   18MOL   C422 9296   0.968   2.677   8.072 -0.0347  0.3830 -0.4452
   18MOL   C423 9297   0.920   2.721   8.197  0.2413  0.4946 -0.8137
   18MOL   C424 9298   0.813   2.654   0.033 -0.3012  0.3105  0.3243
   18MOL   C425 9299   0.745   2.555   8.187 -0.4160 -0.7530 -0.2861
   18MOL   C426 9300   0.789   2.511   8.060  0.0385 -1.1502  0.5819
   18MOL   C427 9301   1.079   2.722   7.995  0.0298 -0.6847  0.1406
   18MOL   C428 9302   1.086   2.635   7.887 -0.0079 -0.4111  0.7556
   18MOL   C429 9303   1.181   2.650   7.788 -0.2756 -0.1269 -0.0440
   18MOL   C430 9304   1.276   2.752   7.797  0.1936 -0.2798  0.4864
   18MOL   C431 9305   1.277   2.840   7.911  0.2739 -0.4231  1.0022
   18MOL   C432 9306   1.178   2.820   8.011  0.1703  0.2206  0.3004
   18MOL   H433 9307   1.176   2.378   7.728 -1.4741 -0.3821 -1.3004
   18MOL   H434 9308   1.081   2.239   7.756  0.3633 -0.5000  1.8331
   18MOL   H435 9309   0.904   2.353   7.866  0.1487 -1.6852 -0.1833
   18MOL   H436 9310   0.960   2.800   0.032  0.8358  1.2028 -2.0810
   18MOL   H437 9311   0.771   2.682   0.129 -0.8074 -0.4762  0.3389
   18MOL   H438 9312   0.652   2.519   0.002 -1.2944 -0.4664 -1.9143
   18MOL   H439 9313   0.736   2.431   8.011 -0.4246 -0.0773 -0.6820
   18MOL   H440 9314   1.171   2.597   7.694  0.3301  0.9829 -0.7453
   18MOL   H441 9315   1.334   2.757   7.707  0.9743  0.9675  1.0437
   18MOL   H442 9316   1.344   2.923   7.927  0.0208 -0.1430  0.6210
   18MOL   H443 9317   1.176   2.886   8.096 -1.1950 -2.0812  2.1229
   18MOL   C444 9318   0.895   2.446   7.673  0.6264 -0.7378  0.1846
   18MOL   C445 9319   0.867   2.316   7.595 -0.1731 -0.5972 -0.0596
   18MOL   N446 9320   0.805   2.212   7.677  0.5338  0.6033 -0.2364
   18MOL   C447 9321   0.852   2.080   7.697  0.0062  0.6239 -0.4595
   18MOL   C448 9322   0.764   2.019   7.788 -0.0061  0.2919  0.0043
   18MOL   C449 9323   0.786   1.886   7.824  0.7465 -0.0872  0.6696
   18MOL   C450 9324   0.897   1.809   7.780  0.7530 -0.1154 -0.8391
   18MOL   C451 9325   0.991   1.879   7.699 -0.3966  0.2207 -0.1196
   18MOL   C452 9326   0.972   2.009   7.650  0.4971 -0.8212 -0.2800
   18MOL   C453 9327   0.663   2.114   7.831  0.3511  0.2886  0.5521
   18MOL   C454 9328   0.691   2.228   7.757  0.8495 -0.0441 -0.2065
   18MOL   C455 9329   0.604   2.342   7.768 -0.0493  0.0714 -0.8459
   18MOL   C456 9330   0.484   2.327   7.843  0.1556 -1.3422  0.4074
   18MOL   C457 9331   0.453   2.207   7.908  0.3051  1.0307 -0.6429
   18MOL   C458 9332   0.548   2.103   7.913 -0.5284  0.5185 -0.0719
   18MOL   H459 9333   0.811   2.512   7.695  0.1620 -0.6377 -1.8033
   18MOL   H460 9334   0.960   2.504   7.608  1.1617 -2.9192 -1.2963
   18MOL   H461 9335   0.967   2.272   7.585  1.4200  3.2681 -2.0418
   18MOL   H462 9336   0.715   1.836   7.888 -0.5777 -1.8537 -2.1109
   18MOL   H463 9337   0.917   1.707   7.808  0.4335  0.6181  2.1794
   18MOL   H464 9338   1.073   1.821   7.660  0.4795  2.0731 -1.1441
   18MOL   H465 9339   1.046   2.050   7.583  1.7931 -0.4350  1.3800
   18MOL   H466 9340   0.617   2.442   7.730  1.9866  0.3376  0.5108
   18MOL   H467 9341   0.410   2.406   7.845 -0.0700 -1.5160 -0.8557
   18MOL   H468 9342   0.361   2.195   7.964  1.3767  2.0889  1.4117
   18MOL   H469 9343   0.526   2.010   7.964 -0.2446  1.1769  1.2734
   18MOL   C470 9344   0.815   2.319   7.447 -0.4918  0.8881 -0.0409
   18MOL   C471 9345   0.909   2.403   7.350 -0.0523  0.5358  0.1660
   18MOL   N472 9346   1.055   2.378   7.367  0.7036  0.1572 -0.7109
   18MOL   C473 9347   1.154   2.476   7.391  0.0904  0.1962  0.2604
   18MOL   C474 9348   1.276   2.412   7.420 -0.2992 -0.2917 -0.8147
   18MOL   C475 9349   1.381   2.492   7.462  0.0213  0.0238 -0.1246
   18MOL   C476 9350   1.379   2.634   7.456 -0.6318  0.1159 -0.0046
   18MOL   C477 9351   1.256   2.697   7.439  0.5558 -0.1632  0.1169
   18MOL   C478 9352   1.144   2.614   7.408  0.7559  0.1450 -0.3500
   18MOL   C479 9353   1.261   2.269   7.400  0.4175 -0.3051 -0.5273
   18MOL   C480 9354   1.125   2.253   7.360 -0.6689  0.5998 -0.6023
   18MOL   C481 9355   1.079   2.121   7.326 -0.2357 -0.1720  0.0777
   18MOL   C482 9356   1.162   2.008   7.327 -0.1149  0.2967 -0.5565
   18MOL   C483 9357   1.296   2.026   7.374  0.0161  0.5559 -0.0856
   18MOL   C484 9358   1.342   2.151   7.409 -0.1292 -0.6180 -0.8702
   18MOL   H485 9359   0.817   2.211   7.429  0.9031  0.2282  3.6529
   18MOL   H486 9360   0.713   2.358   7.445  0.3419  3.0956  0.0653
   18MOL   H487 9361   0.883   2.503   7.385  0.3683  1.0891 -1.0708
   18MOL   H488 9362   1.472   2.445   7.495  0.6546  0.6557 -0.9671
   18MOL   H489 9363   1.460   2.696   7.489  0.8520 -2.6195  1.7383
   18MOL   H490 9364   1.250   2.804   7.453 -1.9619 -0.1251 -1.0515
   18MOL   H491 9365   1.046   2.661   7.410 -0.6346 -2.5964  3.8095
   18MOL   H492 9366   0.980   2.098   7.290 -0.2039  0.2390 -0.2723
   18MOL   H493 9367   1.122   1.916   7.288  0.0082  0.2323 -0.5329
   18MOL   H494 9368   1.362   1.941   7.377 -0.4814  0.1463 -0.4282
   18MOL   H495 9369   1.439   2.173   7.451 -1.0113 -0.6326  1.2373
   18MOL   C496 9370   0.868   2.374   7.208 -0.2250  0.2647 -0.0503
   18MOL   C497 9371   0.733   2.431   7.164 -0.4085 -0.0066 -0.9836
   18MOL   N498 9372   0.678   2.374   7.047  0.4210  0.2668  0.3901
   18MOL   C499 9373   0.738   2.378   6.918 -0.2588  0.0005  0.8048
   18MOL   C500 9374   0.653   2.306   6.832  0.1511  0.2969  0.1950
   18MOL   C501 9375   0.695   2.287   6.698  0.5740 -0.0681  0.5328
   18MOL   C502 9376   0.810   2.353   6.653 -0.1785 -0.2078 -0.3304
   18MOL   C503 9377   0.885   2.436   6.735  0.0770  0.5477 -0.8197
   18MOL   C504 9378   0.856   2.443   6.875 -0.7921 -0.0646  0.4211
   18MOL   C505 9379   0.548   2.252   6.906  0.3997 -0.7825 -0.1425
   18MOL   C506 9380   0.568   2.287   7.041  0.8388 -0.6750  0.2636
   18MOL   C507 9381   0.479   2.239   7.136  0.5641 -0.5090 -0.2030
   18MOL   C508 9382   0.367   2.165   7.099 -0.1551 -0.7630  0.7546
   18MOL   C509 9383   0.354   2.119   6.969  0.0865  0.1981  0.3352
   18MOL   C510 9384   0.435   2.173   6.873  0.1005  0.5758  0.0218
   18MOL   H511 9385   0.941   2.402   7.131 -0.8127  0.2702 -0.6118
   18MOL   H512 9386   0.866   2.265   7.204  3.2559  0.1017  0.6846
   18MOL   H513 9387   0.748   2.538   7.145 -0.7375  0.0012 -1.1986
   18MOL   H514 9388   0.641   2.224   6.629  0.4696  0.2457  0.3276
   18MOL   H515 9389   0.842   2.342   6.551  2.9376  0.8367  0.4530
   18MOL   H516 9390   0.971   2.486   6.694  1.4876 -2.2694 -1.4581
   18MOL   H517 9391   0.914   2.506   6.940  3.0430 -1.9810 -1.0160
   18MOL   H518 9392   0.495   2.268   7.239  1.2751  0.2354 -0.5226
   18MOL   H519 9393   0.293   2.138   7.173 -2.9866  2.6649 -0.6993
   18MOL   H520 9394   0.273   2.050   6.949 -0.6721  0.8049  1.2287
   18MOL   H521 9395   0.415   2.148   6.770 -2.2286 -0.7721  0.7740
   18MOL   H522 9396   0.670   2.421   7.253  0.3862  1.3796 -0.2254
   19MOL     C1 9397   3.394   0.891   3.488 -0.4772 -0.0711  0.3379
   19MOL     C2 9398   3.334   0.918   3.634 -0.3089  0.4564  0.4108
   19MOL     N3 9399   3.345   1.054   3.680  0.5428  0.7251 -0.0812
   19MOL     C4 9400   3.430   1.099   3.784  0.3175  0.3151 -0.4702
   19MOL     C5 9401   3.416   1.239   3.788  0.6074  0.4733  0.6691
   19MOL     C6 9402   3.491   1.312   3.885  0.1357 -0.1552 -0.3163
   19MOL     C7 9403   3.571   1.248   3.979  0.0527 -0.4931 -1.3326
   19MOL     C8 9404   3.597   1.108   3.959  0.7296 -0.2656  0.0604
   19MOL     C9 9405   3.524   1.032   3.865 -0.1810  0.3734  0.2373
   19MOL    C10 9406   3.318   1.276   3.695  0.1891  0.4130  0.4323
   19MOL    C11 9407   3.271   1.162   3.630  0.5515 -0.0764 -0.2572
   19MOL    C12 9408   3.182   1.171   3.521 -0.3503 -0.0255  0.5585
   19MOL    C13 9409   3.129   1.297   3.476 -0.3793 -0.3850 -0.3799
   19MOL    C14 9410   3.170   1.412   3.547 -0.1438  0.1406 -0.8042
   19MOL    C15 9411   3.263   1.399   3.654  0.4881  0.5571  0.1988
   19MOL    H16 9412   3.357   0.967   3.420 -0.1589 -1.6035 -1.5913
   19MOL    H17 9413   3.371   0.790   3.452  0.0720 -0.1338  0.1537
   19MOL    H18 9414   3.406   0.866   3.696 -0.2521  0.8938  0.7095
   19MOL    H19 9415   3.493   1.420   3.885  0.3147 -0.1431  0.8734
   19MOL    H20 9416   3.623   1.303   4.056  1.8953 -0.4852 -2.5627
   19MOL    H21 9417   3.662   1.054   4.026  1.2914  0.3632  0.0352
   19MOL    H22 9418   3.533   0.925   3.872  3.4821  0.6498  0.8895
   19MOL    H23 9419   3.162   1.081   3.466  1.3662 -2.0900  3.1787
   19MOL    H24 9420   3.064   1.309   3.391 -0.6365 -0.3210 -0.1751
   19MOL    H25 9421   3.124   1.506   3.520  1.1221  0.5687 -1.5336
   19MOL    H26 9422   3.284   1.490   3.708 -1.5178  0.2359  1.5694
   19MOL    H27 9423   3.501   0.912   3.484 -0.1077 -1.5354  1.9658
   19MOL    C28 9424   3.193   0.855   3.647 -0.0564  0.2044 -0.0014
   19MOL    C29 9425   3.192   0.704   3.644  0.5581 -0.2085 -0.0735
   19MOL    N30 9426   3.256   0.653   3.764 -0.2631  0.2551 -0.5554
   19MOL    C31 9427   3.377   0.582   3.772  0.0910 -0.0850 -0.1334
   19MOL    C32 9428   3.402   0.543   3.903 -0.7898  0.1348  0.0595
   19MOL    C33 9429   3.525   0.473   3.935  0.1093 -0.0972 -0.1751
   19MOL    C34 9430   3.620   0.458   3.833  0.8513  0.6578  0.3181
   19MOL    C35 9431   3.599   0.499   3.706  0.3506  0.5200  0.6205
   19MOL    C36 9432   3.476   0.557   3.674  0.6587 -0.0697  0.5614
   19MOL    C37 9433   3.288   0.588   3.980  0.5940  0.1189  0.2989
   19MOL    C38 9434   3.204   0.658   3.892 -0.5166  0.1601 -0.0544
   19MOL    C39 9435   3.080   0.714   3.936  0.1967 -0.1629  0.7886
   19MOL    C40 9436   3.039   0.697   4.072 -0.2142  1.2177  0.3995
   19MOL    C41 9437   3.123   0.629   4.161 -0.3221  0.1050 -0.8254
   19MOL    C42 9438   3.248   0.580   4.116  0.1451  0.0339 -0.0099
   19MOL    H43 9439   3.144   0.893   3.736  1.1898  3.9976 -0.8455
   19MOL    H44 9440   3.124   0.883   3.567  0.0006 -0.3711 -0.2596
   19MOL    H45 9441   3.256   0.660   3.568  2.9107 -0.2025  1.8407
   19MOL    H46 9442   3.550   0.431   4.031 -1.6004  0.9643  0.7634
   19MOL    H47 9443   3.707   0.399   3.857  0.3834  0.0945  0.6398
   19MOL    H48 9444   3.675   0.495   3.630  2.1429  0.0642  2.3771
   19MOL    H49 9445   3.464   0.600   3.575  0.3610  0.0070  0.6284
   19MOL    H50 9446   3.019   0.770   3.867 -0.7759 -1.8357  0.2944
   19MOL    H51 9447   2.949   0.744   4.107  0.2531  0.9899  1.9549
   19MOL    H52 9448   3.099   0.601   4.262  0.3631 -3.7611 -1.6513
   19MOL    H53 9449   3.307   0.526   4.188 -0.5391 -0.3568  0.2638
   19MOL    C54 9450   3.051   0.638   3.608 -0.1908  0.6755 -0.4064
   19MOL    C55 9451   2.970   0.672   3.481 -0.3921  0.2017  0.0639
   19MOL    N56 9452   3.057   0.714   3.371  0.3605 -0.6083 -0.1937
   19MOL    C57 9453   3.036   0.834   3.300  0.2250  0.2211 -0.1407
   19MOL    C58 9454   3.146   0.849   3.214 -0.2916 -0.6247  0.2203
   19MOL    C59 9455   3.160   0.965   3.139  0.3289 -0.3747  0.1278
   19MOL    C60 9456   3.073   1.075   3.153  0.1443  0.2705  0.3362
   19MOL    C61 9457   2.962   1.061   3.240  0.2691 -0.5436  0.2578
   19MOL    C62 9458   2.950   0.942   3.315 -0.0191  0.3899  0.2247
   19MOL    C63 9459   3.227   0.735   3.222 -1.2915  0.0680 -0.0223
   19MOL    C64 9460   3.166   0.649   3.313 -0.6007  0.1957 -0.5599
   19MOL    C65 9461   3.221   0.524   3.349  0.8831  0.0448  0.9016
   19MOL    C66 9462   3.332   0.471   3.278 -0.1007  0.3884  0.0096
   19MOL    C67 9463   3.405   0.556   3.194 -0.2570  0.6054 -0.1844
   19MOL    C68 9464   3.350   0.684   3.165 -0.4857  0.4194  0.1816
   19MOL    H69 9465   3.071   0.532   3.600 -1.6994  0.3881 -0.3377
   19MOL    H70 9466   2.988   0.639   3.697  0.1732 -1.7119 -0.1032
   19MOL    H71 9467   2.913   0.763   3.498 -0.9622 -0.1146 -0.1168
   19MOL    H72 9468   3.237   0.965   3.063 -0.2000  0.5553 -0.4199
   19MOL    H73 9469   3.077   1.168   3.097 -0.4026  0.3145  0.3738
   19MOL    H74 9470   2.893   1.139   3.265  0.5264  0.6103 -2.5000
   19MOL    H75 9471   2.869   0.946   3.387 -0.3793  0.1588 -0.1624
   19MOL    H76 9472   3.190   0.456   3.427  0.3014  0.2339  0.8313
   19MOL    H77 9473   3.372   0.374   3.302 -0.4739  0.4730  0.9860
   19MOL    H78 9474   3.499   0.541   3.144  0.3790 -1.7106  1.6064
   19MOL    H79 9475   3.401   0.741   3.089 -1.2510 -1.0956 -1.5020
   19MOL    C80 9476   2.873   0.560   3.433 -1.0410 -0.7777  0.0004
   19MOL    C81 9477   2.751   0.540   3.531 -0.4554  0.6744  0.2781
   19MOL    N82 9478   2.679   0.665   3.540  0.6975 -0.1893  0.1265
   19MOL    C83 9479   2.679   0.749   3.653  0.2356 -0.3830 -0.1200
   19MOL    C84 9480   2.597   0.863   3.630 -0.4904  0.2777  0.2059
   19MOL    C85 9481   2.605   0.967   3.723  0.3780 -0.4132 -0.7252
   19MOL    C86 9482   2.685   0.954   3.841 -0.6205  0.4811 -0.4599
   19MOL    C87 9483   2.753   0.836   3.880  0.2229  0.0391  0.4948
   19MOL    C88 9484   2.753   0.736   3.780 -0.4570  0.2030  0.2038
   19MOL    C89 9485   2.548   0.846   3.501  0.3819  0.0775  0.5515
   19MOL    C90 9486   2.596   0.723   3.444  0.2702 -0.1727  0.3221
   19MOL    C91 9487   2.554   0.680   3.315 -0.1327  0.7079  0.6127
   19MOL    C92 9488   2.474   0.766   3.234 -0.5427 -0.9572 -0.6325
   19MOL    C93 9489   2.429   0.882   3.288 -0.0177  0.6168 -0.3633
   19MOL    C94 9490   2.463   0.924   3.417  0.4250 -0.6676  0.6588
   19MOL    H95 9491   2.831   0.583   3.335  0.6471 -2.3312 -1.1104
   19MOL    H96 9492   2.921   0.465   3.412 -1.1876 -1.1117  1.1315
   19MOL    H97 9493   2.797   0.526   3.629 -0.4452 -1.4814 -0.0039
   19MOL    H98 9494   2.565   1.062   3.692 -1.1082 -0.9414 -0.4921
   19MOL    H99 9495   2.686   1.046   3.898 -2.1745  0.4534 -0.3833
   19MOL   H100 9496   2.805   0.827   3.974  0.8033  0.1290  0.1803
   19MOL   H101 9497   2.798   0.640   3.801  1.3306  1.5237  2.7199
   19MOL   H102 9498   2.589   0.587   3.273  1.2236  0.5025  2.1511
   19MOL   H103 9499   2.434   0.738   3.138  0.3795 -1.2334 -0.9451
   19MOL   H104 9500   2.374   0.941   3.216 -1.4047 -0.8079 -0.5087
   19MOL   H105 9501   2.425   1.016   3.460  3.7740  0.9392  0.3834
   19MOL   C106 9502   2.654   0.418   3.513 -0.1346 -0.4685 -0.3433
   19MOL   C107 9503   2.716   0.275   3.495 -0.0976  0.0606  0.2916
   19MOL   N108 9504   2.848   0.250   3.555 -0.3229  0.0224  0.0753
   19MOL   C109 9505   2.966   0.188   3.493  0.3348  0.3939 -0.0814
   19MOL   C110 9506   3.075   0.196   3.581 -0.5190  0.2096 -0.2978
   19MOL   C111 9507   3.196   0.136   3.544 -0.4829 -0.2919 -0.3531
   19MOL   C112 9508   3.206   0.074   3.417 -0.0234 -0.3111 -0.7274
   19MOL   C113 9509   3.100   0.064   3.330 -0.4760 -0.0730  0.2624
   19MOL   C114 9510   2.977   0.123   3.368 -0.5278  0.2113  0.2106
   19MOL   C115 9511   3.031   0.263   3.695 -0.9593 -0.4587 -0.4785
   19MOL   C116 9512   2.891   0.285   3.684 -0.1993  0.2633 -0.2920
   19MOL   C117 9513   2.816   0.325   3.802 -0.4537 -0.5166  0.8793
   19MOL   C118 9514   2.883   0.339   3.922 -0.0517  0.5823 -0.0527
   19MOL   C119 9515   3.024   0.340   3.928  0.5503 -0.5361  0.1878
   19MOL   C120 9516   3.094   0.310   3.810 -0.1005 -0.5117 -0.3511
   19MOL   H121 9517   2.594   0.426   3.604  0.5089 -0.4335  0.0806
   19MOL   H122 9518   2.569   0.432   3.447  0.1023  0.9094 -0.3572
   19MOL   H123 9519   2.730   0.266   3.387 -0.2170 -0.0458  0.2842
   19MOL   H124 9520   3.272   0.143   3.620 -1.3808 -1.5142  0.6964
   19MOL   H125 9521   3.293   0.020   3.384  1.0044 -0.8275  2.5865
   19MOL   H126 9522   3.107   0.020   3.231 -0.4292 -1.8813  1.0473
   19MOL   H127 9523   2.888   0.111   3.308 -0.4689  2.6202 -0.4119
   19MOL   H128 9524   2.709   0.334   3.786 -0.2111  1.3386  0.2939
   19MOL   H129 9525   2.821   0.348   4.010 -0.8978 -0.9284 -0.4757
   19MOL   H130 9526   3.081   0.367   4.015  3.4507  0.2218 -1.8901
   19MOL   H131 9527   3.201   0.302   3.823 -0.1567  0.5303  0.8478
   19MOL   C132 9528   2.624   0.156   3.527  0.0179  0.1447 -0.2314
   19MOL   C133 9529   2.485   0.146   3.469 -0.0842 -0.5335 -0.5665
   19MOL   N134 9530   2.485   0.166   3.325  0.0486 -0.5998  0.1225
   19MOL   C135 9531   2.417   0.275   3.259 -0.4338 -0.0268  0.5530
   19MOL   C136 9532   2.441   0.266   3.122  0.0375  0.0399  0.0556
   19MOL   C137 9533   2.378   0.361   3.039 -0.1379  0.0320  0.0072
   19MOL   C138 9534   2.286   0.453   3.089  0.6128 -0.0041  0.0428
   19MOL   C139 9535   2.262   0.461   3.231  0.0376 -0.2395 -0.2457
   19MOL   C140 9536   2.333   0.372   3.312 -0.0507  0.8467 -0.2143
   19MOL   C141 9537   2.530   0.161   3.101 -0.5601  0.5485 -0.6074
   19MOL   C142 9538   2.549   0.090   3.222  0.1357  0.1226 -0.6161
   19MOL   C143 9539   2.622   8.203   3.231 -0.6331  0.0352 -0.2797
   19MOL   C144 9540   2.670   8.141   3.118  0.0369 -0.3258 -0.2860
   19MOL   C145 9541   2.664   8.210   2.997  0.6770 -0.6533  0.5196
   19MOL   C146 9542   2.591   0.105   2.987 -0.0490 -0.0739 -0.2136
   19MOL   H147 9543   2.676   0.062   3.510  0.8017  0.4154  0.6178
   19MOL   H148 9544   2.612   0.164   3.635 -0.5632  1.6761 -0.3962
   19MOL   H149 9545   2.425   0.229   3.507  1.4810 -0.2270  1.2485
   19MOL   H150 9546   2.386   0.354   2.931 -4.0353 -2.5876 -0.2259
   19MOL   H151 9547   2.238   0.523   3.023  3.4311 -0.4015 -2.5122
   19MOL   H152 9548   2.186   0.526   3.273 -1.9110 -2.9436  0.5209
   19MOL   H153 9549   2.320   0.377   3.419 -1.0592  1.8534 -0.3707
   19MOL   H154 9550   2.636   8.156   3.328 -0.3375 -1.1541 -0.8850
   19MOL   H155 9551   2.724   8.048   3.126  2.2121  0.9173  0.0880
   19MOL   H156 9552   2.711   8.169   2.909  1.0885  0.9780 -0.0330
   19MOL   H157 9553   2.579   0.164   2.897 -0.1740  1.0872  0.5588
   19MOL   C158 9554   2.409   0.021   3.498 -0.0652  0.2126 -0.1163
   19MOL   C159 9555   2.376   8.215   3.652 -0.5802 -0.1900  0.0193
   19MOL   N160 9556   2.320   0.106   3.722 -0.0159  0.0126  0.1532
   19MOL   C161 9557   2.360   0.153   3.848 -0.4822 -0.7389 -0.0179
   19MOL   C162 9558   2.284   0.269   3.880 -0.6177  0.0276  0.1500
   19MOL   C163 9559   2.323   0.339   3.995  0.7366 -0.2829 -0.4163
   19MOL   C164 9560   2.420   0.283   4.081 -0.1419  0.6922 -0.4036
   19MOL   C165 9561   2.481   0.158   4.054 -0.7559  0.6410  0.1128
   19MOL   C166 9562   2.452   0.090   3.935  0.1673 -0.7965 -0.1283
   19MOL   C167 9563   2.189   0.284   3.777  0.0390 -0.1394 -0.2008
   19MOL   C168 9564   2.215   0.191   3.682  0.2348  0.2688  0.3508
   19MOL   C169 9565   2.130   0.187   3.570 -0.2874 -0.5013 -0.6725
   19MOL   C170 9566   2.027   0.281   3.547 -0.0627 -0.0875  0.3220
   19MOL   C171 9567   2.000   0.372   3.649  0.5709 -0.5915  0.1755
   19MOL   C172 9568   2.084   0.375   3.760 -0.1963 -0.4608  0.6728
   19MOL   H173 9569   2.311   0.031   3.451 -1.1043  1.4475  2.2442
   19MOL   H174 9570   2.452   8.164   3.443 -0.3553  0.6636 -1.0490
   19MOL   H175 9571   2.467   8.192   3.708 -1.2608  0.3596  1.3591
   19MOL   H176 9572   2.258   0.421   4.023  1.6494 -0.2515  1.7051
   19MOL   H177 9573   2.428   0.337   4.174  0.7818  1.1489 -0.7437
   19MOL   H178 9574   2.538   0.109   4.132  1.0471 -0.4851 -1.8666
   19MOL   H179 9575   2.501   8.223   3.917  1.6560  0.3231 -2.2080
   19MOL   H180 9576   2.131   0.100   3.506  0.7312 -1.5310  0.6975
   19MOL   H181 9577   1.959   0.263   3.466  3.0457  0.1743 -2.4269
   19MOL   H182 9578   1.905   0.423   3.637  0.5674 -0.4485  0.7826
   19MOL   H183 9579   2.076   0.440   3.846  0.4710 -0.4634  0.7374
   19MOL   C184 9580   2.271   8.100   3.658  0.7547 -0.1039  0.3168
   19MOL   C185 9581   2.338   7.961   3.642 -0.3787  0.5620  0.0435
   19MOL   N186 9582   2.433   7.927   3.749 -0.2497  0.2304 -0.2265
   19MOL   C187 9583   2.571   7.898   3.736 -0.3742  0.6763 -0.0451
   19MOL   C188 9584   2.636   7.886   3.860 -0.3010 -0.5721  0.0968
   19MOL   C189 9585   2.778   7.864   3.875 -0.5717 -0.6531  0.0638
   19MOL   C190 9586   2.856   7.860   3.752  0.1299 -0.8407  0.7123
   19MOL   C191 9587   2.792   7.867   3.628  0.6306 -0.6460  0.1264
   19MOL   C192 9588   2.653   7.884   3.619 -0.0972  0.0044 -0.2060
   19MOL   C193 9589   2.532   7.897   3.953 -0.3016 -0.1706  0.3150
   19MOL   C194 9590   2.408   7.923   3.887  0.1624  0.2513  0.7949
   19MOL   C195 9591   2.287   7.926   3.962 -0.0523  0.2982 -0.3526
   19MOL   C196 9592   2.284   7.916   4.096  0.0022  0.0704  0.0142
   19MOL   C197 9593   2.403   7.902   4.164  0.5260 -0.2501 -0.0943
   19MOL   C198 9594   2.522   7.895   4.093  0.2459  0.0083 -0.0054
   19MOL   H199 9595   2.225   8.086   3.756  0.9376 -0.3119  0.3728
   19MOL   H200 9596   2.189   8.121   3.590 -0.6657 -0.5352  1.8527
   19MOL   H201 9597   2.402   7.970   3.554  0.2421  2.9203  0.6917
   19MOL   H202 9598   2.821   7.852   3.973 -0.8124 -0.2963  0.2138
   19MOL   H203 9599   2.963   7.848   3.747  0.0161 -2.1097  1.3238
   19MOL   H204 9600   2.856   7.861   3.541 -1.6982 -0.5013 -1.6280
   19MOL   H205 9601   2.623   7.889   3.515  1.2836  0.2077 -0.6146
   19MOL   H206 9602   2.194   7.938   3.908  1.0576  2.3698 -1.8860
   19MOL   H207 9603   2.190   7.929   4.148  0.2698  2.3056 -0.0449
   19MOL   H208 9604   2.389   7.894   4.270 -1.0031  2.7444 -0.0484
   19MOL   H209 9605   2.613   7.878   4.149 -1.6644 -2.1932  2.5735
   19MOL   C210 9606   2.248   7.840   3.609  0.6840 -0.3779 -0.1393
   19MOL   C211 9607   2.159   7.850   3.486  0.5521  0.9723  0.0076
   19MOL   N212 9608   2.236   7.888   3.359  0.2815 -0.0031  0.1364
   19MOL   C213 9609   2.214   8.003   3.280  0.6097 -0.0746 -0.6458
   19MOL   C214 9610   2.310   8.011   3.180 -0.5033 -0.1149 -0.5270
   19MOL   C215 9611   2.306   8.124   3.090 -0.6914  0.6271 -0.3580
   19MOL   C216 9612   2.219   0.007   3.118 -0.0665 -0.0018 -0.2585
   19MOL   C217 9613   2.121   8.223   3.219 -0.0546 -0.0642 -0.3260
   19MOL   C218 9614   2.108   8.103   3.295 -0.8540  0.3377 -0.6894
   19MOL   C219 9615   2.399   7.898   3.190 -0.4940 -0.8101  0.2116
   19MOL   C220 9616   2.342   7.814   3.292 -0.1310 -0.2647 -0.6972
   19MOL   C221 9617   2.390   7.691   3.313 -0.0047  0.1862 -0.0774
   19MOL   C222 9618   2.480   7.634   3.230  0.5958 -0.1097  0.3848
   19MOL   C223 9619   2.548   7.711   3.134 -0.2006 -0.5318 -0.6012
   19MOL   C224 9620   2.504   7.841   3.109 -0.6832 -0.5397  0.1694
   19MOL   H225 9621   2.304   7.747   3.605 -0.6764 -1.1736 -1.5711
   19MOL   H226 9622   2.186   7.828   3.698  1.2712 -1.8750  0.0851
   19MOL   H227 9623   2.085   7.927   3.508  1.9957  2.2332  0.5272
   19MOL   H228 9624   2.385   8.140   3.019 -0.6568 -0.3581 -0.5489
   19MOL   H229 9625   2.222   0.099   3.063  0.6959 -0.7282 -1.4609
   19MOL   H230 9626   2.049   0.074   3.236 -0.6917 -0.5497 -0.8022
   19MOL   H231 9627   2.028   8.084   3.365 -0.0379 -1.2831 -0.1599
   19MOL   H232 9628   2.346   7.620   3.381  0.3363 -1.0051 -1.0734
   19MOL   H233 9629   2.519   7.534   3.243  2.3216  0.8132  2.6637
   19MOL   H234 9630   2.623   7.656   3.078 -2.1285 -0.7357 -3.0372
   19MOL   H235 9631   2.542   7.891   3.021 -1.3106  2.5255  1.5633
   19MOL   C236 9632   2.067   7.726   3.475  0.1097 -0.9693 -0.5398
   19MOL   C237 9633   1.969   7.738   3.351  0.1662 -0.0007  0.1397
   19MOL   N238 9634   2.029   7.689   3.227 -0.0662  0.2140 -0.6444
   19MOL   C239 9635   2.046   7.754   3.106  0.2991 -0.4977 -0.0903
   19MOL   C240 9636   2.138   7.679   3.025 -0.0246 -0.4951  0.1521
   19MOL   C241 9637   2.189   7.740   2.911  0.1420  0.4042 -0.0991
   19MOL   C242 9638   2.143   7.858   2.861  0.1277  0.2609 -0.7551
   19MOL   C243 9639   2.046   7.926   2.932  1.0773 -0.2438 -0.1342
   19MOL   C244 9640   1.988   7.872   3.047 -0.1864 -0.2028 -0.2316
   19MOL   C245 9641   2.156   7.553   3.089 -0.3153  0.1072  0.6517
   19MOL   C246 9642   2.093   7.561   3.221  0.5151 -0.2074  0.1964
   19MOL   C247 9643   2.091   7.450   3.301  0.1560  0.4044  0.2637
   19MOL   C248 9644   2.163   7.330   3.266  0.0796 -0.1406  0.6071
   19MOL   C249 9645   2.224   7.315   3.141  0.5083  0.4868  0.0282
   19MOL   C250 9646   2.219   7.431   3.052  0.4287 -1.3248  0.0822
   19MOL   H251 9647   2.126   7.636   3.484 -1.9171 -2.0399  2.8235
   19MOL   H252 9648   2.012   7.732   3.569  0.4860  1.1271 -0.4183
   19MOL   H253 9649   1.949   7.845   3.342  2.5780  0.5170  0.7814
   19MOL   H254 9650   2.271   7.699   2.854  0.9347  2.5426 -0.5554
   19MOL   H255 9651   2.189   7.905   2.775  1.8076 -0.2736 -0.1625
   19MOL   H256 9652   2.011   8.025   2.906  1.8058  0.5083  1.6809
   19MOL   H257 9653   1.918   7.941   3.091 -1.1265 -1.9605  1.0904
   19MOL   H258 9654   2.045   7.449   3.398  0.4992  1.6210  0.4440
   19MOL   H259 9655   2.171   7.242   3.329  1.6539  0.4992  1.3328
   19MOL   H260 9656   2.275   7.225   3.111 -1.2815  0.4266 -2.9547
   19MOL   H261 9657   2.275   7.429   2.960 -0.1894 -1.7845 -0.2868
   19MOL   C262 9658   1.829   7.675   3.373  0.3474 -0.9755  0.3629
   19MOL   C263 9659   1.736   7.773   3.456 -0.1011  1.1606 -0.0042
   19MOL   N264 9660   1.707   7.896   3.388 -0.2575 -0.1465  0.3020
   19MOL   C265 9661   1.735   8.026   3.438  0.1441 -0.0673 -0.1351
   19MOL   C266 9662   1.682   8.126   3.356 -0.4284  0.5423  0.4641
   19MOL   C267 9663   1.690   0.034   3.396 -0.3341 -0.0378 -0.4258
   19MOL   C268 9664   1.754   0.067   3.513  0.0252  0.2705  0.8459
   19MOL   C269 9665   1.805   8.195   3.596  0.2213  0.3753  0.8967
   19MOL   C270 9666   1.801   8.060   3.558  0.8469 -0.2812 -0.2451
   19MOL   C271 9667   1.623   8.058   3.242 -0.0960  0.5767  0.3790
   19MOL   C272 9668   1.640   7.915   3.267  0.4335 -0.4557 -0.6881
   19MOL   C273 9669   1.589   7.826   3.176 -0.5549  0.1525  0.1567
   19MOL   C274 9670   1.516   7.870   3.065 -0.2370  0.1590  0.4609
   19MOL   C275 9671   1.497   8.008   3.037  0.0372  0.0928  0.5366
   19MOL   C276 9672   1.554   8.101   3.128 -0.1219 -0.3226 -0.4801
   19MOL   H277 9673   1.786   7.674   3.273  2.9227 -0.0876 -0.7860
   19MOL   H278 9674   1.841   7.574   3.412  0.9981 -0.0219  2.6681
   19MOL   H279 9675   1.795   7.799   3.544  2.2407  0.8826 -1.4451
   19MOL   H280 9676   1.662   0.106   3.320  0.9550 -0.7544 -1.6190
   19MOL   H281 9677   1.742   0.169   3.545 -2.0642  1.4656 -3.3669
   19MOL   H282 9678   1.856   8.222   3.687  1.3809 -0.0080  0.3765
   19MOL   H283 9679   1.850   7.983   3.615  0.9710 -1.3246 -1.7069
   19MOL   H284 9680   1.589   7.720   3.201  2.5921  0.4705  1.7922
   19MOL   H285 9681   1.477   7.797   2.996  0.0755 -0.0689  0.5284
   19MOL   H286 9682   1.443   8.040   2.949  2.7480 -0.2041 -1.3029
   19MOL   H287 9683   1.542   8.208   3.114  1.2664 -0.1536 -0.4530
   19MOL   C288 9684   1.604   7.710   3.510 -0.1826  0.0608 -0.6721
   19MOL   C289 9685   1.613   7.584   3.605  0.1906  0.5500  0.4443
   19MOL   N290 9686   1.743   7.578   3.676  0.3642  0.3170  0.0812
   19MOL   C291 9687   1.837   7.475   3.674  0.2745  0.0068 -0.2389
   19MOL   C292 9688   1.944   7.504   3.766  0.1969  0.3477  0.3051
   19MOL   C293 9689   2.049   7.401   3.773 -0.1016  0.2517 -0.3296
   19MOL   C294 9690   2.043   7.280   3.700 -0.2057 -0.4785  0.0067
   19MOL   C295 9691   1.941   7.266   3.606 -0.2036  0.4275 -0.1315
   19MOL   C296 9692   1.833   7.360   3.592 -0.3346  0.6766 -0.0113
   19MOL   C297 9693   1.919   7.634   3.817  0.2716  0.0479  0.2789
   19MOL   C298 9694   1.794   7.683   3.757  0.1570  0.6069 -0.8639
   19MOL   C299 9695   1.747   7.811   3.789  0.1802  0.0762  0.3927
   19MOL   C300 9696   1.811   7.893   3.880 -0.9404  0.6008 -0.2608
   19MOL   C301 9697   1.939   7.845   3.930  0.2060 -0.0481  0.4894
   19MOL   C302 9698   1.989   7.721   3.905  0.5196  0.7502 -0.1817
   19MOL   H303 9699   1.548   7.793   3.554  0.0626  0.4926 -1.1650
   19MOL   H304 9700   1.540   7.691   3.423 -2.6544  0.3947  1.0175
   19MOL   H305 9701   1.599   7.500   3.537 -1.1214 -0.9916  2.5477
   19MOL   H306 9702   2.134   7.416   3.838  0.1451 -0.0124 -0.5875
   19MOL   H307 9703   2.125   7.210   3.699  1.4013  1.3220  1.8965
   19MOL   H308 9704   1.935   7.173   3.551 -0.8738  0.5986 -0.3525
   19MOL   H309 9705   1.757   7.345   3.518  0.1488  0.1146 -0.3972
   19MOL   H310 9706   1.657   7.846   3.741 -0.0891 -0.8297  0.2086
   19MOL   H311 9707   1.776   7.988   3.916 -2.4776  0.2549 -0.8248
   19MOL   H312 9708   1.990   7.908   4.001  0.2276  0.4282  0.0536
   19MOL   H313 9709   2.091   7.706   3.938  0.7551  0.4974 -1.0088
   19MOL   C314 9710   1.493   7.576   3.701  0.6311 -0.3476 -0.3078
   19MOL   C315 9711   1.357   7.577   3.634  0.4086 -0.2869 -0.3008
   19MOL   N316 9712   1.338   7.477   3.530  0.1956 -0.1703 -0.3053
   19MOL   C317 9713   1.304   7.505   3.399 -0.7317 -0.4057  0.1832
   19MOL   C318 9714   1.299   7.386   3.323 -0.9771  0.2728 -0.6905
   19MOL   C319 9715   1.282   7.388   3.181  0.3176  0.8185 -0.8938
   19MOL   C320 9716   1.263   7.502   3.109  0.3258 -0.5899 -0.2730
   19MOL   C321 9717   1.270   7.621   3.189 -0.0210  0.6525  0.0506
   19MOL   C322 9718   1.279   7.624   3.329  0.4006  0.3470 -0.3864
   19MOL   C323 9719   1.322   7.278   3.419 -0.5567  0.5210 -0.4447
   19MOL   C324 9720   1.347   7.335   3.545  0.3298  0.9098 -0.7698
   19MOL   C325 9721   1.374   7.249   3.654 -0.2255 -0.0773  0.5471
   19MOL   C326 9722   1.376   7.111   3.639  0.3254 -0.3000 -0.7653
   19MOL   C327 9723   1.347   7.047   3.516  0.3228 -0.2754 -0.0200
   19MOL   C328 9724   1.315   7.133   3.405 -0.2600  0.0062 -0.3161
   19MOL   H329 9725   1.500   7.482   3.755 -0.2264 -0.1664  0.1318
   19MOL   H330 9726   1.500   7.664   3.766 -0.7363  1.4304 -2.4904
   19MOL   H331 9727   1.352   7.673   3.582 -3.3079 -1.3106 -2.0267
   19MOL   H332 9728   1.284   7.292   3.132 -2.0281 -0.4158  1.2973
   19MOL   H333 9729   1.242   7.504   3.003 -3.4130  0.0502  0.4184
   19MOL   H334 9730   1.262   7.718   3.142  2.4162  0.4941 -0.8155
   19MOL   H335 9731   1.279   7.718   3.382 -1.5961  0.6719 -0.9475
   19MOL   H336 9732   1.402   7.289   3.750 -1.4304 -1.2054  1.3836
   19MOL   H337 9733   1.418   7.053   3.720 -0.1243  1.7113  0.9814
   19MOL   H338 9734   1.350   6.939   3.507  3.0695 -0.1669 -0.7822
   19MOL   H339 9735   1.283   7.105   3.306  0.1209  1.9660 -1.0145
   19MOL   C340 9736   1.232   7.583   3.736  0.3617  0.0107  0.2392
   19MOL   C341 9737   1.095   7.600   3.666 -0.4672  0.0258  0.3318
   19MOL   N342 9738   1.000   7.513   3.737 -0.5020 -1.0170  0.0648
   19MOL   C343 9739   0.958   7.385   3.687 -0.0416  0.0427 -0.4668
   19MOL   C344 9740   0.862   7.331   3.778  0.0603 -0.9050  0.3340
   19MOL   C345 9741   0.804   7.213   3.741 -0.0359  0.1025 -0.2400
   19MOL   C346 9742   0.833   7.140   3.626 -0.1922 -0.4533  1.3223
   19MOL   C347 9743   0.936   7.191   3.539  0.2355  0.2920 -0.2159
   19MOL   C348 9744   1.001   7.311   3.574 -0.4917 -0.0029 -0.1887
   19MOL   C349 9745   0.859   7.420   3.892 -0.6035  0.0705  0.1946
   19MOL   C350 9746   0.939   7.531   3.862  0.4455 -0.9367  0.2147
   19MOL   C351 9747   0.961   7.634   3.956 -1.0214 -0.5831  0.2744
   19MOL   C352 9748   0.883   7.634   4.071  0.0604 -0.2960 -0.3231
   19MOL   C353 9749   0.798   7.529   4.106 -0.5701 -0.1107 -0.0636
   19MOL   C354 9750   0.783   7.424   4.013  0.0789 -0.2193  0.1519
   19MOL   H355 9751   1.226   7.492   3.796 -1.1058 -0.2371 -0.2673
   19MOL   H356 9752   1.251   7.661   3.811  0.3232 -1.7344  2.1015
   19MOL   H357 9753   1.091   7.560   3.565  1.1011 -0.3137  0.3961
   19MOL   H358 9754   0.733   7.163   3.805 -0.9504  3.5491  1.5611
   19MOL   H359 9755   0.792   7.046   3.593 -1.7715  0.5912  0.2264
   19MOL   H360 9756   0.954   7.139   3.446  3.0280 -2.4117  1.7472
   19MOL   H361 9757   1.066   7.346   3.495  1.3379  0.9485  1.6824
   19MOL   H362 9758   1.031   7.715   3.939 -0.9536 -1.0046 -1.5814
   19MOL   H363 9759   0.896   7.713   4.143 -0.7266 -1.1053  0.7502
   19MOL   H364 9760   0.744   7.536   4.199  1.1149 -1.4065  1.0542
   19MOL   H365 9761   0.710   7.344   4.020  1.1244 -1.2016 -0.0446
   19MOL   C366 9762   1.043   7.736   3.639 -0.3129  0.1061 -0.3420
   19MOL   C367 9763   0.905   7.751   3.576  0.0007 -0.4308  0.5535
   19MOL   N368 9764   0.827   7.861   3.627  0.0712 -0.4117 -0.2565
   19MOL   C369 9765   0.705   7.841   3.688  0.4432  0.2781 -0.1118
   19MOL   C370 9766   0.658   7.970   3.719  1.0090 -0.6795 -0.3604
   19MOL   C371 9767   0.529   7.982   3.780  0.4379 -0.0864 -0.2037
   19MOL   C372 9768   0.445   7.873   3.814  0.4816 -0.0114 -0.7358
   19MOL   C373 9769   0.496   7.743   3.778  0.6619 -0.3441 -0.6373
   19MOL   C374 9770   0.621   7.729   3.713 -0.3511  0.3211 -0.3680
   19MOL   C375 9771   0.749   8.070   3.674 -0.2608  0.0059  0.1407
   19MOL   C376 9772   0.858   7.998   3.618  0.0196 -0.0160 -0.3474
   19MOL   C377 9773   0.972   8.057   3.567  0.4552  0.0317  0.9592
   19MOL   C378 9774   0.978   8.200   3.562  0.2377  1.1120  0.0728
   19MOL   C379 9775   0.873   0.050   3.621 -0.3614 -0.5180 -0.1910
   19MOL   C380 9776   0.756   8.213   3.672  0.0768 -0.2346 -0.0209
   19MOL   H381 9777   1.057   7.805   3.722 -2.3034  2.5680 -1.9753
   19MOL   H382 9778   1.102   7.778   3.557  0.2597  2.0780  1.0632
   19MOL   H383 9779   0.846   7.661   3.587  0.2320 -1.0164 -2.4734
   19MOL   H384 9780   0.487   8.081   3.795  2.0800  0.8276 -1.4187
   19MOL   H385 9781   0.341   7.883   3.841  0.5257  2.1599 -1.2537
   19MOL   H386 9782   0.430   7.659   3.796  0.9569 -0.5219 -0.3814
   19MOL   H387 9783   0.655   7.628   3.693 -0.9416  0.0279  0.0920
   19MOL   H388 9784   1.048   7.996   3.522  0.9044  0.6111  0.9259
   19MOL   H389 9785   1.066   0.013   3.514  0.5668  1.7798  1.2199
   19MOL   H390 9786   0.870   0.157   3.612  0.8783 -0.1718  2.8121
   19MOL   H391 9787   0.664   0.028   3.709  1.0053 -0.5186  2.6723
   19MOL   C392 9788   0.912   7.742   3.421 -0.3948  0.0252 -0.1656
   19MOL   C393 9789   0.783   7.775   3.343  0.4717  0.1240 -0.0738
   19MOL   N394 9790   0.811   7.842   3.218  0.0693 -0.5346  0.6039
   19MOL   C395 9791   0.806   7.979   3.190 -0.0457  1.0677  0.5219
   19MOL   C396 9792   0.851   8.000   3.051  0.1023  0.2437 -0.6262
   19MOL   C397 9793   0.849   8.132   3.006 -0.6676  0.2985 -0.2610
   19MOL   C398 9794   0.806   0.013   3.088 -0.8321 -0.2020 -0.1472
   19MOL   C399 9795   0.780   8.224   3.222 -1.0388  0.0003 -0.8005
   19MOL   C400 9796   0.779   8.090   3.270  0.7545 -0.5356 -0.1191
   19MOL   C401 9797   0.878   7.872   3.000 -0.0880  0.2182  0.2436
   19MOL   C402 9798   0.867   7.779   3.104 -0.3097  0.2926 -0.3625
   19MOL   C403 9799   0.910   7.647   3.085 -0.4617 -0.2241 -0.5591
   19MOL   C404 9800   0.951   7.605   2.955  0.5063  0.3507  0.3801
   19MOL   C405 9801   0.958   7.694   2.849 -0.9466  0.5901 -0.0764
   19MOL   C406 9802   0.914   7.831   2.871  0.0188  0.3525 -0.0869
   19MOL   H407 9803   0.992   7.804   3.380 -0.6966 -0.2521 -1.1751
   19MOL   H408 9804   0.936   7.638   3.398  0.6381  0.5351 -1.4231
   19MOL   H409 9805   0.737   7.856   3.400  1.0078  0.1994  0.2577
   19MOL   H410 9806   0.876   8.149   2.903 -1.6194 -0.3920 -0.6280
   19MOL   H411 9807   0.803   0.109   3.039 -0.2609 -0.7877 -1.3581
   19MOL   H412 9808   0.762   0.078   3.291  1.8428 -0.2771  0.3724
   19MOL   H413 9809   0.748   8.073   3.372  1.1667 -0.7614 -0.0297
   19MOL   H414 9810   0.905   7.576   3.166  0.9430 -0.8234 -0.9782
   19MOL   H415 9811   0.989   7.503   2.954 -0.6579 -0.1243  1.9798
   19MOL   H416 9812   1.005   7.667   2.756  1.1710  1.9285  0.5598
   19MOL   H417 9813   0.930   7.905   2.794 -1.2068 -0.1618 -0.8447
   19MOL   C418 9814   0.680   7.657   3.325 -0.8371 -0.9182  0.0251
   19MOL   C419 9815   0.564   7.688   3.225  0.0531  0.2389 -0.3620
   19MOL   N420 9816   0.476   7.571   3.204  0.0103 -0.2981 -0.2559
   19MOL   C421 9817   0.461   7.497   3.085  0.4158  0.1858 -0.1938
   19MOL   C422 9818   0.361   7.399   3.113 -0.3231 -0.6206 -0.3152
   19MOL   C423 9819   0.328   7.313   3.010  0.0388 -0.5357  0.9075
   19MOL   C424 9820   0.394   7.319   2.887  0.0181 -0.2985 -0.4726
   19MOL   C425 9821   0.485   7.421   2.862  0.3112 -0.6701 -0.3192
   19MOL   C426 9822   0.527   7.515   2.961  0.1777  0.2741  0.4351
   19MOL   C427 9823   0.309   7.419   3.246  0.4170 -0.1380 -0.3260
   19MOL   C428 9824   0.385   7.524   3.302 -0.5417 -0.1908  0.0269
   19MOL   C429 9825   0.364   7.560   3.438 -0.0486 -0.1856  0.1197
   19MOL   C430 9826   0.280   7.485   3.519  0.1464  0.4095  0.2731
   19MOL   C431 9827   0.203   7.384   3.463 -0.3807  0.2817  0.1135
   19MOL   C432 9828   0.218   7.348   3.330 -0.2414  0.3794 -0.8029
   19MOL   H433 9829   0.726   7.563   3.293 -1.4347 -1.0004 -0.6176
   19MOL   H434 9830   0.640   7.636   3.424 -1.1890  0.0723  0.0918
   19MOL   H435 9831   0.611   7.709   3.129  0.4584  0.2365 -0.1648
   19MOL   H436 9832   0.258   7.234   3.032 -1.3293  0.3882 -0.0665
   19MOL   H437 9833   0.376   7.243   2.812  3.2637  0.6946 -2.3558
   19MOL   H438 9834   0.531   7.418   2.764  1.0602 -0.9742  0.0442
   19MOL   H439 9835   0.608   7.585   2.948 -0.3113  0.9909  1.1860
   19MOL   H440 9836   0.419   7.643   3.479 -1.9885  0.8077  0.7803
   19MOL   H441 9837   0.262   7.520   3.620 -1.5690 -0.3402  0.2573
   19MOL   H442 9838   0.139   7.331   3.531  1.2838  0.0766  1.5536
   19MOL   H443 9839   0.166   7.260   3.294 -1.7134  1.3809 -1.1519
   19MOL   C444 9840   0.480   7.813   3.238 -0.1417  0.0616 -0.4916
   19MOL   C445 9841   0.356   7.833   3.155 -0.1280 -0.3772 -0.0300
   19MOL   N446 9842   0.270   7.938   3.215 -0.0131 -0.3115  0.4420
   19MOL   C447 9843   0.151   7.914   3.283 -0.0273 -0.2882  0.8764
   19MOL   C448 9844   0.106   8.037   3.341  0.2828  0.5031 -0.7184
   19MOL   C449 9845   8.215   8.030   3.410  0.4099 -0.4812 -0.4670
   19MOL   C450 9846   8.137   7.912   3.426 -0.2313 -0.2846 -0.1438
   19MOL   C451 9847   8.178   7.794   3.359 -0.1210  0.7674 -0.5275
   19MOL   C452 9848   0.075   7.792   3.295 -0.3862  0.1727  0.2347
   19MOL   C453 9849   0.203   8.139   3.312 -0.4225 -0.5362 -0.3540
   19MOL   C454 9850   0.304   8.077   3.232  0.2046  0.0204  0.2176
   19MOL   C455 9851   0.406   8.155   3.181 -1.0840  0.1833  0.1147
   19MOL   C456 9852   0.419   0.065   3.220 -0.2959  0.0373  0.3994
   19MOL   C457 9853   0.330   0.121   3.310  0.0070  1.1796 -0.2904
   19MOL   C458 9854   0.216   0.047   3.346  0.4469 -0.1303 -0.3528
   19MOL   H459 9855   0.449   7.823   3.342 -0.8830  1.2471 -0.8183
   19MOL   H460 9856   0.545   7.899   3.223  0.2384  0.0998  1.2757
   19MOL   H461 9857   0.292   7.745   3.164 -0.6348 -0.0108 -0.0456
   19MOL   H462 9858   8.179   8.116   3.464  0.6531 -1.3090  1.0387
   19MOL   H463 9859   8.045   7.918   3.482 -0.5559  0.2718 -0.7236
   19MOL   H464 9860   8.117   7.706   3.374  0.8511  0.3597  1.2559
   19MOL   H465 9861   0.113   7.699   3.254  0.1651  0.2806  0.5015
   19MOL   H466 9862   0.483   8.115   3.117 -1.0736  1.7900 -0.9077
   19MOL   H467 9863   0.501   0.117   3.171  1.4795 -2.8227  0.1777
   19MOL   H468 9864   0.333   0.227   3.332  2.3741  0.9730  0.5415
   19MOL   H469 9865   0.136   0.081   3.410  0.8897 -2.1977  1.3409
   19MOL   C470 9866   0.384   7.844   3.003  0.2176  0.0819 -0.1697
   19MOL   C471 9867   0.263   7.863   2.913  0.0603 -0.4063 -0.5417
   19MOL   N472 9868   0.300   7.935   2.790 -1.3585 -0.5744  0.1016
   19MOL   C473 9869   0.228   8.036   2.736 -1.0975 -0.2109 -0.4021
   19MOL   C474 9870   0.306   8.097   2.631  0.9492 -0.6847  0.3740
   19MOL   C475 9871   0.253   8.217   2.570 -0.7727 -0.4192  0.4759
   19MOL   C476 9872   0.132   0.038   2.605 -0.5317  0.2720  0.3553
   19MOL   C477 9873   0.058   8.211   2.706  0.3321  0.4257  0.3041
   19MOL   C478 9874   0.106   8.096   2.773  0.7340  0.2429  0.7632
   19MOL   C479 9875   0.418   8.015   2.610 -0.1011  0.3228  0.1181
   19MOL   C480 9876   0.412   7.917   2.713  0.0180  0.3544  0.6790
   19MOL   C481 9877   0.523   7.825   2.716  0.2066 -0.1271  0.3498
   19MOL   C482 9878   0.623   7.822   2.614 -0.0102 -0.2168  0.1418
   19MOL   C483 9879   0.622   7.919   2.508 -0.3147  0.0529  0.4395
   19MOL   C484 9880   0.520   8.013   2.512 -0.7009  0.3328  0.5054
   19MOL   H485 9881   0.451   7.929   2.992  2.1338 -1.2737  0.7127
   19MOL   H486 9882   0.442   7.755   2.979 -2.7371 -2.1301  0.5576
   19MOL   H487 9883   0.200   7.930   2.972  2.4019  1.1821  0.2696
   19MOL   H488 9884   0.307   0.046   2.495 -1.5808 -1.2844 -0.7811
   19MOL   H489 9885   0.103   0.134   2.566  0.3377  0.1388 -0.6370
   19MOL   H490 9886   8.192   0.034   2.727  0.0630  0.1255 -0.1703
   19MOL   H491 9887   0.051   8.046   2.852 -0.2257 -3.4636 -2.0911
   19MOL   H492 9888   0.518   7.738   2.780 -2.0933  0.0226  0.3886
   19MOL   H493 9889   0.702   7.748   2.610 -0.0127 -0.2406  0.5331
   19MOL   H494 9890   0.688   7.914   2.422  1.0736  1.9489  1.3692
   19MOL   H495 9891   0.513   8.089   2.436 -1.2355  0.0257  0.2474
   19MOL   C496 9892   0.193   7.731   2.885  0.2454  0.7390 -1.1583
   19MOL   C497 9893   0.068   7.741   2.797 -0.2889 -0.0123 -0.6490
   19MOL   N498 9894   0.009   7.610   2.763  0.4350 -0.1439  0.3398
   19MOL   C499 9895   0.024   7.543   2.640 -0.5595  0.7040  0.8809
   19MOL   C500 9896   8.184   7.417   2.654 -0.3706  0.5928  0.2778
   19MOL   C501 9897   8.183   7.327   2.544 -0.5638  0.3425  1.1374
   19MOL   C502 9898   0.017   7.363   2.420 -0.0657  0.2198 -0.1396
   19MOL   C503 9899   0.081   7.488   2.407 -0.8233 -0.1231  0.4294
   19MOL   C504 9900   0.081   7.579   2.514  0.5033 -0.6722  0.1926
   19MOL   C505 9901   8.132   7.408   2.786 -0.6067  0.0426  0.3989
   19MOL   C506 9902   8.165   7.527   2.854  0.2627  0.5474 -0.5971
   19MOL   C507 9903   8.133   7.557   2.990  0.1725 -0.4646  0.1794
   19MOL   C508 9904   8.062   7.456   3.058 -0.3442  0.4378 -0.2484
   19MOL   C509 9905   8.033   7.328   3.001  0.3017 -0.1763 -0.7725
   19MOL   C510 9906   8.061   7.314   2.857  0.2903  0.8452 -0.7508
   19MOL   H511 9907   0.260   7.661   2.835  0.3226  0.0660 -0.1384
   19MOL   H512 9908   0.157   7.685   2.977  0.7945 -0.3269 -1.4731
   19MOL   H513 9909   0.090   7.795   2.706 -0.9279  3.0402  0.9414
   19MOL   H514 9910   8.143   7.228   2.558  2.3300 -1.1065 -0.1851
   19MOL   H515 9911   0.006   7.296   2.336 -0.1658  1.1010 -0.8241
   19MOL   H516 9912   0.141   7.519   2.322 -1.2809 -2.1437 -0.6677
   19MOL   H517 9913   0.141   7.669   2.517 -2.1644  1.1943 -0.3482
   19MOL   H518 9914   8.157   7.642   3.053 -0.5176  0.6905 -1.0811
   19MOL   H519 9915   8.032   7.471   3.161 -0.3632  0.2228 -0.2243
   19MOL   H520 9916   7.974   7.252   3.049 -0.9896  1.9921  1.1532
   19MOL   H521 9917   8.034   7.219   2.815  0.6585  0.9894 -1.3103
   19MOL   H522 9918   8.219   7.806   2.840  1.2368  0.9198  0.7025
   20MOL     C1 9919   1.907   2.058   0.307  0.3722 -0.6621 -0.7166
   20MOL     C2 9920   2.013   1.942   0.303  0.8233 -0.1152 -0.0928
   20MOL     N3 9921   1.997   1.861   0.184  0.1999 -0.5923  0.2038
   20MOL     C4 9922   2.002   1.719   0.189 -0.2753  0.2014  0.0364
   20MOL     C5 9923   1.985   1.668   0.053  0.0306 -0.5099  0.1001
   20MOL     C6 9924   1.976   1.532   0.035  0.0220 -0.3591  0.7393
   20MOL     C7 9925   2.004   1.448   0.143  0.3733  0.1675  0.5108
   20MOL     C8 9926   2.025   1.495   0.275 -0.5224 -0.2648  0.4130
   20MOL     C9 9927   2.023   1.632   0.302  0.0252 -0.2318 -0.0671
   20MOL    C10 9928   1.969   1.780   8.193 -0.0217  0.2182  0.6446
   20MOL    C11 9929   1.989   1.897   0.047  0.8753 -0.0111  0.1756
   20MOL    C12 9930   1.991   2.025   8.211 -0.1093 -0.4009  0.4918
   20MOL    C13 9931   1.964   2.035   8.071  0.1678 -0.5234 -0.5756
   20MOL    C14 9932   1.934   1.922   7.988 -0.1145  0.3557  0.3423
   20MOL    C15 9933   1.942   1.798   8.052  0.3310 -0.3512 -0.8682
   20MOL    H16 9934   1.842   2.036   0.392  0.1368  0.9714 -0.4637
   20MOL    H17 9935   1.857   2.070   0.211 -0.4574  0.5252 -0.1545
   20MOL    H18 9936   2.009   1.884   0.395  0.2178 -0.7558 -0.5148
   20MOL    H19 9937   1.966   1.492   8.162  1.0748 -3.0240  1.6399
   20MOL    H20 9938   2.006   1.344   0.113  2.3573  0.1395  0.7026
   20MOL    H21 9939   2.055   1.428   0.354  0.1975 -0.7910 -0.2963
   20MOL    H22 9940   2.024   1.666   0.405  2.9852  2.8563 -1.0197
   20MOL    H23 9941   2.009   2.121   0.030 -1.1315  1.6272 -3.1319
   20MOL    H24 9942   1.971   2.132   8.024  0.8391 -0.9597 -1.3929
   20MOL    H25 9943   1.900   1.932   7.885 -1.1184 -1.2233  0.4966
   20MOL    H26 9944   1.937   1.706   7.997 -0.1064 -0.2488 -1.0012
   20MOL    H27 9945   1.931   2.159   0.340  1.0363 -1.0814  0.1217
   20MOL    C28 9946   2.151   2.003   0.297  0.3550 -0.2839  0.1851
   20MOL    C29 9947   2.188   2.069   0.434  0.5542 -0.4862  0.7597
   20MOL    N30 9948   2.197   1.975   0.544  0.0310 -0.0738  0.4928
   20MOL    C31 9949   2.119   1.985   0.663  0.6676  0.2593  0.2839
   20MOL    C32 9950   2.155   1.878   0.751  0.5988  0.5242 -1.3044
   20MOL    C33 9951   2.085   1.873   0.877 -0.0065 -0.5534  0.3089
   20MOL    C34 9952   1.985   1.957   0.911  0.6158 -0.7219  0.0661
   20MOL    C35 9953   1.947   2.060   0.824 -0.2798 -0.4300 -0.0426
   20MOL    C36 9954   2.016   2.084   0.705  0.0391  0.7407  0.4944
   20MOL    C37 9955   2.257   1.807   0.687  0.8259 -0.0628 -0.1783
   20MOL    C38 9956   2.283   1.862   0.559  0.0064 -0.9093 -1.0130
   20MOL    C39 9957   2.367   1.805   0.470  0.0828 -0.1148  0.5416
   20MOL    C40 9958   2.431   1.679   0.497 -0.5276 -0.1516  0.1602
   20MOL    C41 9959   2.416   1.627   0.628  0.6765  0.1516 -0.4731
   20MOL    C42 9960   2.327   1.691   0.720  0.2784 -0.2774 -0.3374
   20MOL    H43 9961   2.224   1.932   0.260 -0.0386 -0.0691 -1.0225
   20MOL    H44 9962   2.150   2.077   0.218  1.2000  0.5256  0.9169
   20MOL    H45 9963   2.105   2.137   0.456  0.5007 -0.0270 -0.8189
   20MOL    H46 9964   2.115   1.801   0.953 -1.7939  0.6363  2.1831
   20MOL    H47 9965   1.928   1.946   1.002 -0.5706 -0.9607 -0.6953
   20MOL    H48 9966   1.865   2.125   0.851 -0.7287 -0.2456 -1.7892
   20MOL    H49 9967   1.963   2.149   0.637  1.6653  1.5217 -0.0375
   20MOL    H50 9968   2.375   1.852   0.373  0.2918  1.8347  1.4627
   20MOL    H51 9969   2.498   1.640   0.421  1.5596  1.5199  1.0791
   20MOL    H52 9970   2.476   1.539   0.646  0.6461  0.2668  0.2015
   20MOL    H53 9971   2.309   1.643   0.815  1.0681  0.6962  0.3190
   20MOL    C54 9972   2.311   2.163   0.419  0.2920  0.1990  0.1376
   20MOL    C55 9973   2.300   2.301   0.480  0.1560  0.6679 -0.4484
   20MOL    N56 9974   2.253   2.314   0.622 -0.2335  0.0719 -0.2066
   20MOL    C57 9975   2.151   2.404   0.656 -0.0559  0.4265  0.2887
   20MOL    C58 9976   2.113   2.384   0.791 -0.4923 -0.0035  0.4948
   20MOL    C59 9977   1.999   2.457   0.832  0.2793 -0.7299 -0.1967
   20MOL    C60 9978   1.942   2.557   0.752 -0.5820  0.2904 -0.3837
   20MOL    C61 9979   1.993   2.586   0.626  0.2527 -0.2305 -0.4617
   20MOL    C62 9980   2.093   2.502   0.575 -0.2427 -0.5125  0.2854
   20MOL    C63 9981   2.206   2.285   0.842  0.7824 -0.2818  0.9615
   20MOL    C64 9982   2.297   2.254   0.738  0.0274 -0.9316  0.4410
   20MOL    C65 9983   2.408   2.166   0.757  0.2788 -0.4613  0.4357
   20MOL    C66 9984   2.443   2.123   0.884 -0.0412  0.2104 -0.0115
   20MOL    C67 9985   2.352   2.148   0.990  0.8322  0.6043  0.0472
   20MOL    C68 9986   2.232   2.226   0.970  0.3022 -0.3976 -0.1489
   20MOL    H69 9987   2.394   2.112   0.467  0.4648 -1.3161 -1.7146
   20MOL    H70 9988   2.330   2.170   0.312 -0.2205 -3.5256 -0.2784
   20MOL    H71 9989   2.219   2.347   0.423 -1.2616 -0.9706  0.1822
   20MOL    H72 9990   1.948   2.447   0.927  1.6856  0.8126  0.7343
   20MOL    H73 9991   1.861   2.621   0.784  0.0598  0.9760 -0.1246
   20MOL    H74 9992   1.947   2.663   0.566 -1.7987 -0.2667  1.0205
   20MOL    H75 9993   2.128   2.505   0.473 -0.2545 -1.5245  0.2437
   20MOL    H76 9994   2.472   2.142   0.674 -0.0200  1.7965 -0.4819
   20MOL    H77 9995   2.534   2.065   0.894 -0.5104 -0.8050 -1.4473
   20MOL    H78 9996   2.371   2.111   1.090  2.5042  1.0238 -0.0969
   20MOL    H79 9997   2.185   2.263   1.060 -2.6055 -1.0463 -1.3443
   20MOL    C80 9998   2.436   2.389   0.462  0.8691 -0.2379  0.2766
   20MOL    C81 9999   2.489   2.421   0.322  0.6516 -0.7325  0.2133
   20MOL    N8210000   2.383   2.479   0.234  0.6334 -0.0255 -0.0129
   20MOL    C8310001   2.345   2.429   0.109 -0.8709 -0.2833 -0.6330
   20MOL    C8410002   2.254   2.518   0.047 -0.4249  0.1990 -0.2354
   20MOL    C8510003   2.215   2.496   8.139  0.6870 -0.2284 -0.0780
   20MOL    C8610004   2.264   2.385   8.064  0.6841 -0.4324 -0.2057
   20MOL    C8710005   2.349   2.295   8.131  0.0931  0.4331  0.1124
   20MOL    C8810006   2.385   2.313   0.038 -0.0031 -0.0316 -0.3124
   20MOL    C8910007   2.225   2.623   0.142 -0.2411  0.1218 -0.6118
   20MOL    C9010008   2.310   2.600   0.256  0.1776  0.1518 -1.2185
   20MOL    C9110009   2.300   2.687   0.367  0.4187 -0.1064 -0.2412
   20MOL    C9210010   2.211   2.799   0.369  0.4587 -0.3088  0.3731
   20MOL    C9310011   2.130   2.827   0.249  0.3077  0.1909 -0.0581
   20MOL    C9410012   2.136   2.734   0.147  1.2133  0.7447 -0.5129
   20MOL    H9510013   2.425   2.481   0.519  0.1726 -0.3459  0.3107
   20MOL    H9610014   2.509   2.328   0.516  1.3105  0.4898  0.5103
   20MOL    H9710015   2.527   2.326   0.283  0.4995 -1.2880  1.4250
   20MOL    H9810016   2.138   2.560   8.098  0.1385  1.0585  2.8774
   20MOL    H9910017   2.243   2.368   7.959 -1.2857 -0.8714  0.2530
   20MOL   H10010018   2.396   2.213   8.079 -0.6912  0.8429 -1.2621
   20MOL   H10110019   2.459   2.244   0.074 -0.1697 -1.1333 -2.0077
   20MOL   H10210020   2.363   2.673   0.455  1.5347 -0.8569 -1.1369
   20MOL   H10310021   2.216   2.865   0.454  0.3081 -2.2391  1.8937
   20MOL   H10410022   2.059   2.909   0.243 -0.8747 -0.7938  0.3494
   20MOL   H10510023   2.062   2.752   0.071 -0.4902 -1.2651  0.6273
   20MOL   C10610024   2.603   2.519   0.339  0.2136 -0.0281  0.1028
   20MOL   C10710025   2.674   2.535   0.207  0.4084 -0.3001 -0.3436
   20MOL   N10810026   2.651   2.667   0.137  0.1643 -0.5645 -0.4187
   20MOL   C10910027   2.612   2.683   8.227  0.0251 -0.0740 -0.2771
   20MOL   C11010028   2.611   2.822   8.197 -0.1970 -0.1361  1.1455
   20MOL   C11110029   2.569   2.864   8.068  0.7944  0.4386  0.0560
   20MOL   C11210030   2.533   2.767   7.965 -0.0409 -0.2504 -0.0203
   20MOL   C11310031   2.531   2.636   7.995 -0.2201  0.3466  0.5276
   20MOL   C11410032   2.583   2.595   8.120  0.1079 -0.6067 -0.5034
   20MOL   C11510033   2.658   2.894   0.085  0.0658  0.0696  0.0185
   20MOL   C11610034   2.675   2.798   0.190 -1.4371 -0.7839 -0.4810
   20MOL   C11710035   2.718   2.829   0.319 -0.3153 -0.5044 -1.3003
   20MOL   C11810036   2.739   2.964   0.351  0.5355  0.3698  0.2661
   20MOL   C11910037   2.728   3.062   0.248  0.2713 -0.1589  0.1531
   20MOL   C12010038   2.684   3.025   0.116  0.1666  0.9444 -0.1822
   20MOL   H12110039   2.568   2.612   0.383 -1.3149 -0.9546  0.8718
   20MOL   H12210040   2.670   2.485   0.418 -0.7549  1.3659  1.5545
   20MOL   H12310041   2.635   2.460   0.139  0.4299  0.1367 -0.8388
   20MOL   H12410042   2.569   2.970   8.046  0.7542  0.4937  0.3261
   20MOL   H12510043   2.516   2.799   7.864  0.6327  0.3927  0.0612
   20MOL   H12610044   2.503   2.568   7.916  0.4933  0.5232  0.1143
   20MOL   H12710045   2.586   2.490   8.145 -0.6121 -0.2950  0.9859
   20MOL   H12810046   2.732   2.749   0.390 -1.4080  0.9473  0.6143
   20MOL   H12910047   2.773   2.986   0.451  1.8019  0.5393 -0.1900
   20MOL   H13010048   2.743   3.166   0.272 -1.7959  0.2476 -0.2168
   20MOL   H13110049   2.662   3.088   0.032  2.3845 -1.6205 -2.8061
   20MOL   C13210050   2.820   2.522   0.223  0.6740  0.6560 -0.3119
   20MOL   C13310051   2.873   2.388   0.281 -0.5807  0.5037  0.5296
   20MOL   N13410052   2.804   2.263   0.254 -0.0949 -0.6455 -0.4134
   20MOL   C13510053   2.778   2.160   0.347  0.0412 -0.0107  0.3114
   20MOL   C13610054   2.694   2.060   0.286 -0.5093  0.2013 -0.0534
   20MOL   C13710055   2.654   1.957   0.372  0.4323 -0.2439 -1.0331
   20MOL   C13810056   2.683   1.963   0.510  0.0818  0.4116 -0.3716
   20MOL   C13910057   2.770   2.054   0.569  0.4685  0.3220 -0.1303
   20MOL   C14010058   2.813   2.160   0.489  0.2619 -0.0655  0.0079
   20MOL   C14110059   2.688   2.091   0.148  0.0946 -0.4112 -0.4530
   20MOL   C14210060   2.759   2.212   0.128 -0.1050 -0.1830 -0.3569
   20MOL   C14310061   2.771   2.270   8.226 -0.1637  0.4383  0.3447
   20MOL   C14410062   2.712   2.206   8.114  0.4468  0.5412 -0.0639
   20MOL   C14510063   2.630   2.088   8.131  0.6146 -0.0679 -0.2600
   20MOL   C14610064   2.625   2.032   0.038 -0.4140  0.4759 -0.1790
   20MOL   H14710065   2.873   2.532   0.128 -0.4272  0.8003 -0.9227
   20MOL   H14810066   2.866   2.603   0.279  1.4633  1.5000 -2.1358
   20MOL   H14910067   2.872   2.403   0.389  0.3560 -2.2116  0.9372
   20MOL   H15010068   2.581   1.882   0.344  1.3813 -1.7470  0.4265
   20MOL   H15110069   2.635   1.886   0.569  0.4138 -0.1108 -0.7837
   20MOL   H15210070   2.800   2.052   0.673 -0.1297 -0.4517  0.0352
   20MOL   H15310071   2.864   2.239   0.541 -1.0227 -1.2655  3.2151
   20MOL   H15410072   2.831   2.358   8.210  2.0221 -1.7087 -4.2545
   20MOL   H15510073   2.736   2.240   8.014 -0.6413  2.5166  0.3378
   20MOL   H15610074   2.587   2.038   8.046  1.1944 -0.3899 -0.3653
   20MOL   H15710075   2.571   1.940   0.051  1.2269 -0.7567 -1.7963
   20MOL   C15810076   3.020   2.360   0.247 -0.3237 -0.0496  0.5682
   20MOL   C15910077   3.114   2.474   0.288 -0.4088  0.3206  0.1438
   20MOL   N16010078   3.115   2.506   0.429  0.7660  0.2655 -0.0785
   20MOL   C16110079   3.085   2.632   0.490  0.1848  0.4010 -0.6977
   20MOL   C16210080   3.101   2.617   0.632  0.3452  0.6454 -0.3779
   20MOL   C16310081   3.074   2.729   0.713 -0.7193 -0.1136 -0.0795
   20MOL   C16410082   3.048   2.857   0.656 -0.7864 -0.0255  0.1921
   20MOL   C16510083   3.026   2.863   0.515 -0.4048 -0.1520  1.3392
   20MOL   C16610084   3.042   2.752   0.432  0.1887  0.4088  0.5477
   20MOL   C16710085   3.127   2.480   0.662 -0.6579  0.0381 -0.6371
   20MOL   C16810086   3.138   2.418   0.535 -0.7183  0.0967 -0.1683
   20MOL   C16910087   3.180   2.280   0.538  0.3055  0.0257  0.6239
   20MOL   C17010088   3.202   2.211   0.657  0.2438 -0.3015 -0.6664
   20MOL   C17110089   3.177   2.269   0.782 -0.5735 -0.6366 -0.1614
   20MOL   C17210090   3.135   2.406   0.782  0.4026  0.0752 -0.6792
   20MOL   H17310091   3.056   2.265   0.285  0.6730 -0.5642 -1.5887
   20MOL   H17410092   3.039   2.339   0.141  0.3984 -0.3962  0.7659
   20MOL   H17510093   3.077   2.566   0.242 -2.9055 -1.2843 -1.1824
   20MOL   H17610094   3.076   2.714   0.820 -0.2001 -0.1360 -0.0925
   20MOL   H17710095   3.033   2.944   0.718  4.2253 -0.8632  2.8681
   20MOL   H17810096   2.995   2.956   0.472  1.7515 -0.3041 -0.6787
   20MOL   H17910097   3.028   2.764   0.326  3.8657 -2.5413 -0.3986
   20MOL   H18010098   3.210   2.223   0.451 -2.2404  0.1558 -0.3788
   20MOL   H18110099   3.243   2.111   0.653 -2.9196 -1.5936 -2.2310
   20MOL   H18210100   3.194   2.210   0.870  0.7484  0.7327  0.5196
   20MOL   H18310101   3.126   2.457   0.877  0.2418 -2.3044  0.6036
   20MOL   C18410102   3.266   2.476   0.252  0.1757  0.2086 -0.1225
   20MOL   C18510103   3.299   2.455   0.107 -0.7773  0.9920  0.0737
   20MOL   N18610104   3.204   2.529   0.021  0.0075 -0.2118 -0.8853
   20MOL   C18710105   3.142   2.470   8.135  0.4905 -0.3050  0.4433
   20MOL   C18810106   3.060   2.567   8.076  1.1019 -0.1416 -0.3038
   20MOL   C18910107   2.975   2.536   7.966  0.7590 -0.3504 -0.3172
   20MOL   C19010108   2.981   2.409   7.906  0.1910  0.2259 -0.4190
   20MOL   C19110109   3.066   2.304   7.962  0.3949  0.0799 -0.4535
   20MOL   C19210110   3.148   2.342   8.070  0.4955 -0.2653 -0.1842
   20MOL   C19310111   3.068   2.690   8.152  0.2257 -0.1441 -0.0248
   20MOL   C19410112   3.168   2.663   0.027 -0.1733  0.4968 -0.4289
   20MOL   C19510113   3.213   2.776   0.101  0.2789  0.2558  0.4109
   20MOL   C19610114   3.145   2.901   0.090  0.3291  0.0623 -0.2269
   20MOL   C19710115   3.035   2.917   0.004 -0.2903 -0.3783  0.5330
   20MOL   C19810116   2.998   2.811   8.147 -0.7324  0.2924 -0.3157
   20MOL   H19910117   3.312   2.568   0.288  0.8861  0.1274 -0.8105
   20MOL   H20010118   3.311   2.388   0.297  0.0939 -1.8526 -3.8010
   20MOL   H20110119   3.268   2.353   0.085 -0.9569  1.2522 -0.9035
   20MOL   H20210120   2.911   2.609   7.919 -0.8635 -1.8552 -0.5019
   20MOL   H20310121   2.923   2.384   7.819  1.2465 -2.6188 -0.3563
   20MOL   H20410122   3.055   2.206   7.918  1.3060 -0.4719  0.5108
   20MOL   H20510123   3.222   2.268   8.096  0.1740 -0.4834  0.1239
   20MOL   H20610124   3.291   2.774   0.177 -0.0185  1.5895  0.7591
   20MOL   H20710125   3.179   2.985   0.148 -0.3042  0.4879 -0.4640
   20MOL   H20810126   2.983   3.011   8.221 -1.0245 -1.0579 -2.5146
   20MOL   H20910127   2.910   2.830   8.088  0.0121 -0.0548 -1.5739
   20MOL   C21010128   3.444   2.493   0.092 -0.2498 -0.1256  0.1505
   20MOL   C21110129   3.543   2.389   0.155  0.2142  0.2346 -0.1809
   20MOL   N21210130   3.510   2.253   0.121  0.0667 -0.1086 -0.0603
   20MOL   C21310131   3.477   2.148   0.213 -0.3150 -0.8209 -0.1543
   20MOL   C21410132   3.467   2.024   0.145 -0.1292  0.9127  0.1912
   20MOL   C21510133   3.449   1.904   0.218  0.7303 -0.1181  0.0909
   20MOL   C21610134   3.432   1.907   0.355 -1.0613  0.2884  0.2830
   20MOL   C21710135   3.448   2.030   0.423 -0.3571 -0.1682  0.4752
   20MOL   C21810136   3.470   2.150   0.352  0.2516 -0.2826  0.2067
   20MOL   C21910137   3.465   2.054   0.003 -0.2192  0.5678  0.0382
   20MOL   C22010138   3.500   2.195   8.217  0.2397  0.2605  0.0905
   20MOL   C22110139   3.520   2.245   8.083 -0.0985  0.0091 -0.8665
   20MOL   C22210140   3.489   2.165   7.971 -0.4067 -0.5970  0.0184
   20MOL   C22310141   3.451   2.028   7.985 -0.0940  0.6766  0.2036
   20MOL   C22410142   3.448   1.972   8.113  0.4386 -0.2403 -0.1488
   20MOL   H22510143   3.465   2.502   8.213  1.4732  1.1303  0.5758
   20MOL   H22610144   3.463   2.594   0.128 -1.0966  1.3627 -3.3924
   20MOL   H22710145   3.522   2.393   0.262  1.6262  0.9930  0.0828
   20MOL   H22810146   3.438   1.811   0.164 -1.4531  0.1042  0.0868
   20MOL   H22910147   3.422   1.817   0.414  0.7263  0.0904  0.3242
   20MOL   H23010148   3.446   2.041   0.531 -0.5496 -0.4224  0.4983
   20MOL   H23110149   3.490   2.238   0.412  0.5720 -0.4819  0.3933
   20MOL   H23210150   3.541   2.350   8.069  0.3238  0.2093  1.1366
   20MOL   H23310151   3.500   2.207   7.872  1.3677  1.1198  0.9096
   20MOL   H23410152   3.428   1.969   7.897 -1.9872  0.9572  0.4837
   20MOL   H23510153   3.412   1.872   8.134  0.2285 -0.2425 -0.5267
   20MOL   C23610154   3.696   2.419   0.124 -0.2102 -0.2732  0.2602
   20MOL   C23710155   3.768   2.509   0.231 -0.4681  0.6850 -0.5672
   20MOL   N23810156   3.712   2.489   0.365 -0.4260 -0.0208  0.7119
   20MOL   C23910157   3.621   2.569   0.436  0.8074  0.0607 -0.0125
   20MOL   C24010158   3.581   2.500   0.553  0.7161  0.1140 -0.3113
   20MOL   C24110159   3.484   2.562   0.633 -0.2391  0.2974  0.5453
   20MOL   C24210160   3.432   2.688   0.604 -0.3324 -0.9156  0.0080
   20MOL   C24310161   3.470   2.752   0.488  0.8532  0.5982 -0.0639
   20MOL   C24410162   3.561   2.693   0.399 -0.1036 -0.3332 -0.0783
   20MOL   C24510163   3.661   2.380   0.562  0.3088  0.2038  0.3936
   20MOL   C24610164   3.736   2.378   0.441  0.1188 -0.3014 -0.0385
   20MOL   C24710165   3.820   2.271   0.413 -0.2798 -0.1719  0.4171
   20MOL   C24810166   3.847   2.174   0.509  0.8797  0.5976 -0.3388
   20MOL   C24910167   3.769   2.173   0.630  0.1794  0.5546 -0.8080
   20MOL   C25010168   3.671   2.269   0.657  0.4725 -0.0005 -0.1040
   20MOL   H25110169   3.746   2.322   0.124  1.6615  0.6051  2.9450
   20MOL   H25210170   3.696   2.478   0.033  0.3086 -0.8228 -0.0964
   20MOL   H25310171   3.756   2.615   0.207  2.2925  1.1488 -0.0900
   20MOL   H25410172   3.460   2.511   0.725  0.4617  1.3453  1.3290
   20MOL   H25510173   3.363   2.736   0.671 -0.7459 -2.8464  0.9921
   20MOL   H25610174   3.443   2.856   0.474  1.5113  0.6348 -1.1748
   20MOL   H25710175   3.592   2.752   0.314  1.2746 -2.0810 -0.8138
   20MOL   H25810176   3.880   2.266   0.323 -0.3318  0.5466  0.3420
   20MOL   H25910177   3.919   2.095   0.496  1.1642  0.7888  0.0801
   20MOL   H26010178   3.788   2.099   0.706 -0.0619  2.2246  0.9136
   20MOL   H26110179   3.614   2.253   0.747  0.0207 -0.9391 -0.5422
   20MOL   C26210180   3.924   2.499   0.215 -0.2185  0.7089 -0.2250
   20MOL   C26310181   4.021   2.529   0.337  0.2907  0.2115  0.4271
   20MOL   N26410182   4.164   2.511   0.305  0.2425 -0.4072 -0.4719
   20MOL   C26510183   4.244   2.410   0.363  0.3254  0.7617 -0.1177
   20MOL   C26610184   4.381   2.427   0.320  0.3320  0.5400  0.1257
   20MOL   C26710185   4.483   2.345   0.387 -0.7719  0.2573  0.1679
   20MOL   C26810186   4.451   2.252   0.485 -0.3993 -0.4209 -0.2984
   20MOL   C26910187   4.315   2.236   0.514  0.2059  0.1118 -0.3104
   20MOL   C27010188   4.212   2.304   0.449 -0.4962  0.4844 -0.0983
   20MOL   C27110189   4.380   2.537   0.231 -0.9103 -0.3143 -0.0954
   20MOL   C27210190   4.249   2.590   0.227 -0.8123  0.4698  1.1624
   20MOL   C27310191   4.221   2.704   0.149 -0.0709 -0.7028 -0.5520
   20MOL   C27410192   4.325   2.778   0.091  0.4961  0.1125  0.4571
   20MOL   C27510193   4.458   2.728   0.092 -0.4623  0.0926 -0.2628
   20MOL   C27610194   4.483   2.603   0.158  0.4672 -0.2485 -0.4607
   20MOL   H27710195   3.945   2.397   0.186 -2.3406  0.5222 -1.1087
   20MOL   H27810196   3.960   2.554   0.128 -0.0122  1.2282  0.1776
   20MOL   H27910197   3.996   2.459   0.417 -1.8355  2.5340  1.8554
   20MOL   H28010198   4.584   2.374   0.364 -1.0839  2.2571  1.1548
   20MOL   H28110199   4.526   2.206   0.548  0.4904  1.8844  0.3889
   20MOL   H28210200   4.281   2.168   0.590  0.8897  1.2206  1.0282
   20MOL   H28310201   4.109   2.279   0.469 -0.8972  1.0726 -1.3461
   20MOL   H28410202   4.125   2.750   0.130  0.5502  0.0611 -1.9232
   20MOL   H28510203   4.301   2.865   0.031  0.0203  0.8951  1.7713
   20MOL   H28610204   4.542   2.789   0.065 -0.3156 -0.3047 -0.7172
   20MOL   H28710205   4.579   2.554   0.157  0.3843 -0.4349 -2.4369
   20MOL   C28810206   3.993   2.664   0.404  0.1747  0.1513  1.0321
   20MOL   C28910207   4.069   2.713   0.522 -0.0795 -0.6513  0.3024
   20MOL   N29010208   4.044   2.860   0.549 -0.6906 -0.0386  0.3460
   20MOL   C29110209   4.143   2.954   0.530 -1.0239 -0.7882  1.1012
   20MOL   C29210210   4.091   3.082   0.582  0.1728 -0.1999 -0.0096
   20MOL   C29310211   4.176   3.196   0.567  0.9676 -0.3927 -0.3257
   20MOL   C29410212   4.302   3.192   0.504  0.4343 -0.4933 -0.0293
   20MOL   C29510213   4.345   3.063   0.446 -0.6026 -0.3695 -0.5260
   20MOL   C29610214   4.268   2.948   0.463  0.5250  0.3701 -0.1073
   20MOL   C29710215   3.964   3.051   0.648  1.3905 -0.0233 -0.9784
   20MOL   C29810216   3.933   2.920   0.616  0.0881 -0.2668 -0.0847
   20MOL   C29910217   3.810   2.860   0.656  0.0717  0.1103 -0.3521
   20MOL   C30010218   3.726   2.943   0.731 -0.6877 -0.0964 -0.6318
   20MOL   C30110219   3.749   3.078   0.767  0.7849  0.1735 -0.3921
   20MOL   C30210220   3.870   3.129   0.725  0.0600  0.5519 -0.7973
   20MOL   H30310221   4.016   2.737   0.326  1.8370 -1.1142  0.2906
   20MOL   H30410222   3.886   2.665   0.420  0.0085  0.7469 -0.0825
   20MOL   H30510223   4.170   2.700   0.483 -0.4749  0.9364 -1.3309
   20MOL   H30610224   4.137   3.289   0.604 -1.8467 -1.1581 -1.2212
   20MOL   H30710225   4.356   3.283   0.484  1.0252 -1.3105 -2.3823
   20MOL   H30810226   4.425   3.050   0.374 -1.0446 -2.1664 -0.7065
   20MOL   H30910227   4.306   2.861   0.413 -1.8955 -0.5919 -0.3289
   20MOL   H31010228   3.772   2.766   0.618 -0.7698 -1.1587  3.4148
   20MOL   H31110229   3.628   2.903   0.749 -0.5910 -0.1598 -0.2558
   20MOL   H31210230   3.671   3.133   0.817  1.2001  0.8189 -0.4395
   20MOL   H31310231   3.889   3.235   0.734  1.0340  0.4344 -1.4124
   20MOL   C31410232   4.065   2.627   0.645  0.1254  0.8509 -1.0157
   20MOL   C31510233   4.165   2.669   0.758 -0.3366  0.2532  0.4062
   20MOL   N31610234   4.135   2.613   0.890  0.0115 -0.6112  0.3504
   20MOL   C31710235   4.072   2.692   0.989 -0.4269 -0.3840  0.5087
   20MOL   C31810236   4.045   2.615   1.103 -0.1640 -0.4952  0.4504
   20MOL   C31910237   3.984   2.676   1.218 -0.8343  0.2394  0.1214
   20MOL   C32010238   3.957   2.815   1.220  0.0297 -0.1696 -0.1390
   20MOL   C32110239   3.972   2.892   1.102 -0.9601 -0.4840 -0.5945
   20MOL   C32210240   4.026   2.831   0.988 -0.1349 -0.2123 -0.2097
   20MOL   C32310241   4.105   2.493   1.083 -1.1181  0.4222 -0.2991
   20MOL   C32410242   4.166   2.490   0.953 -0.0755  0.5686 -0.4135
   20MOL   C32510243   4.234   2.372   0.918 -0.1735 -0.5220 -0.5640
   20MOL   C32610244   4.246   2.259   0.997 -0.3126 -0.1895  0.5076
   20MOL   C32710245   4.192   2.268   1.127  0.6085  0.0836  0.2948
   20MOL   C32810246   4.128   2.382   1.166 -0.0132  0.3664 -0.0926
   20MOL   H32910247   3.963   2.610   0.682 -0.5222  1.0107 -2.6855
   20MOL   H33010248   4.093   2.526   0.616 -0.5272 -0.4726  2.6883
   20MOL   H33110249   4.150   2.777   0.767 -1.1208  0.2440 -0.7384
   20MOL   H33210250   3.964   2.616   1.306 -2.1899 -2.3235 -1.8566
   20MOL   H33310251   3.917   2.859   1.311  1.1759  0.5798  0.0145
   20MOL   H33410252   3.946   2.996   1.107 -2.1326 -0.7618 -0.8439
   20MOL   H33510253   4.045   2.892   0.902  1.4580  0.5459  0.6593
   20MOL   H33610254   4.267   2.370   0.815  1.2531 -0.1594 -0.1309
   20MOL   H33710255   4.293   2.165   0.972  1.9674  0.4273  2.2563
   20MOL   H33810256   4.200   2.191   1.202 -1.5416 -0.8197 -0.3767
   20MOL   H33910257   4.086   2.385   1.265  0.5817  2.0158  0.1292
   20MOL   C34010258   4.314   2.644   0.716 -0.5419 -0.7086  0.1208
   20MOL   C34110259   4.426   2.672   0.815  0.6416  0.2218 -0.2507
   20MOL   N34210260   4.559   2.649   0.757 -0.4106 -0.1779 -0.4542
   20MOL   C34310261   4.629   2.534   0.777  0.3961 -0.7622  0.4149
   20MOL   C34410262   4.754   2.537   0.710 -0.0618 -0.1448  0.6877
   20MOL   C34510263   4.850   2.434   0.716  0.3447 -0.1955  0.3821
   20MOL   C34610264   4.815   2.319   0.797  0.1282 -0.6078  0.0707
   20MOL   C34710265   4.690   2.321   0.866  0.1785  0.0471 -0.4474
   20MOL   C34810266   4.599   2.421   0.857  0.5918 -0.5360 -0.2007
   20MOL   C34910267   4.756   2.659   0.642  0.2382 -0.9857 -0.4378
   20MOL   C35010268   4.631   2.724   0.661  0.3706  0.6403 -0.2389
   20MOL   C35110269   4.599   2.842   0.583  1.1129  0.3643  0.0735
   20MOL   C35210270   4.689   2.900   0.499 -0.6012  0.6915 -1.3834
   20MOL   C35310271   4.818   2.847   0.488 -0.3529 -0.0124  0.1495
   20MOL   C35410272   4.845   2.724   0.554  0.3937 -0.3584  0.5917
   20MOL   H35510273   4.330   2.544   0.677 -0.5913 -2.0720  3.5129
   20MOL   H35610274   4.333   2.701   0.624  0.2177 -0.9496  0.1237
   20MOL   H35710275   4.411   2.604   0.898 -0.4958  0.7340 -0.0271
   20MOL   H35810276   4.945   2.442   0.665  0.1533 -1.0015 -0.1125
   20MOL   H35910277   4.874   2.229   0.798 -1.4657 -1.6968  2.2340
   20MOL   H36010278   4.657   2.230   0.914  1.6004 -0.0659  0.3416
   20MOL   H36110279   4.506   2.407   0.912  0.9322  0.0061  0.5141
   20MOL   H36210280   4.503   2.886   0.603  0.1966 -1.5396 -0.0005
   20MOL   H36310281   4.670   2.985   0.435 -1.6341 -0.1241 -2.1599
   20MOL   H36410282   4.898   2.894   0.433  1.1363 -0.7663  1.6401
   20MOL   H36510283   4.946   2.690   0.536  0.2103  0.0750 -1.4944
   20MOL   C36610284   4.397   2.817   0.865 -0.1807 -0.1050 -0.9426
   20MOL   C36710285   4.497   2.873   0.966  0.1700  0.2598 -0.3268
   20MOL   N36810286   4.559   3.000   0.919 -0.2580 -0.3842  0.6811
   20MOL   C36910287   4.693   3.011   0.880 -0.0163 -0.2329  0.2741
   20MOL   C37010288   4.721   3.140   0.827 -1.0448 -0.0176  0.3777
   20MOL   C37110289   4.853   3.174   0.779  0.7034  0.2895 -0.4905
   20MOL   C37210290   4.950   3.069   0.766  0.3175 -0.2104  0.2792
   20MOL   C37310291   4.927   2.948   0.825  0.5243 -0.2257 -0.2081
   20MOL   C37410292   4.797   2.916   0.869  0.3983 -0.1857  1.0899
   20MOL   C37510293   4.598   3.213   0.841 -0.0965  0.0548 -0.3208
   20MOL   C37610294   4.500   3.124   0.897 -0.3312 -0.1975 -0.2854
   20MOL   C37710295   4.368   3.155   0.926 -0.3716 -0.1539  0.0154
   20MOL   C37810296   4.323   3.284   0.886  0.3414  0.0846  0.2191
   20MOL   C37910297   4.414   3.379   0.835 -1.4099  0.5365  1.0565
   20MOL   C38010298   4.545   3.338   0.805 -0.3529  0.5680  0.1106
   20MOL   H38110299   4.381   2.887   0.784  0.3390  1.9555  0.6897
   20MOL   H38210300   4.303   2.798   0.917 -1.0163 -1.3567 -2.8661
   20MOL   H38310301   4.579   2.801   0.972 -1.3104 -1.4361 -0.2715
   20MOL   H38410302   4.865   3.271   0.734  2.0661  0.5983  0.5001
   20MOL   H38510303   5.039   3.092   0.708 -0.4772  0.8083 -0.5533
   20MOL   H38610304   4.992   2.862   0.822 -1.4342 -1.7228 -0.9893
   20MOL   H38710305   4.779   2.816   0.906 -0.3019 -0.9291 -1.1991
   20MOL   H38810306   4.296   3.086   0.968  0.0835 -0.5276  0.1751
   20MOL   H38910307   4.218   3.307   0.899 -0.1259 -1.2258 -1.0473
   20MOL   H39010308   4.378   3.475   0.802 -0.1405  0.0497 -1.9684
   20MOL   H39110309   4.609   3.397   0.741 -0.6102  1.2543  0.4775
   20MOL   C39210310   4.433   2.880   1.104 -0.6878 -0.6059  0.1816
   20MOL   C39310311   4.438   2.759   1.199  0.8916  0.0640  0.0314
   20MOL   N39410312   4.572   2.695   1.215  0.0641 -0.6840 -0.5829
   20MOL   C39510313   4.593   2.555   1.207  0.2936  0.1678  0.0167
   20MOL   C39610314   4.732   2.528   1.242 -0.3854 -0.0295 -0.2132
   20MOL   C39710315   4.771   2.388   1.239  0.0982  0.8155  0.6586
   20MOL   C39810316   4.678   2.289   1.202 -0.6302 -0.1095 -0.3912
   20MOL   C39910317   4.545   2.320   1.180 -0.1930 -0.2396 -0.2347
   20MOL   C40010318   4.504   2.449   1.184 -0.2511 -0.4779  0.7118
   20MOL   C40110319   4.797   2.656   1.265  0.4077 -0.4468 -0.1052
   20MOL   C40210320   4.697   2.757   1.242  0.4321  0.0107  0.1384
   20MOL   C40310321   4.732   2.894   1.277  0.2602 -0.0226 -0.1817
   20MOL   C40410322   4.860   2.931   1.305  0.3659 -0.3143  0.0002
   20MOL   C40510323   4.964   2.834   1.312  0.3534 -0.2490 -0.3489
   20MOL   C40610324   4.924   2.696   1.296 -0.0679  0.4673 -0.5531
   20MOL   H40710325   4.472   2.968   1.154 -1.8332 -0.4451  0.8177
   20MOL   H40810326   4.331   2.918   1.102 -0.4728  0.0615  1.6771
   20MOL   H40910327   4.365   2.683   1.173  1.7099 -0.7036 -0.0348
   20MOL   H41010328   4.869   2.361   1.277 -0.3975  0.2446  1.5514
   20MOL   H41110329   4.714   2.187   1.213 -0.2456  0.3163  2.8233
   20MOL   H41210330   4.467   2.251   1.151 -0.3919  0.5089 -1.5274
   20MOL   H41310331   4.403   2.461   1.150 -0.0331  1.7883  0.7881
   20MOL   H41410332   4.656   2.971   1.268 -0.9427 -1.4631 -3.0005
   20MOL   H41510333   4.877   3.036   1.326 -3.3538  0.3814 -0.0517
   20MOL   H41610334   5.065   2.862   1.338  0.2602  0.8834 -1.1878
   20MOL   H41710335   5.001   2.621   1.307 -1.8624 -1.3027  0.2638
   20MOL   C41810336   4.378   2.811   1.337 -0.3256 -0.5199 -0.4821
   20MOL   C41910337   4.434   2.739   1.460 -0.4574  0.2197 -0.1413
   20MOL   N42010338   4.411   2.824   1.581 -0.1518  0.5584  0.2381
   20MOL   C42110339   4.506   2.883   1.665  0.6408  0.3536 -0.5533
   20MOL   C42210340   4.445   2.969   1.752 -0.1765  0.3199  0.0355
   20MOL   C42310341   4.528   3.045   1.835 -1.0633  0.3799  0.0180
   20MOL   C42410342   4.663   3.048   1.827 -0.6123 -0.3803 -1.0755
   20MOL   C42510343   4.725   2.961   1.735 -0.3326 -0.0070 -0.8311
   20MOL   C42610344   4.645   2.874   1.662 -0.3822  0.1282 -0.7120
   20MOL   C42710345   4.302   2.959   1.732  0.0578  0.3752  0.4484
   20MOL   C42810346   4.284   2.866   1.626 -0.5820 -0.1638  0.7153
   20MOL   C42910347   4.148   2.838   1.583  0.0917  0.3904  0.1992
   20MOL   C43010348   4.038   2.892   1.645 -0.7292  0.2477 -0.1945
   20MOL   C43110349   4.065   2.986   1.749 -0.2643 -0.1365 -0.2061
   20MOL   C43210350   4.194   3.020   1.792  0.2617 -0.3564 -0.2787
   20MOL   H43310351   4.393   2.919   1.347  2.8198 -0.9411 -0.2671
   20MOL   H43410352   4.271   2.789   1.334 -0.8500  1.9351 -1.2256
   20MOL   H43510353   4.542   2.738   1.447 -0.7115 -1.3290 -2.4747
   20MOL   H43610354   4.471   3.111   1.898 -0.0863 -0.2155  1.5634
   20MOL   H43710355   4.720   3.107   1.898  0.7768 -1.8767 -0.9005
   20MOL   H43810356   4.832   2.968   1.722 -0.2412  0.2179  0.0277
   20MOL   H43910357   4.696   2.809   1.592 -0.3818 -1.2018  0.5165
   20MOL   H44010358   4.127   2.770   1.502  0.7355 -1.0490  1.2269
   20MOL   H44110359   3.939   2.874   1.605 -0.2630 -1.4391 -0.6559
   20MOL   H44210360   3.979   3.032   1.794 -0.8745  0.4556 -1.9444
   20MOL   H44310361   4.211   3.088   1.875 -3.1813 -0.4147  0.5530
   20MOL   C44410362   4.377   2.600   1.489  0.5143  0.4158  0.0810
   20MOL   C44510363   4.439   2.512   1.604  0.2662  0.0643 -0.1518
   20MOL   N44610364   4.336   2.405   1.636 -0.2987 -0.6736 -0.6245
   20MOL   C44710365   4.245   2.418   1.737 -0.1474  0.6766  0.2203
   20MOL   C44810366   4.167   2.302   1.746 -0.7446  0.4936  0.2533
   20MOL   C44910367   4.064   2.294   1.846  0.1355 -0.0384  0.9348
   20MOL   C45010368   4.039   2.394   1.935  0.0290  0.1160 -0.1236
   20MOL   C45110369   4.111   2.514   1.926  0.3298  0.0859 -0.0891
   20MOL   C45210370   4.210   2.524   1.825  0.3712  0.0429  0.6693
   20MOL   C45310371   4.218   2.209   1.657  0.6576 -0.4853 -0.4658
   20MOL   C45410372   4.306   2.284   1.572  0.5094 -0.0887 -0.3507
   20MOL   C45510373   4.366   2.221   1.464  0.3689  0.2966  0.4207
   20MOL   C45610374   4.334   2.089   1.430  0.3875 -0.0236  0.6657
   20MOL   C45710375   4.259   2.009   1.516  0.4850  0.0901  0.3426
   20MOL   C45810376   4.190   2.077   1.619 -0.6190  0.1449 -0.9255
   20MOL   H45910377   4.270   2.620   1.502  0.1030 -0.1128 -2.2639
   20MOL   H46010378   4.375   2.544   1.395 -1.7733 -1.8012  1.3783
   20MOL   H46110379   4.460   2.572   1.693 -2.8577 -0.1534  0.7788
   20MOL   H46210380   4.022   2.200   1.877 -1.4267  1.1981  2.6376
   20MOL   H46310381   3.964   2.383   2.012 -1.0127  0.2073 -1.1055
   20MOL   H46410382   4.091   2.600   1.987  1.4523 -0.8082  1.5754
   20MOL   H46510383   4.257   2.620   1.811 -1.7962  0.9164 -0.9065
   20MOL   H46610384   4.443   2.278   1.414 -0.7655  0.6016 -1.0134
   20MOL   H46710385   4.385   2.040   1.349  0.7713 -0.3356  1.0973
   20MOL   H46810386   4.253   1.902   1.502  0.6564  0.2470 -0.9649
   20MOL   H46910387   4.112   2.031   1.677 -0.2655  0.2025 -0.3962
   20MOL   C47010388   4.578   2.450   1.568 -0.0826  0.0149 -0.6294
   20MOL   C47110389   4.637   2.346   1.669  0.2850  0.0994  0.6753
   20MOL   N47210390   4.750   2.277   1.603  0.3491 -0.2717 -0.2377
   20MOL   C47310391   4.749   2.147   1.555 -0.3520 -0.2639  0.1643
   20MOL   C47410392   4.874   2.114   1.498 -0.8497 -0.2670  0.1365
   20MOL   C47510393   4.903   1.984   1.448 -0.6512 -0.2142  0.4066
   20MOL   C47610394   4.807   1.886   1.453 -0.0048 -1.0577 -0.8297
   20MOL   C47710395   4.677   1.923   1.492  0.4110 -0.5456 -0.1469
   20MOL   C47810396   4.653   2.046   1.560  1.1458  0.0214  0.1846
   20MOL   C47910397   4.953   2.234   1.508  0.1018 -0.3459 -0.4008
   20MOL   C48010398   4.876   2.332   1.569 -0.2362 -0.0380  0.2509
   20MOL   C48110399   4.924   2.465   1.595  0.3854 -0.2134 -0.4081
   20MOL   C48210400   5.060   2.487   1.563 -0.0029  0.6379 -0.4026
   20MOL   C48310401   5.140   2.399   1.495 -0.2680 -0.4066 -0.8845
   20MOL   C48410402   5.085   2.268   1.469 -0.5263 -0.8229  0.2192
   20MOL   H48510403   4.585   2.421   1.463 -2.1797 -2.8084 -0.0264
   20MOL   H48610404   4.653   2.529   1.568  0.5226 -0.5538 -1.0150
   20MOL   H48710405   4.555   2.275   1.678  0.7640 -0.5737 -0.1160
   20MOL   H48810406   4.993   1.955   1.396 -1.2078 -0.0647 -0.6562
   20MOL   H48910407   4.819   1.788   1.411 -2.3584 -0.9922 -1.7420
   20MOL   H49010408   4.603   1.845   1.502  0.6372 -0.5675  1.6639
   20MOL   H49110409   4.559   2.061   1.611  1.8870 -0.4380  1.6911
   20MOL   H49210410   4.862   2.530   1.654  0.3251 -2.0362  1.6265
   20MOL   H49310411   5.101   2.580   1.598  2.3236 -0.4230 -0.2040
   20MOL   H49410412   5.240   2.421   1.461  0.3856 -2.1746 -0.1729
   20MOL   H49510413   5.148   2.198   1.418  0.6193 -0.3980  1.0255
   20MOL   C49610414   4.660   2.403   1.803 -0.3701  0.0089  0.4475
   20MOL   C49710415   4.755   2.329   1.902  0.3121 -0.7522  0.3369
   20MOL   N49810416   4.737   2.184   1.900 -0.0430 -0.1124  0.3856
   20MOL   C49910417   4.619   2.119   1.932 -0.1694 -0.6996  0.6831
   20MOL   C50010418   4.638   1.978   1.922  0.0524  0.2432  0.0464
   20MOL   C50110419   4.529   1.891   1.957  0.4498 -0.1719  0.3385
   20MOL   C50210420   4.401   1.940   1.995 -0.5688 -0.1303 -1.2315
   20MOL   C50310421   4.382   2.075   2.002  0.1424 -0.6657  0.1030
   20MOL   C50410422   4.491   2.164   1.973 -0.1197  0.2345  0.2108
   20MOL   C50510423   4.771   1.956   1.880 -0.0461 -0.6136 -0.2645
   20MOL   C50610424   4.829   2.084   1.869 -0.1605  0.0628 -0.1889
   20MOL   C50710425   4.962   2.100   1.829 -0.8671 -0.4067 -0.5786
   20MOL   C50810426   5.036   1.988   1.793  0.6174 -0.6331  0.1159
   20MOL   C50910427   4.983   1.860   1.807 -0.2991 -0.4531 -0.0635
   20MOL   C51010428   4.850   1.846   1.847  0.3851  0.5474  0.1202
   20MOL   H51110429   4.692   2.506   1.789  2.3340 -0.6315  1.4752
   20MOL   H51210430   4.561   2.415   1.847 -0.9676  0.0417 -0.8765
   20MOL   H51310431   4.726   2.371   1.999  0.5785 -2.5956  1.2466
   20MOL   H51410432   4.544   1.785   1.945  0.6204 -0.0637 -0.4420
   20MOL   H51510433   4.326   1.869   2.027 -0.1481 -0.4917 -1.0413
   20MOL   H51610434   4.298   2.119   2.055  0.0718 -1.1183  0.3711
   20MOL   H51710435   4.477   2.271   1.977  1.3627  0.4242  0.5832
   20MOL   H51810436   5.021   2.191   1.837 -1.7301 -0.0737  2.6387
   20MOL   H51910437   5.138   2.010   1.766  0.6737 -1.4047 -0.3162
   20MOL   H52010438   5.040   1.774   1.776  0.1002 -0.3658  0.4193
   20MOL   H52110439   4.811   1.746   1.858  1.2603  0.2242  0.3278
   20MOL   H52210440   4.861   2.348   1.888  0.0031  0.5897 -0.3031
   21MOL     C110441   7.290   6.840   2.540 -0.2700  0.0167  1.0415
   21MOL     C210442   7.275   6.695   2.488 -0.3995 -0.5591 -0.2180
   21MOL     N310443   7.159   6.682   2.402 -0.5828  0.2114  0.3572
   21MOL     C410444   7.042   6.603   2.422  0.6138 -0.4857 -0.1084
   21MOL     C510445   6.949   6.639   2.319 -0.2262  0.2502  0.6421
   21MOL     C610446   6.825   6.580   2.314 -0.1021 -0.0362 -0.0248
   21MOL     C710447   6.793   6.481   2.414  0.3360 -0.0268 -0.3981
   21MOL     C810448   6.886   6.437   2.511 -0.3964  0.3214 -0.1973
   21MOL     C910449   7.011   6.508   2.520 -0.0337 -0.2756 -0.1406
   21MOL    C1010450   7.015   6.733   2.236  0.4969 -0.1629 -0.3371
   21MOL    C1110451   7.140   6.757   2.287  0.6521 -0.3752 -0.2519
   21MOL    C1210452   7.229   6.849   2.225  0.1633  0.3074 -0.7868
   21MOL    C1310453   7.187   6.920   2.112  0.4853  0.5911  0.0566
   21MOL    C1410454   7.061   6.892   2.061  0.5163 -0.6254  0.0694
   21MOL    C1510455   6.977   6.796   2.117  0.4741 -0.0180 -0.9062
   21MOL    H1610456   7.362   6.848   2.621 -0.0419 -0.5403  0.8939
   21MOL    H1710457   7.190   6.875   2.566 -0.1320  1.8124 -0.7340
   21MOL    H1810458   7.240   6.633   2.571  2.1563 -2.7360 -0.6955
   21MOL    H1910459   6.766   6.610   2.229  1.0188  1.7741 -0.1947
   21MOL    H2010460   6.700   6.428   2.400  0.1519 -0.3010  1.6282
   21MOL    H2110461   6.853   6.361   2.581 -2.4745  0.7757 -0.6563
   21MOL    H2210462   7.088   6.483   2.592 -1.4539 -1.2954  1.0697
   21MOL    H2310463   7.333   6.859   2.253 -0.3715 -0.9427  1.7349
   21MOL    H2410464   7.252   6.987   2.059  0.8203  1.5011  1.5864
   21MOL    H2510465   7.025   6.941   1.972 -1.1516 -2.0747 -0.0712
   21MOL    H2610466   6.882   6.780   2.068 -0.0063  1.1077 -0.3623
   21MOL    H2710467   7.324   6.908   2.462 -2.5245  1.0227  0.9100
   21MOL    C2810468   7.405   6.620   2.439 -0.1696  0.0608  0.3067
   21MOL    C2910469   7.456   6.527   2.556 -0.5136  0.1158 -0.0074
   21MOL    N3010470   7.369   6.409   2.573  0.5022  0.3938 -0.5547
   21MOL    C3110471   7.283   6.385   2.680 -0.1741  0.4118  0.3075
   21MOL    C3210472   7.218   6.260   2.659  0.0761  0.1548 -0.5946
   21MOL    C3310473   7.111   6.228   2.748 -0.1209 -0.3291  0.3713
   21MOL    C3410474   7.076   6.313   2.857  0.3241  0.1968 -0.2824
   21MOL    C3510475   7.148   6.431   2.875  0.3262  0.2910 -0.6650
   21MOL    C3610476   7.247   6.470   2.786 -0.1230  0.3003 -0.7252
   21MOL    C3710477   7.277   6.204   2.541  0.7391 -0.0247 -0.6528
   21MOL    C3810478   7.364   6.298   2.489  0.0512 -0.4186 -0.1265
   21MOL    C3910479   7.422   6.274   2.356  0.3183 -0.2370  0.4363
   21MOL    C4010480   7.400   6.156   2.287  0.0652 -1.1442  0.8394
   21MOL    C4110481   7.314   6.065   2.344  0.0905  0.0342 -0.5695
   21MOL    C4210482   7.243   6.089   2.465  0.2341  0.2408 -0.1262
   21MOL    H4310483   7.395   6.566   2.345 -2.5856  0.7229  0.1424
   21MOL    H4410484   7.474   6.700   2.412 -1.7833  1.7400  1.0571
   21MOL    H4510485   7.452   6.584   2.649  0.7360  2.2241 -1.2072
   21MOL    H4610486   7.065   6.134   2.725  0.4496 -0.8880  1.4344
   21MOL    H4710487   7.002   6.291   2.932 -2.0097  1.6240 -2.1085
   21MOL    H4810488   7.133   6.492   2.963  1.3850 -3.6516  2.3958
   21MOL    H4910489   7.295   6.566   2.795 -0.9003  0.6798 -0.5557
   21MOL    H5010490   7.475   6.350   2.300 -0.8714 -0.3924 -0.9487
   21MOL    H5110491   7.450   6.155   2.192  0.3296 -1.1103  0.9768
   21MOL    H5210492   7.293   5.978   2.284  1.1056  0.4518 -1.5505
   21MOL    H5310493   7.160   6.028   2.498 -0.5319  0.6147 -1.3281
   21MOL    C5410494   7.602   6.488   2.545 -0.6025  0.5810 -0.5893
   21MOL    C5510495   7.703   6.602   2.575 -0.2636  0.3558 -0.0355
   21MOL    N5610496   7.688   6.671   2.705  0.0887 -0.1418 -0.3842
   21MOL    C5710497   7.673   6.813   2.717  0.6001 -0.1535 -0.0668
   21MOL    C5810498   7.652   6.850   2.851  0.0621  0.3262  0.2576
   21MOL    C5910499   7.613   6.983   2.875  0.3990 -0.1269 -0.3855
   21MOL    C6010500   7.578   7.068   2.771 -0.0143  0.2283 -0.6622
   21MOL    C6110501   7.604   7.035   2.639 -0.6520  0.9744  0.3280
   21MOL    C6210502   7.655   6.906   2.610 -0.2061  0.2934 -0.7230
   21MOL    C6310503   7.668   6.729   2.930  0.3065  0.2859 -0.2626
   21MOL    C6410504   7.688   6.621   2.838 -0.0548  0.1045 -0.1686
   21MOL    C6510505   7.710   6.489   2.889  0.3077  0.4282  0.4974
   21MOL    C6610506   7.715   6.474   3.026  0.2885  0.5213 -1.1849
   21MOL    C6710507   7.703   6.580   3.121 -0.3118 -0.0683  0.5321
   21MOL    C6810508   7.668   6.708   3.072 -0.3778 -0.7190 -0.0361
   21MOL    H6910509   7.625   6.402   2.608 -1.7708 -1.3579 -2.7267
   21MOL    H7010510   7.627   6.450   2.446  2.0984  0.4838  0.1000
   21MOL    H7110511   7.685   6.668   2.490  0.8610 -0.6989 -1.1098
   21MOL    H7210512   7.587   7.002   2.978  1.2085 -1.5850  0.1005
   21MOL    H7310513   7.539   7.161   2.808  2.4621  0.0926  2.4100
   21MOL    H7410514   7.596   7.108   2.560  1.3077  0.0100 -0.7744
   21MOL    H7510515   7.680   6.874   2.510 -0.7981 -2.8580  0.0814
   21MOL    H7610516   7.714   6.405   2.821  0.7242  0.5436  0.3774
   21MOL    H7710517   7.723   6.371   3.057  0.8533  0.7980 -0.3695
   21MOL    H7810518   7.687   6.566   3.227 -0.3763  0.8927  0.6545
   21MOL    H7910519   7.657   6.792   3.139 -0.6415 -0.0316 -0.9210
   21MOL    C8010520   7.848   6.554   2.570 -0.4450  0.4816  0.3492
   21MOL    C8110521   7.900   6.505   2.434 -0.6960 -0.0094  0.4131
   21MOL    N8210522   7.903   6.608   2.327  0.3555  0.4227  0.2473
   21MOL    C8310523   7.831   6.595   2.211 -0.4962  0.0897  0.2238
   21MOL    C8410524   7.870   6.696   2.121 -0.1153 -0.2260 -0.3424
   21MOL    C8510525   7.818   6.696   1.992 -0.4938 -0.2367  0.2422
   21MOL    C8610526   7.734   6.597   1.938 -0.3294 -0.5543 -0.1756
   21MOL    C8710527   7.681   6.498   2.027  0.2437 -0.0056  0.3235
   21MOL    C8810528   7.736   6.496   2.159  0.1623  0.1886 -0.8936
   21MOL    C8910529   7.961   6.782   2.194  0.6477  0.1213  0.7610
   21MOL    C9010530   7.974   6.731   2.324 -1.2630 -0.2261 -0.2547
   21MOL    C9110531   8.054   6.802   2.421 -0.0839  0.1725  0.3210
   21MOL    C9210532   8.121   6.919   2.382  0.0693 -0.0449 -0.0265
   21MOL    C9310533   8.092   6.975   2.258  0.3498  0.2377  0.1321
   21MOL    C9410534   8.020   6.905   2.158 -0.6501 -0.3207  0.2715
   21MOL    H9510535   7.914   6.632   2.608 -0.6993  0.0966  1.6041
   21MOL    H9610536   7.872   6.476   2.642 -1.9358  0.0800  0.4143
   21MOL    H9710537   7.833   6.426   2.399  1.0969 -0.5934 -1.8383
   21MOL    H9810538   7.840   6.779   1.926  1.9204 -0.5930  0.5391
   21MOL    H9910539   7.697   6.614   1.838  1.2293  1.6215 -0.3982
   21MOL   H10010540   7.609   6.426   1.989 -0.1779  0.4681  0.2196
   21MOL   H10110541   7.706   6.412   2.221 -1.8043  0.9686 -0.7536
   21MOL   H10210542   8.067   6.761   2.520 -2.1723 -1.5390 -0.0809
   21MOL   H10310543   8.194   6.966   2.446 -0.4851 -0.6935  1.0948
   21MOL   H10410544   8.142   7.069   2.241 -1.5635  0.9236 -2.0825
   21MOL   H10510545   8.017   6.933   2.054  0.6653  1.8763  0.7910
   21MOL   C10610546   8.033   6.428   2.444  0.3380  0.9070  0.1063
   21MOL   C10710547   8.049   6.303   2.352 -0.0957 -0.0251  0.1724
   21MOL   N10810548   8.063   6.339   2.208  0.5844  0.1612 -0.1844
   21MOL   C10910549   7.980   6.290   2.109  0.2580 -0.0755  0.6013
   21MOL   C11010550   8.013   6.354   1.983 -0.0215  0.4583  0.6898
   21MOL   C11110551   7.940   6.317   1.863 -1.0543  0.1012 -0.7480
   21MOL   C11210552   7.850   6.207   1.862  1.1801  0.2638 -0.6887
   21MOL   C11310553   7.811   6.152   1.991 -0.0387  0.3564  0.4061
   21MOL   C11410554   7.879   6.193   2.110  0.6819  0.4549 -0.4665
   21MOL   C11510555   8.128   6.432   2.011 -0.2845 -0.3918  0.0659
   21MOL   C11610556   8.161   6.423   2.150  0.1531  0.0864 -0.2998
   21MOL   C11710557   0.042   6.502   2.203  0.3108  0.7062 -0.2338
   21MOL   C11810558   0.129   6.568   2.112 -0.4389 -0.1697  0.5172
   21MOL   C11910559   0.106   6.562   1.970  0.6239  0.3514  0.1306
   21MOL   C12010560   8.222   6.492   1.925  0.4502  0.3866 -0.0201
   21MOL   H12110561   8.117   6.498   2.438  1.4412 -0.2737  1.4838
   21MOL   H12210562   8.050   6.398   2.547 -1.3558 -2.5614 -0.5276
   21MOL   H12310563   7.962   6.239   2.368 -0.5527  0.8104  1.1343
   21MOL   H12410564   7.972   6.371   1.776 -0.4184 -0.0380 -0.5992
   21MOL   H12510565   7.788   6.184   1.776 -1.3209  0.7468  0.9427
   21MOL   H12610566   7.738   6.073   1.991  3.6749 -3.2609  3.2386
   21MOL   H12710567   7.856   6.143   2.203  0.7881  1.5797  0.1796
   21MOL   H12810568   0.058   6.516   2.308 -0.1607  0.8971 -0.1861
   21MOL   H12910569   0.220   6.622   2.133 -0.0326 -0.8845  0.6071
   21MOL   H13010570   0.170   6.601   1.893  1.5192  1.7338  1.5401
   21MOL   H13110571   8.197   6.475   1.822 -1.2463 -0.2649  0.4868
   21MOL   C13210572   8.172   6.214   2.392 -0.2097 -0.2049  0.8009
   21MOL   C13310573   8.140   6.102   2.487 -0.3774  0.3466 -0.5969
   21MOL   N13410574   8.050   5.998   2.436  0.0619  0.6475  0.3331
   21MOL   C13510575   7.918   5.977   2.476  0.4604  0.1767 -0.3453
   21MOL   C13610576   7.864   5.869   2.396 -0.0597 -0.1976 -0.3742
   21MOL   C13710577   7.734   5.829   2.428  0.6832 -0.1928 -0.1697
   21MOL   C13810578   7.659   5.893   2.533 -0.1119 -0.1742 -0.6497
   21MOL   C13910579   7.714   5.994   2.611 -0.0737 -0.1626  0.2598
   21MOL   C14010580   7.844   6.041   2.576 -0.5422 -0.2115 -0.5317
   21MOL   C14110581   7.964   5.837   2.305  0.9181 -0.4832  0.4476
   21MOL   C14210582   8.082   5.918   2.324  0.1135  0.3154  0.1568
   21MOL   C14310583   8.187   5.904   2.230  0.0745 -0.2985 -0.2647
   21MOL   C14410584   8.188   5.803   2.131  0.1752 -0.3806 -0.1617
   21MOL   C14510585   8.080   5.716   2.124  0.0918  0.0611 -0.0582
   21MOL   C14610586   7.969   5.730   2.211  0.4548 -0.8746 -0.2574
   21MOL   H14710587   8.226   6.171   2.307  1.6001  2.1434  0.7102
   21MOL   H14810588   0.027   6.276   2.425 -0.3915  1.7019 -2.0864
   21MOL   H14910589   8.095   6.152   2.572  2.1981 -1.3826  1.8527
   21MOL   H15010590   7.692   5.739   2.385  1.0646 -1.0764  1.2592
   21MOL   H15110591   7.556   5.861   2.540 -0.2550 -0.2314 -2.6280
   21MOL   H15210592   7.655   6.036   2.692  1.1850  1.1846  0.4963
   21MOL   H15310593   7.885   6.115   2.643 -1.7956 -0.2558  0.3213
   21MOL   H15410594   0.039   5.977   2.239  1.6039 -2.1820  2.2061
   21MOL   H15510595   0.045   5.801   2.064  1.2973  3.3843  0.9904
   21MOL   H15610596   8.071   5.649   2.039  0.6178  1.2008 -1.0272
   21MOL   H15710597   7.891   5.655   2.212 -1.0776  0.6424 -1.4177
   21MOL   C15810598   0.031   6.029   2.554 -0.4082 -0.1117  0.7945
   21MOL   C15910599   0.117   6.107   2.644  0.1620 -0.2101  0.4676
   21MOL   N16010600   0.039   6.172   2.754  0.0465 -0.2068 -0.3672
   21MOL   C16110601   0.009   6.311   2.753 -0.3097  0.4340 -0.2059
   21MOL   C16210602   8.132   6.335   2.854 -0.0337  0.4449 -0.0698
   21MOL   C16310603   8.102   6.474   2.875  0.1288 -0.2346 -0.0352
   21MOL   C16410604   8.160   6.571   2.801  0.9162 -0.1389  0.0420
   21MOL   C16510605   0.021   6.542   2.694 -0.2898  0.3507  0.4605
   21MOL   C16610606   0.068   6.411   2.671  0.4198  0.6873 -0.2093
   21MOL   C16710607   8.099   6.210   2.915 -0.4810 -0.4656 -0.2654
   21MOL   C16810608   8.179   6.112   2.849 -0.0066  0.0121  0.4365
   21MOL   C16910609   8.165   5.975   2.890  0.0766  0.3949 -0.3100
   21MOL   C17010610   8.086   5.943   3.003  0.1233  0.6125  0.8005
   21MOL   C17110611   8.013   6.039   3.074  0.0642 -0.3063  0.9869
   21MOL   C17210612   8.022   6.171   3.025  0.0343 -0.0745  0.3777
   21MOL   H17310613   8.217   5.943   2.606 -2.7523 -0.3146 -1.2839
   21MOL   H17410614   0.089   5.975   2.479 -2.3085 -0.3954 -0.5194
   21MOL   H17510615   0.141   6.193   2.582 -0.4462 -0.9001 -0.7318
   21MOL   H17610616   8.027   6.506   2.946  0.2241 -2.5680  1.1494
   21MOL   H17710617   8.155   6.678   2.810  0.9862 -0.1591  0.3070
   21MOL   H17810618   0.063   6.623   2.637 -2.3628  0.2419 -1.2483
   21MOL   H17910619   0.143   6.390   2.596  1.6657 -0.1505  1.2537
   21MOL   H18010620   8.219   5.892   2.848 -0.7854  1.0569 -2.7946
   21MOL   H18110621   8.076   5.843   3.042 -0.6324  1.1188  1.9433
   21MOL   H18210622   7.947   6.038   3.159 -0.2358  0.3417  0.7643
   21MOL   H18310623   7.964   6.244   3.079 -2.4584 -1.7614  0.0834
   21MOL   C18410624   0.249   6.042   2.698  0.4924  0.1129  0.3763
   21MOL   C18510625   0.350   6.011   2.592 -0.3101 -0.6299  0.4663
   21MOL   N18610626   0.369   6.109   2.485  0.4090  0.0064 -0.5714
   21MOL   C18710627   0.365   6.072   2.355 -0.3154 -0.8099  0.8235
   21MOL   C18810628   0.395   6.191   2.278 -0.2550  0.3450  0.2516
   21MOL   C18910629   0.394   6.177   2.137 -0.3230 -0.0662 -0.8060
   21MOL   C19010630   0.358   6.060   2.072 -0.2557  0.0889  0.5373
   21MOL   C19110631   0.327   5.944   2.147  0.2532 -0.0662 -0.1985
   21MOL   C19210632   0.332   5.947   2.289  0.2471 -0.1449 -0.0688
   21MOL   C19310633   0.426   6.302   2.365  0.3858 -0.0795 -0.4287
   21MOL   C19410634   0.407   6.243   2.497  0.4315  0.0728 -0.0661
   21MOL   C19510635   0.437   6.322   2.608 -0.8546 -0.8522 -0.2963
   21MOL   C19610636   0.473   6.455   2.596 -0.7233 -0.4638  0.5266
   21MOL   C19710637   0.483   6.517   2.472  0.3484 -0.2837  0.2668
   21MOL   C19810638   0.461   6.441   2.353  1.0775  0.4167  0.5012
   21MOL   H19910639   0.287   6.114   2.771  0.3973  1.7715 -1.1621
   21MOL   H20010640   0.222   5.945   2.740 -0.2138  1.0353  2.1231
   21MOL   H20110641   0.320   5.915   2.550 -0.9960 -0.7180  1.1347
   21MOL   H20210642   0.426   6.259   2.074  0.1229  0.0904 -0.3787
   21MOL   H20310643   0.365   6.054   1.964 -4.6824  0.0996  0.1581
   21MOL   H20410644   0.295   5.854   2.095 -1.1583 -0.7289  1.7735
   21MOL   H20510645   0.301   5.866   2.354 -0.8641 -0.4245 -0.9502
   21MOL   H20610646   0.429   6.282   2.708  2.2019 -0.7144  0.0634
   21MOL   H20710647   0.501   6.514   2.682  0.7207  1.2812 -1.0806
   21MOL   H20810648   0.512   6.621   2.462  1.8278 -0.7271 -0.1456
   21MOL   H20910649   0.487   6.489   2.259 -0.5852  1.0399  0.3384
   21MOL   C21010650   0.491   5.980   2.643  0.0260  0.1730  0.9880
   21MOL   C21110651   0.500   5.843   2.715  0.0578  0.1780 -0.6617
   21MOL   N21210652   0.452   5.726   2.645 -0.8818  0.4747 -0.7829
   21MOL   C21310653   0.359   5.634   2.698  0.4230  0.1264 -0.1105
   21MOL   C21410654   0.346   5.532   2.605  0.0665  0.2428 -0.3397
   21MOL   C21510655   0.248   5.427   2.626  0.0040  0.0651 -0.0455
   21MOL   C21610656   0.176   5.435   2.747  0.6490 -0.9530  0.0716
   21MOL   C21710657   0.194   5.529   2.846  0.5249 -0.3709  0.1443
   21MOL   C21810658   0.291   5.629   2.823  0.4656  0.2363 -0.2431
   21MOL   C21910659   0.422   5.562   2.485  0.0039 -0.1122  0.2899
   21MOL   C22010660   0.500   5.676   2.525 -0.8999  0.3166  0.3929
   21MOL   C22110661   0.602   5.728   2.437  0.5316  0.3265 -0.8696
   21MOL   C22210662   0.622   5.669   2.316  0.2036  0.5020  0.4099
   21MOL   C22310663   0.533   5.573   2.271 -0.8319 -0.0225  0.1880
   21MOL   C22410664   0.428   5.520   2.352 -0.9505  0.1975 -0.4775
   21MOL   H22510665   0.554   5.978   2.555 -2.2801  0.0630 -0.6900
   21MOL   H22610666   0.531   6.061   2.705 -0.3735 -0.4884  2.1310
   21MOL   H22710667   0.435   5.861   2.801 -1.3493 -1.7364 -1.2926
   21MOL   H22810668   0.235   5.353   2.548  1.3054 -2.4032  2.0036
   21MOL   H22910669   0.102   5.357   2.759  0.4002 -0.7949 -0.4194
   21MOL   H23010670   0.138   5.526   2.938 -0.7629  2.9648 -0.4536
   21MOL   H23110671   0.303   5.714   2.889 -0.2118  0.0082  0.1733
   21MOL   H23210672   0.657   5.820   2.452  1.1860  0.0827 -1.7356
   21MOL   H23310673   0.701   5.710   2.255 -0.3683  3.0599  1.3226
   21MOL   H23410674   0.551   5.521   2.178 -0.8856  0.2823  0.0057
   21MOL   H23510675   0.370   5.438   2.312 -0.5213 -0.0071 -0.6790
   21MOL   C23610676   0.639   5.803   2.772 -0.0743 -0.3764 -0.1240
   21MOL   C23710677   0.715   5.907   2.856 -0.0515 -0.2814  0.6369
   21MOL   N23810678   0.622   5.980   2.942  0.4206  0.5634 -0.6185
   21MOL   C23910679   0.611   6.120   2.945 -1.1326 -0.0715  0.6447
   21MOL   C24010680   0.523   6.155   3.050 -0.2412 -0.0405  0.7849
   21MOL   C24110681   0.517   6.290   3.087 -0.0238  0.3832 -0.1154
   21MOL   C24210682   0.575   6.394   3.010 -0.6845 -0.5976  0.1752
   21MOL   C24310683   0.661   6.353   2.907  0.5177 -0.3690 -0.1554
   21MOL   C24410684   0.686   6.218   2.875  0.0108  0.6066  0.4028
   21MOL   C24510685   0.469   6.034   3.106  0.9778 -0.2817  0.7828
   21MOL   C24610686   0.529   5.925   3.036 -0.3213 -0.1300 -0.9907
   21MOL   C24710687   0.487   5.793   3.082 -0.8044 -0.4741 -0.3170
   21MOL   C24810688   0.401   5.767   3.190 -0.4270  0.0121  0.5639
   21MOL   C24910689   0.337   5.881   3.247 -0.0334  0.5497 -0.4312
   21MOL   C25010690   0.374   6.010   3.208 -0.3853  0.1438  0.4055
   21MOL   H25110691   0.620   5.720   2.840  1.5692  0.4045  1.3338
   21MOL   H25210692   0.707   5.757   2.700 -0.4790  1.2574 -1.6113
   21MOL   H25310693   0.754   5.985   2.791 -0.3676  0.8269  1.7568
   21MOL   H25410694   0.459   6.307   3.176  0.1803 -0.8939  0.2717
   21MOL   H25510695   0.553   6.498   3.025  1.4975  0.0697 -0.9398
   21MOL   H25610696   0.720   6.425   2.853  0.2653 -2.1441 -2.8867
   21MOL   H25710697   0.757   6.195   2.797 -0.5772  0.1641 -0.0103
   21MOL   H25810698   0.528   5.699   3.047 -1.1332 -1.1197  1.0099
   21MOL   H25910699   0.382   5.665   3.220  0.0577 -0.3565 -0.3627
   21MOL   H26010700   0.258   5.864   3.319 -1.1069 -0.9862 -1.9401
   21MOL   H26110701   0.319   6.089   3.257  0.5402  0.4396  0.9808
   21MOL   C26210702   0.823   5.848   2.943 -0.5337  0.1604  0.5603
   21MOL   C26310703   0.951   5.816   2.855  0.2096 -0.3341  0.0208
   21MOL   N26410704   1.027   5.933   2.797  0.6660 -0.1103  0.0059
   21MOL   C26510705   1.024   5.979   2.663  0.1338 -0.2030  0.6186
   21MOL   C26610706   1.092   6.100   2.652  0.4913  1.0199  0.0898
   21MOL   C26710707   1.100   6.162   2.522 -0.0330  0.2805  0.3441
   21MOL   C26810708   1.025   6.108   2.405 -0.6052 -0.1911  0.0184
   21MOL   C26910709   0.957   5.984   2.426 -0.1978 -0.8836  0.0523
   21MOL   C27010710   0.959   5.919   2.553  0.0779  0.1032 -0.2435
   21MOL   C27110711   1.138   6.136   2.786  0.9395  0.2692  0.9743
   21MOL   C27210712   1.098   6.025   2.875 -0.4392 -0.1005  0.5145
   21MOL   C27310713   1.112   6.037   3.015 -0.1724 -0.4832 -0.0071
   21MOL   C27410714   1.173   6.156   3.070 -0.0518  0.8380  0.9934
   21MOL   C27510715   1.215   6.261   2.986  0.0172  0.5346 -0.3182
   21MOL   C27610716   1.198   6.249   2.846 -0.2728 -0.0301 -0.3861
   21MOL   H27710717   0.845   5.920   3.021 -3.5977  0.4186  1.2328
   21MOL   H27810718   0.789   5.762   3.001 -1.2738 -0.7332 -1.1562
   21MOL   H27910719   0.919   5.759   2.767  2.9754 -1.7685 -0.1055
   21MOL   H28010720   1.146   6.260   2.525 -1.3457  0.8851  1.1548
   21MOL   H28110721   1.021   6.154   2.307  0.1942 -1.5712 -0.6773
   21MOL   H28210722   0.905   5.927   2.350 -1.7046 -2.2061  2.0307
   21MOL   H28310723   0.907   5.824   2.548  1.3748 -0.6553  0.3151
   21MOL   H28410724   1.066   5.963   3.079  3.8298 -1.2331  2.1612
   21MOL   H28510725   1.171   6.156   3.178  1.0865 -0.2711  1.0184
   21MOL   H28610726   1.252   6.351   3.031  3.4003 -1.2034  0.5383
   21MOL   H28710727   1.220   6.339   2.790  2.6891 -0.4462  0.0197
   21MOL   C28810728   1.048   5.722   2.931  1.0007  0.4951  0.3879
   21MOL   C28910729   0.992   5.572   2.972  0.4938 -0.1325  0.1440
   21MOL   N29010730   0.900   5.510   2.879  0.1733 -0.4322 -0.1569
   21MOL   C29110731   0.774   5.457   2.911 -0.0154  0.0660  1.0918
   21MOL   C29210732   0.707   5.411   2.794 -1.2844  0.0524  0.2351
   21MOL   C29310733   0.574   5.367   2.797 -0.2743  1.3510  0.1661
   21MOL   C29410734   0.506   5.372   2.922 -0.3706 -0.0311  0.1912
   21MOL   C29510735   0.571   5.418   3.040 -0.5927  0.1332  0.6147
   21MOL   C29610736   0.707   5.462   3.037 -0.1559 -0.2159 -0.0650
   21MOL   C29710737   0.806   5.423   2.681  0.3455 -0.0915 -0.3399
   21MOL   C29810738   0.920   5.483   2.746 -0.4476 -0.5019 -0.2087
   21MOL   C29910739   1.043   5.502   2.674  0.0452 -0.0893 -0.3151
   21MOL   C30010740   1.041   5.478   2.534  0.6795  0.5102 -0.0628
   21MOL   C30110741   0.926   5.421   2.474  0.4862 -0.9732 -0.4046
   21MOL   C30210742   0.806   5.393   2.546  0.1441  0.0763 -0.1042
   21MOL   H30310743   1.124   5.707   2.854  0.9366  1.0745  0.2146
   21MOL   H30410744   1.090   5.768   3.020 -0.5015  1.0406  0.8222
   21MOL   H30510745   0.932   5.607   3.056  0.6392  2.2090 -0.6836
   21MOL   H30610746   0.530   5.336   2.704 -0.0930  0.3238  0.4185
   21MOL   H30710747   0.407   5.330   2.933  0.2578 -1.8420 -0.9172
   21MOL   H30810748   0.527   5.405   3.138 -0.2971  0.1586  0.7513
   21MOL   H30910749   0.748   5.500   3.129  1.1027  0.3919 -0.8663
   21MOL   H31010750   1.134   5.537   2.721 -0.8675 -1.9309  2.9183
   21MOL   H31110751   1.137   5.502   2.490  0.5371 -1.0229 -1.2710
   21MOL   H31210752   0.931   5.382   2.373  2.1815  0.0255 -0.7304
   21MOL   H31310753   0.722   5.362   2.486 -0.4508  2.8286 -0.7708
   21MOL   C31410754   1.107   5.472   3.021 -0.0606  0.1970 -0.1458
   21MOL   C31510755   1.178   5.526   3.153  0.2346  0.0936  0.9524
   21MOL   N31610756   1.101   5.506   3.277  0.0153  0.3878  0.1533
   21MOL   C31710757   1.013   5.600   3.345 -0.0248  0.0836  0.2274
   21MOL   C31810758   0.965   5.549   3.469 -0.7661  0.1241  0.3903
   21MOL   C31910759   0.906   5.636   3.565  0.0590 -0.1083  0.0947
   21MOL   C32010760   0.874   5.773   3.527 -0.3084  0.3274 -0.9445
   21MOL   C32110761   0.905   5.809   3.391 -0.4394  0.5950 -0.4459
   21MOL   C32210762   0.985   5.732   3.308  0.2315 -0.5770  0.1925
   21MOL   C32310763   1.005   5.410   3.466  0.1010 -0.4509 -0.8927
   21MOL   C32410764   1.078   5.386   3.346  0.6269  0.4292 -0.0337
   21MOL   C32510765   1.103   5.256   3.312 -0.2596  0.0369 -0.1911
   21MOL   C32610766   1.085   5.152   3.403 -0.2859  0.1806  0.0612
   21MOL   C32710767   1.025   5.180   3.527  0.2816  0.2301 -0.1455
   21MOL   C32810768   0.987   5.308   3.563 -0.1319 -0.6514  0.0852
   21MOL   H32910769   1.066   5.372   3.029 -0.3726  0.4508  1.7677
   21MOL   H33010770   1.179   5.467   2.940 -0.1792  1.5302 -0.3552
   21MOL   H33110771   1.185   5.634   3.145 -2.7700  0.2019 -1.1513
   21MOL   H33210772   0.862   5.605   3.659  0.5722  0.3853  0.4960
   21MOL   H33310773   0.821   5.845   3.587 -0.7414 -0.4436 -0.3938
   21MOL   H33410774   0.879   5.906   3.351  1.8682  0.6092 -2.0272
   21MOL   H33510775   1.018   5.779   3.217  1.2094 -0.2767  0.6997
   21MOL   H33610776   1.132   5.236   3.210 -4.3947 -0.2774 -1.3879
   21MOL   H33710777   1.102   5.048   3.381 -2.0361 -0.1917  0.3639
   21MOL   H33810778   1.015   5.105   3.604  0.6316  1.7314  1.3963
   21MOL   H33910779   0.951   5.331   3.663  0.9035 -3.3986  1.1294
   21MOL   C34010780   1.322   5.466   3.171  0.0703 -0.1370  0.1447
   21MOL   C34110781   1.429   5.502   3.065 -0.2555  0.2700  0.0438
   21MOL   N34210782   1.443   5.651   3.057  0.7540 -0.3603 -0.5841
   21MOL   C34310783   1.426   5.729   2.946  0.4331 -0.5469  0.4872
   21MOL   C34410784   1.449   5.864   2.975  0.0827 -0.3581 -0.4447
   21MOL   C34510785   1.439   5.958   2.865 -0.3895  0.0250  0.0051
   21MOL   C34610786   1.409   5.916   2.732  0.6700  0.4695  0.6331
   21MOL   C34710787   1.383   5.776   2.711  0.0308  0.8685  0.4420
   21MOL   C34810788   1.384   5.687   2.820  0.4375  0.4381  0.1808
   21MOL   C34910789   1.492   5.865   3.114 -0.5629 -0.0356 -0.1952
   21MOL   C35010790   1.495   5.730   3.158 -0.2359  0.3829  0.6339
   21MOL   C35110791   1.540   5.692   3.290 -0.3027 -0.0796 -0.1753
   21MOL   C35210792   1.591   5.794   3.369 -0.1181  0.3279 -0.7799
   21MOL   C35310793   1.593   5.928   3.332 -0.4557  0.1920  0.6140
   21MOL   C35410794   1.542   5.963   3.205 -0.2281 -0.7521  0.3986
   21MOL   H35510795   1.360   5.500   3.267  1.0602 -3.1065  0.8761
   21MOL   H35610796   1.317   5.358   3.184  2.8720 -0.0992  1.8007
   21MOL   H35710797   1.390   5.477   2.966  0.2591  2.1127 -0.6327
   21MOL   H35810798   1.459   6.062   2.889  0.4441 -0.1406  0.0423
   21MOL   H35910799   1.413   5.987   2.650 -1.7543  0.2724  0.3236
   21MOL   H36010800   1.367   5.736   2.612  2.5862 -0.9717  0.7031
   21MOL   H36110801   1.374   5.581   2.800  1.3415  0.1832  1.0093
   21MOL   H36210802   1.540   5.596   3.339  0.1803  0.7556  1.4902
   21MOL   H36310803   1.624   5.768   3.469 -0.4820  1.4968 -0.3551
   21MOL   H36410804   1.647   5.998   3.394  1.4994 -1.3566  0.6766
   21MOL   H36510805   1.542   6.065   3.171 -2.2435 -0.5071  1.0778
   21MOL   C36610806   1.559   5.425   3.064  0.0567 -0.4006 -0.0572
   21MOL   C36710807   1.553   5.268   3.057 -0.7950 -0.6756 -0.4189
   21MOL   N36810808   1.445   5.225   2.962  0.5423 -0.2704 -0.1804
   21MOL   C36910809   1.346   5.132   2.999  0.6304 -0.9506  0.1521
   21MOL   C37010810   1.264   5.106   2.883  0.1477  0.3613 -0.7074
   21MOL   C37110811   1.155   5.015   2.902  0.2973  0.3730  0.2381
   21MOL   C37210812   1.151   4.937   3.018 -0.0110 -0.0916  0.0127
   21MOL   C37310813   1.242   4.955   3.128  0.4146  0.5548 -0.1318
   21MOL   C37410814   1.337   5.055   3.117  0.3678 -0.1654  0.4367
   21MOL   C37510815   1.317   5.182   2.776 -0.1525  0.0071  0.0584
   21MOL   C37610816   1.426   5.257   2.825 -0.0316 -0.0732  0.2754
   21MOL   C37710817   1.498   5.338   2.737 -0.4158  0.4243 -0.1396
   21MOL   C37810818   1.463   5.366   2.605 -0.5934  0.5177  0.1591
   21MOL   C37910819   1.352   5.291   2.554  0.6109 -0.3766 -0.5128
   21MOL   C38010820   1.281   5.208   2.640  0.0050 -0.2466 -0.3438
   21MOL   H38110821   1.618   5.462   2.980  1.6257 -1.9267  0.3362
   21MOL   H38210822   1.620   5.454   3.150  0.8804 -0.7484 -0.5207
   21MOL   H38310823   1.536   5.232   3.159  4.2434 -0.8447  0.4791
   21MOL   H38410824   1.084   5.000   2.822  2.3835 -0.3353 -1.5533
   21MOL   H38510825   1.066   4.872   3.029  0.3378 -0.6186 -0.3841
   21MOL   H38610826   1.236   4.902   3.222 -1.4255  0.8279 -0.0761
   21MOL   H38710827   1.400   5.076   3.202  0.6075 -0.3446  0.3069
   21MOL   H38810828   1.577   5.400   2.778 -0.8781  0.4673  0.7075
   21MOL   H38910829   1.518   5.438   2.547  0.4550 -0.2289  0.2145
   21MOL   H39010830   1.323   5.301   2.450 -1.5458  1.3058  0.2155
   21MOL   H39110831   1.195   5.155   2.602 -0.5901  1.2003 -1.0448
   21MOL   C39210832   1.692   5.204   3.020 -0.6028  0.6944 -0.7034
   21MOL   C39310833   1.805   5.227   3.121 -0.8080  0.4163  0.1146
   21MOL   N39410834   1.761   5.169   3.250  0.2666 -0.2179 -0.0759
   21MOL   C39510835   1.759   5.248   3.368 -0.7747  0.2983  0.3271
   21MOL   C39610836   1.724   5.164   3.475 -0.1656 -0.1725 -0.5593
   21MOL   C39710837   1.722   5.219   3.606  0.2425 -0.2839  0.0640
   21MOL   C39810838   1.758   5.352   3.633  0.9811 -0.4132  0.6843
   21MOL   C39910839   1.794   5.432   3.525 -0.0328 -0.1840 -0.8224
   21MOL   C40010840   1.787   5.384   3.391 -0.8691  0.4331 -0.3910
   21MOL   C40110841   1.715   5.034   3.421  0.4233  0.4203  0.2519
   21MOL   C40210842   1.724   5.042   3.279  0.4174 -0.7641  0.2257
   21MOL   C40310843   1.705   4.924   3.201 -0.4841  0.4095  0.2212
   21MOL   C40410844   1.692   4.797   3.262 -0.1239  0.0101 -0.1222
   21MOL   C40510845   1.674   4.790   3.400 -0.1063  0.2950  0.0633
   21MOL   C40610846   1.689   4.904   3.478 -0.1115 -0.0159 -0.7059
   21MOL   H40710847   1.670   5.098   3.005 -0.9177  0.7411 -0.5787
   21MOL   H40810848   1.733   5.238   2.926  0.3247  2.1827  0.2199
   21MOL   H40910849   1.814   5.335   3.130  0.0071  0.3158  0.6146
   21MOL   H41010850   1.699   5.161   3.695 -1.4931 -0.5986 -0.5598
   21MOL   H41110851   1.748   5.396   3.731 -0.5913 -0.6254  0.6395
   21MOL   H41210852   1.820   5.536   3.544 -0.1277 -0.2113 -0.5444
   21MOL   H41310853   1.816   5.453   3.313  0.5716  0.3171  0.0221
   21MOL   H41410854   1.719   4.924   3.093 -2.9632 -1.8772 -0.1494
   21MOL   H41510855   1.685   4.708   3.202  1.7858  0.6973 -1.4542
   21MOL   H41610856   1.662   4.693   3.446 -0.3310 -0.2972 -1.2239
   21MOL   H41710857   1.679   4.901   3.586  0.7426 -1.0760 -0.6431
   21MOL   C41810858   1.944   5.180   3.080  0.0333  0.4640  0.4248
   21MOL   C41910859   2.029   5.273   2.998  0.0762  0.2909 -0.2540
   21MOL   N42010860   2.000   5.421   3.017 -0.7269  0.2570 -0.6188
   21MOL   C42110861   1.923   5.505   2.932 -0.5928 -0.2361 -0.3690
   21MOL   C42210862   1.909   5.633   2.995 -0.4062 -0.4416  0.0492
   21MOL   C42310863   1.832   5.732   2.928  0.0481  0.1875 -0.1677
   21MOL   C42410864   1.772   5.702   2.800  0.1445 -0.2186  0.3561
   21MOL   C42510865   1.804   5.586   2.736 -0.6941  0.1672  0.2473
   21MOL   C42610866   1.873   5.484   2.807 -0.4577  0.4859  0.1965
   21MOL   C42710867   1.976   5.627   3.120  0.1807  0.5403 -0.2125
   21MOL   C42810868   2.029   5.493   3.133  0.9587  0.3003 -0.4540
   21MOL   C42910869   2.091   5.448   3.255 -0.1096 -0.2015  0.4552
   21MOL   C43010870   2.111   5.545   3.355  0.9012 -0.7430  0.4461
   21MOL   C43110871   2.070   5.677   3.339 -0.1779  0.3509  0.5864
   21MOL   C43210872   1.995   5.717   3.227  0.5347  0.2512  0.3075
   21MOL   H43310873   2.006   5.160   3.167 -1.1544 -0.7418  1.0139
   21MOL   H43410874   1.965   5.079   3.045 -0.1121  0.0856  1.4188
   21MOL   H43510875   2.007   5.253   2.893  1.8009 -0.4699 -0.4949
   21MOL   H43610876   1.809   5.823   2.980 -1.2867  0.6512 -1.5161
   21MOL   H43710877   1.691   5.759   2.758  0.6003  1.0436  1.1720
   21MOL   H43810878   1.763   5.567   2.637  0.0314  3.3382 -0.7152
   21MOL   H43910879   1.880   5.386   2.761 -1.1658  0.9010 -0.8246
   21MOL   H44010880   2.122   5.345   3.270  0.7031 -0.0341  0.0026
   21MOL   H44110881   2.147   5.522   3.454  0.5034  1.1717  1.0606
   21MOL   H44210882   2.080   5.736   3.429 -1.6505  2.0600 -0.3344
   21MOL   H44310883   1.945   5.812   3.233 -0.5769 -0.2677 -0.5242
   21MOL   C44410884   2.179   5.245   3.009 -0.0448 -0.0661 -0.4905
   21MOL   C44510885   2.284   5.345   2.946 -0.3434 -0.0947  0.0903
   21MOL   N44610886   2.420   5.302   2.977 -0.5734 -0.4711 -0.3581
   21MOL   C44710887   2.518   5.378   3.037  0.0990  0.1554  0.0975
   21MOL   C44810888   2.635   5.293   3.066 -0.4126 -0.4888 -0.5888
   21MOL   C44910889   2.745   5.361   3.132 -0.3258  0.0277  0.3317
   21MOL   C45010890   2.740   5.500   3.165 -0.0623  0.1989 -0.2819
   21MOL   C45110891   2.621   5.570   3.143  0.1714  0.6975  0.4713
   21MOL   C45210892   2.510   5.513   3.081  0.7250  0.0671  0.7552
   21MOL   C45310893   2.613   5.170   2.996 -0.5770 -0.2252  0.1932
   21MOL   C45410894   2.477   5.175   2.943 -0.2022 -0.3368  0.3917
   21MOL   C45510895   2.423   5.064   2.872  0.2981 -0.6939  0.8690
   21MOL   C45610896   2.492   4.939   2.861 -0.0948  0.3295 -0.5517
   21MOL   C45710897   2.623   4.938   2.909 -0.1379  0.0199  0.2040
   21MOL   C45810898   2.685   5.053   2.961  0.1283  0.4222  0.0618
   21MOL   H45910899   2.210   5.226   3.112 -0.4466  0.3344 -0.2905
   21MOL   H46010900   2.186   5.142   2.974 -0.8311 -0.7743  1.3621
   21MOL   H46110901   2.262   5.440   2.994  0.1657 -0.6786  1.5329
   21MOL   H46210902   2.837   5.309   3.150 -1.1350 -1.4820  0.1523
   21MOL   H46310903   2.830   5.555   3.187  2.0631 -3.2175  0.0845
   21MOL   H46410904   2.628   5.677   3.156  0.5175  1.1023 -2.6343
   21MOL   H46510905   2.423   5.570   3.053  0.2761 -0.2659  1.4587
   21MOL   H46610906   2.321   5.059   2.836 -0.9041  0.0291  3.9967
   21MOL   H46710907   2.445   4.847   2.832 -0.2755  0.4100 -0.5114
   21MOL   H46810908   2.677   4.845   2.898  1.7603  1.1868 -0.5776
   21MOL   H46910909   2.791   5.046   2.981 -0.2781 -1.6791  1.6771
   21MOL   C47010910   2.259   5.354   2.793 -0.0530 -0.4890 -0.1759
   21MOL   C47110911   2.358   5.424   2.695  0.3299 -0.5904  0.3003
   21MOL   N47210912   2.331   5.404   2.556 -1.0350  0.2518 -0.2940
   21MOL   C47310913   2.414   5.331   2.469  0.2279  0.0784 -0.6355
   21MOL   C47410914   2.367   5.347   2.336  0.0618 -0.1789  0.2056
   21MOL   C47510915   2.451   5.301   2.224  0.0969 -0.0672 -0.8677
   21MOL   C47610916   2.570   5.229   2.252 -0.1067  0.0368  0.5612
   21MOL   C47710917   2.613   5.217   2.385  0.4889 -0.0384 -0.7485
   21MOL   C47810918   2.538   5.265   2.490  0.1257 -1.0498 -0.0975
   21MOL   C47910919   2.238   5.413   2.346  0.1791 -0.4254 -1.0176
   21MOL   C48010920   2.215   5.441   2.483  0.5820  0.0377  0.1012
   21MOL   C48110921   2.095   5.507   2.519  0.1734  0.5617 -0.1031
   21MOL   C48210922   1.997   5.547   2.428 -0.5221  0.4835  0.0157
   21MOL   C48310923   2.021   5.528   2.292  0.0450  0.2532  0.1550
   21MOL   C48410924   2.141   5.462   2.255 -0.4709 -0.3550  0.5412
   21MOL   H48510925   2.239   5.254   2.754 -0.2679 -1.2637  1.8651
   21MOL   H48610926   2.164   5.406   2.779 -1.0736 -1.9900  0.9069
   21MOL   H48710927   2.451   5.371   2.718 -0.2240 -0.8107  2.1004
   21MOL   H48810928   2.404   5.307   2.126 -2.0778  0.9344  0.1931
   21MOL   H48910929   2.623   5.184   2.169 -0.2392 -1.4577  1.2557
   21MOL   H49010930   2.699   5.153   2.402 -0.7039 -2.2393 -2.6800
   21MOL   H49110931   2.577   5.249   2.589  0.1260 -2.1873 -0.2722
   21MOL   H49210932   2.079   5.527   2.624  1.2428 -0.5183  0.2819
   21MOL   H49310933   1.908   5.598   2.463 -2.3217 -2.7287  0.3429
   21MOL   H49410934   1.956   5.567   2.215 -0.4412 -0.6753  0.0865
   21MOL   H49510935   2.148   5.449   2.148  1.7057 -1.4744  0.7869
   21MOL   C49610936   2.385   5.568   2.722  0.2881 -0.1203 -0.0476
   21MOL   C49710937   2.505   5.631   2.649 -0.5344 -0.3433  0.6977
   21MOL   N49810938   2.539   5.764   2.698 -0.4603 -0.6561  0.3057
   21MOL   C49910939   2.633   5.816   2.785  0.6606  0.5971 -0.6421
   21MOL   C50010940   2.622   5.958   2.794  0.1644 -0.0850  0.0495
   21MOL   C50110941   2.706   6.021   2.887  0.1714 -0.9585 -0.4505
   21MOL   C50210942   2.801   5.952   2.961 -0.7588 -0.0886 -0.2997
   21MOL   C50310943   2.813   5.811   2.945 -0.4906  0.2103 -0.0290
   21MOL   C50410944   2.730   5.743   2.856 -0.2411  0.6259 -0.3360
   21MOL   C50510945   2.527   5.993   2.696 -0.1546 -0.6418  0.1381
   21MOL   C50610946   2.465   5.874   2.647 -0.6410 -0.2940 -0.1695
   21MOL   C50710947   2.359   5.880   2.552  0.5583 -0.1242 -0.1974
   21MOL   C50810948   2.311   6.006   2.503  0.4006  0.4136 -0.5438
   21MOL   C50910949   2.377   6.127   2.544 -0.4377 -0.1024  0.4781
   21MOL   C51010950   2.477   6.117   2.645 -1.0018  0.1980  0.1770
   21MOL   H51110951   2.297   5.626   2.695  1.3524  1.8100  0.5587
   21MOL   H51210952   2.392   5.592   2.828  1.8899  1.2331 -0.4378
   21MOL   H51310953   2.497   5.631   2.540  0.6163  1.1719  0.5949
   21MOL   H51410954   2.705   6.128   2.899 -3.5273 -1.2213  2.6818
   21MOL   H51510955   2.862   5.988   3.042  0.3311 -4.9283  1.2191
   21MOL   H51610956   2.893   5.762   2.998  0.5205  0.5086 -1.2580
   21MOL   H51710957   2.744   5.637   2.840 -0.3583  0.3938  1.0956
   21MOL   H51810958   2.324   5.790   2.504  2.1699  0.4079 -2.4666
   21MOL   H51910959   2.237   6.002   2.425  1.7261  2.8758 -1.9956
   21MOL   H52010960   2.350   6.226   2.510 -0.9274 -0.1269  0.7810
   21MOL   H52110961   2.530   6.202   2.686  0.4154 -0.8425  0.5577
   21MOL   H52210962   2.596   5.574   2.671  1.0545  2.1092  0.7621
   22MOL     C110963   5.356   0.041   5.214 -0.2560 -0.5347 -0.2587
   22MOL     C210964   5.395   8.201   5.343 -0.0638 -0.5727 -0.1963
   22MOL     N310965   5.319   8.076   5.379 -0.4405  0.3247  0.0892
   22MOL     C410966   5.324   7.955   5.313  0.0865 -0.0623 -0.2428
   22MOL     C510967   5.248   7.857   5.390  1.0713 -0.6630 -0.4759
   22MOL     C610968   5.243   7.724   5.338  0.7541 -0.2175 -0.2286
   22MOL     C710969   5.302   7.690   5.213  0.1182  0.1420 -0.0553
   22MOL     C810970   5.377   7.790   5.144  0.2818 -0.2088 -0.1896
   22MOL     C910971   5.386   7.920   5.197  0.4922  0.1762  0.1898
   22MOL    C1010972   5.208   7.923   5.509  0.2949  0.0470 -0.2803
   22MOL    C1110973   5.251   8.058   5.507  1.1891  0.2619  0.2122
   22MOL    C1210974   5.221   8.143   5.616  0.3948  0.1014 -0.2749
   22MOL    C1310975   5.165   8.092   5.728  0.4227 -0.5639 -0.5558
   22MOL    C1410976   5.119   7.958   5.734 -0.1566 -0.3637  1.0413
   22MOL    C1510977   5.136   7.877   5.620 -0.7613  0.6581 -0.1747
   22MOL    H1610978   5.257   0.088   5.219 -1.0518 -2.0385 -1.3986
   22MOL    H1710979   5.354   8.197   5.132  0.9581 -2.1656  1.0843
   22MOL    H1810980   5.378   0.050   5.419 -4.1530  0.6448 -2.2358
   22MOL    H1910981   5.174   7.654   5.383  2.7532 -2.0890 -0.0006
   22MOL    H2010982   5.297   7.592   5.169  1.4330  0.7339 -1.5663
   22MOL    H2110983   5.438   7.775   5.055  0.2167 -1.2387 -0.0739
   22MOL    H2210984   5.431   7.997   5.137 -1.2687  1.7552  0.8029
   22MOL    H2310985   5.250   0.019   5.603 -0.0840  0.2253 -0.3703
   22MOL    H2410986   5.148   8.160   5.810 -0.6909 -2.1501  0.5614
   22MOL    H2510987   5.060   7.927   5.819  0.2835 -0.9991  1.1186
   22MOL    H2610988   5.106   7.775   5.601  0.3991  0.8809 -3.5079
   22MOL    H2710989   5.437   0.111   5.192  0.7470 -0.6457  2.8448
   22MOL    C2810990   5.550   8.169   5.345 -0.7193  0.2723 -0.1765
   22MOL    C2910991   5.652   0.056   5.349  0.1682 -0.2713  0.3340
   22MOL    N3010992   5.613   0.158   5.444  0.0047 -0.1129  0.3385
   22MOL    C3110993   5.589   0.289   5.404  0.5008  0.5888 -0.4490
   22MOL    C3210994   5.540   0.356   5.521  0.2740  0.1436  0.3938
   22MOL    C3310995   5.505   0.489   5.501 -0.4333  0.2302 -0.1539
   22MOL    C3410996   5.525   0.553   5.378 -0.3583  0.3226 -0.3729
   22MOL    C3510997   5.575   0.485   5.265  0.0394 -0.4880  0.5415
   22MOL    C3610998   5.605   0.348   5.277  0.2126  0.1252  0.1177
   22MOL    C3710999   5.539   0.266   5.632  0.1505  0.0524 -0.4490
   22MOL    C3811000   5.603   0.149   5.581 -0.0819  0.4355 -0.5549
   22MOL    C3911001   5.628   0.038   5.660  0.4578  0.2123 -0.4888
   22MOL    C4011002   5.604   0.048   5.803  0.0815  0.1295  0.3608
   22MOL    C4111003   5.542   0.166   5.854 -0.2252  0.5703  0.4170
   22MOL    C4211004   5.501   0.273   5.768 -0.8547  0.1370 -0.0672
   22MOL    H4311005   5.563   8.103   5.430 -2.1784 -1.3686 -1.1986
   22MOL    H4411006   5.574   8.105   5.260 -0.1443  1.0850 -0.6401
   22MOL    H4511007   5.657   0.096   5.248  1.8705 -1.1433  0.0460
   22MOL    H4611008   5.469   0.548   5.584 -1.7862 -0.1189 -0.4943
   22MOL    H4711009   5.493   0.655   5.367  1.5383  1.2423  2.0637
   22MOL    H4811010   5.574   0.526   5.165  1.5672 -0.1437  0.6531
   22MOL    H4911011   5.646   0.291   5.195  2.3719  0.3910  0.9866
   22MOL    H5011012   5.663   8.170   5.625  0.3185 -1.0221  2.5655
   22MOL    H5111013   5.623   8.198   5.877 -0.4661  0.5195  0.9128
   22MOL    H5211014   5.513   0.175   5.958  1.3641 -3.1906  1.2413
   22MOL    H5311015   5.455   0.363   5.805  1.0333  1.2913 -0.4427
   22MOL    C5411016   5.799   0.015   5.361  0.0977 -0.0237  0.1177
   22MOL    C5511017   5.861   8.171   5.242 -0.0175 -0.6022 -0.9619
   22MOL    N5611018   5.818   8.212   5.114  0.3597 -0.4128  0.7043
   22MOL    C5711019   5.756   8.138   5.016  1.1523  0.2357 -0.4726
   22MOL    C5811020   5.725   8.220   4.904 -0.6557  0.1987  0.5582
   22MOL    C5911021   5.661   8.166   4.787 -0.3207  0.1708 -0.3096
   22MOL    C6011022   5.627   8.032   4.785 -0.3362 -0.2733  0.2693
   22MOL    C6111023   5.645   7.955   4.899 -0.6916  0.0597  0.2668
   22MOL    C6211024   5.712   8.006   5.013 -0.1569 -0.7287 -0.5960
   22MOL    C6311025   5.774   0.123   4.934  0.3271  0.0801 -0.1450
   22MOL    C6411026   5.836   0.113   5.057  0.3033  0.3306 -0.5692
   22MOL    C6511027   5.897   0.224   5.116  0.0171 -0.5072  0.7735
   22MOL    C6611028   5.886   0.349   5.051  0.3224  1.0191  0.3808
   22MOL    C6711029   5.823   0.356   4.927 -0.3059 -0.1627 -0.2777
   22MOL    C6811030   5.772   0.241   4.864  0.2165  0.0060 -0.2286
   22MOL    H6911031   5.856   0.108   5.374 -0.7738  0.4642  0.5440
   22MOL    H7011032   5.818   8.179   5.447 -0.3800  0.0193  0.2565
   22MOL    H7111033   5.830   8.066   5.245  2.2817 -1.2596  1.7354
   22MOL    H7211034   5.641   8.219   4.695 -1.0745  1.1906  0.4323
   22MOL    H7311035   5.573   7.990   4.701 -1.5314 -0.7950  1.2919
   22MOL    H7411036   5.613   7.853   4.888 -0.4477 -0.1194  1.1953
   22MOL    H7511037   5.725   7.943   5.099  2.1791  0.1559 -0.2563
   22MOL    H7611038   5.945   0.210   5.211  1.0953 -3.6128 -0.1757
   22MOL    H7711039   5.927   0.443   5.082 -0.3144  1.3261  0.2995
   22MOL    H7811040   5.833   0.447   4.868  0.2132 -0.3018 -0.4083
   22MOL    H7911041   5.728   0.251   4.766  1.7979 -1.1786 -1.0903
   22MOL    C8011042   6.017   8.169   5.247 -0.6788 -1.1230  0.0218
   22MOL    C8111043   6.077   8.103   5.122 -0.5685  0.4557  0.3484
   22MOL    N8211044   6.131   8.201   5.027 -0.4297  0.1016  0.3936
   22MOL    C8311045   6.113   8.194   4.892 -0.7633 -0.5513  0.2429
   22MOL    C8411046   6.205   0.058   4.832  0.1883  0.9741  0.6840
   22MOL    C8511047   6.221   0.050   4.692  0.0946  0.1452  0.9136
   22MOL    C8611048   6.150   8.191   4.610  0.3883 -0.4199 -0.1295
   22MOL    C8711049   6.045   8.121   4.664  0.1723 -0.0714 -0.1271
   22MOL    C8811050   6.032   8.111   4.804 -0.1617  0.0237 -0.2966
   22MOL    C8911051   6.273   0.131   4.932 -0.3074  0.3269 -0.4895
   22MOL    C9011052   6.232   0.070   5.055  0.6594  0.3407  0.3351
   22MOL    C9111053   6.291   0.105   5.178  0.4424  0.2167  1.2449
   22MOL    C9211054   6.387   0.209   5.179  0.6889  0.2999  0.5258
   22MOL    C9311055   6.429   0.264   5.059 -0.3781 -0.1934 -0.1048
   22MOL    C9411056   6.380   0.227   4.935  0.4932 -0.3626 -0.6793
   22MOL    H9511057   6.043   0.046   5.267 -0.7512 -1.2940  1.0175
   22MOL    H9611058   6.038   8.106   5.333  0.3667 -0.7391  0.0623
   22MOL    H9711059   6.009   8.038   5.066  1.5586 -2.1783  0.7336
   22MOL    H9811060   6.298   0.115   4.652 -2.1246  0.4736 -3.1668
   22MOL    H9911061   6.164   8.198   4.503  1.8133  1.3491  0.1432
   22MOL   H10011062   5.985   8.057   4.602  0.7127 -2.0577  1.3406
   22MOL   H10111063   5.951   8.056   4.850 -0.3693  1.9992  1.8022
   22MOL   H10211064   6.260   0.059   5.271  0.3657  1.4398  1.8307
   22MOL   H10311065   6.439   0.218   5.273  0.7300 -0.5744  0.5948
   22MOL   H10411066   6.520   0.322   5.064  0.0899 -0.8524 -0.9025
   22MOL   H10511067   6.417   0.271   4.844  0.9035  0.7966  0.0361
   22MOL   C10611068   6.181   7.998   5.157 -0.7322  0.2842 -0.5256
   22MOL   C10711069   6.131   7.861   5.197 -0.0023  0.2856  0.3326
   22MOL   N10811070   6.056   7.792   5.090  0.0501  0.1311 -0.3930
   22MOL   C10911071   5.930   7.734   5.105  0.7098 -0.4427 -0.2873
   22MOL   C11011072   5.887   7.700   4.975 -0.3604 -0.3342  1.1667
   22MOL   C11111073   5.763   7.631   4.959 -0.9291 -0.6418  0.0971
   22MOL   C11211074   5.681   7.598   5.068 -1.0590 -0.4325  0.2389
   22MOL   C11311075   5.727   7.638   5.193 -0.6169  0.0254 -0.5290
   22MOL   C11411076   5.850   7.704   5.216 -0.0622  0.7337 -0.2950
   22MOL   C11511077   5.990   7.734   4.880  0.2948  0.5585 -0.4801
   22MOL   C11611078   6.098   7.775   4.956 -0.2032  0.2352  0.2586
   22MOL   C11711079   6.222   7.804   4.891  0.3753 -0.0083 -0.4697
   22MOL   C11811080   6.226   7.807   4.755 -0.2509  0.9720 -0.4325
   22MOL   C11911081   6.111   7.772   4.674  0.7411 -0.6730  0.5535
   22MOL   C12011082   6.001   7.727   4.743  0.2124  0.2219  0.5947
   22MOL   H12111083   6.256   7.993   5.078 -0.6111 -0.0992 -0.3874
   22MOL   H12211084   6.229   8.042   5.244  0.4403 -1.0908 -0.4609
   22MOL   H12311085   6.062   7.868   5.281 -1.6604 -0.9370 -0.8798
   22MOL   H12411086   5.729   7.589   4.866 -1.6486 -4.0132  1.7720
   22MOL   H12511087   5.590   7.541   5.056 -0.2748 -1.6445 -0.0473
   22MOL   H12611088   5.667   7.625   5.282  1.4265 -2.5123  0.5402
   22MOL   H12711089   5.883   7.726   5.316 -2.0886 -1.8894  0.9966
   22MOL   H12811090   6.309   7.802   4.955  0.1400 -1.5650 -0.1842
   22MOL   H12911091   6.311   7.833   4.695  0.2347 -0.6518 -0.4595
   22MOL   H13011092   6.115   7.777   4.566  1.2682  0.9240  0.6337
   22MOL   H13111093   5.917   7.698   4.681  0.7895 -1.5251  0.6003
   22MOL   C13211094   6.252   7.781   5.249  0.3151 -0.3868 -0.8992
   22MOL   C13311095   6.323   7.833   5.380 -0.7388  0.3420 -0.4401
   22MOL   N13411096   6.223   7.883   5.479 -0.1572  0.1177 -0.0917
   22MOL   C13511097   6.217   8.016   5.530  0.0777  0.3181 -0.5674
   22MOL   C13611098   6.090   8.035   5.598 -0.0948  0.3091  0.7352
   22MOL   C13711099   6.052   8.160   5.644 -0.9296 -0.4183  0.4514
   22MOL   C13811100   6.137   0.045   5.629 -0.1537  0.0569  0.2423
   22MOL   C13911101   6.258   0.030   5.560 -1.5506  0.2518 -0.4341
   22MOL   C14011102   6.303   8.131   5.518 -0.6570 -0.3114 -0.0006
   22MOL   C14111103   6.026   7.907   5.602 -0.2429  0.1735 -0.5708
   22MOL   C14211104   6.113   7.816   5.531  0.5873  0.4113 -0.0178
   22MOL   C14311105   6.077   7.673   5.523  0.9118 -0.0514 -0.7026
   22MOL   C14411106   5.947   7.630   5.565  0.0038  0.0907  0.7384
   22MOL   C14511107   5.874   7.717   5.643  0.0644  0.0489 -0.0931
   22MOL   C14611108   5.910   7.851   5.658 -0.6774  0.5418 -0.1107
   22MOL   H14711109   6.231   7.676   5.269 -0.1430  0.3491  2.8337
   22MOL   H14811110   6.328   7.784   5.170 -1.2822  0.9290 -2.4407
   22MOL   H14911111   6.375   7.925   5.353 -1.7469  0.4048 -2.2565
   22MOL   H15011112   5.959   8.187   5.693 -0.4678 -0.3659  1.3169
   22MOL   H15111113   6.103   0.142   5.664 -0.7497  0.3620 -1.1212
   22MOL   H15211114   6.332   0.108   5.550  1.6537 -2.8390 -1.9032
   22MOL   H15311115   6.402   8.131   5.474 -1.2342  0.9626 -1.3452
   22MOL   H15411116   6.153   7.617   5.471  0.5989 -0.0093 -1.2113
   22MOL   H15511117   5.928   7.524   5.555 -0.5875  0.1869  0.8634
   22MOL   H15611118   5.784   7.683   5.692 -1.8910  3.1437 -1.3539
   22MOL   H15711119   5.835   7.912   5.705  0.1472  0.9836  0.6463
   22MOL   C15811120   6.440   7.751   5.434  0.9229  0.5607  0.2618
   22MOL   C15911121   6.558   7.749   5.336 -0.1719  0.9977 -0.7189
   22MOL   N16011122   6.614   7.889   5.310  0.3375 -0.7294  0.0332
   22MOL   C16111123   6.642   7.948   5.188  0.6086 -0.4016  0.1644
   22MOL   C16211124   6.668   8.086   5.207  0.0903  0.7274 -0.8301
   22MOL   C16311125   6.677   8.166   5.091 -0.6330 -0.1893  0.4582
   22MOL   C16411126   6.662   8.112   4.961  0.0044 -0.4055 -0.6700
   22MOL   C16511127   6.644   7.974   4.951  0.1936 -0.0404 -0.8199
   22MOL   C16611128   6.631   7.891   5.066  0.4854 -0.3183  0.0312
   22MOL   C16711129   6.673   8.108   5.348  0.1032 -0.6140 -0.0532
   22MOL   C16811130   6.649   7.985   5.411 -1.2236 -0.8298 -0.7477
   22MOL   C16911131   6.665   7.978   5.554  0.3991 -0.2898 -0.1784
   22MOL   C17011132   6.698   8.090   5.629  0.3455 -0.5100  0.1648
   22MOL   C17111133   6.721   8.214   5.566 -0.4608 -0.1991 -0.3071
   22MOL   C17211134   6.703   8.222   5.422 -0.3195  0.4298 -0.4686
   22MOL   H17311135   6.470   7.789   5.532 -0.1053 -0.0323  0.8110
   22MOL   H17411136   6.406   7.648   5.442  0.4463  0.6219 -0.8597
   22MOL   H17511137   6.526   7.715   5.238 -0.7726  0.0787 -0.2052
   22MOL   H17611138   6.697   0.044   5.105  1.6018 -0.7111  1.4953
   22MOL   H17711139   6.685   8.165   4.870  0.0159  0.9518  0.1087
   22MOL   H17811140   6.643   7.927   4.854 -1.8771 -1.2941 -0.2293
   22MOL   H17911141   6.620   7.784   5.053 -1.3392  0.1458 -2.8078
   22MOL   H18011142   6.655   7.889   5.615 -1.7283  0.4898  0.6922
   22MOL   H18111143   6.715   8.091   5.736 -0.8672  2.5425  0.3707
   22MOL   H18211144   6.749   0.068   5.632  0.6286 -2.1040  1.6446
   22MOL   H18311145   6.709   0.094   5.380  0.4070  1.0365  1.0312
   22MOL   C18411146   6.666   7.645   5.375  0.0629 -0.0106 -0.1181
   22MOL   C18511147   6.632   7.492   5.368 -0.0893 -0.2540 -1.5463
   22MOL   N18611148   6.555   7.460   5.246  0.5007  0.2081  0.7782
   22MOL   C18711149   6.417   7.425   5.239  0.1447 -0.9442  0.4568
   22MOL   C18811150   6.377   7.417   5.104  0.2110 -0.4681 -0.5806
   22MOL   C18911151   6.245   7.388   5.070  0.4717  0.2881  0.3225
   22MOL   C19011152   6.153   7.354   5.168 -0.0009 -0.2931 -0.0740
   22MOL   C19111153   6.188   7.363   5.305 -0.2070  0.6124  0.2694
   22MOL   C19211154   6.320   7.396   5.341 -0.5905  0.2153  0.0394
   22MOL   C19311155   6.486   7.448   5.019 -0.7220 -0.0599 -0.2864
   22MOL   C19411156   6.591   7.481   5.113 -0.1719 -0.0492 -0.1869
   22MOL   C19511157   6.717   7.513   5.060 -0.4078 -1.2767  0.7913
   22MOL   C19611158   6.735   7.523   4.917  0.4239 -0.1149  0.5070
   22MOL   C19711159   6.626   7.490   4.827 -0.1458 -0.1001  0.2366
   22MOL   C19811160   6.506   7.451   4.880  0.0712  0.6097 -0.8086
   22MOL   H19911161   6.743   7.657   5.299 -1.3912  2.7660 -1.2439
   22MOL   H20011162   6.714   7.681   5.466  1.7049  1.0569 -1.3771
   22MOL   H20111163   6.570   7.465   5.453  3.1094 -0.2440  0.8988
   22MOL   H20211164   6.227   7.375   4.964 -1.9920 -0.1064  0.7689
   22MOL   H20311165   6.051   7.325   5.146 -0.2175  1.4322 -1.4158
   22MOL   H20411166   6.119   7.335   5.384 -0.9485  2.6604  0.3741
   22MOL   H20511167   6.339   7.379   5.446  0.2880  0.6722 -0.0403
   22MOL   H20611168   6.799   7.525   5.129 -0.6655 -0.1397  0.9135
   22MOL   H20711169   6.832   7.552   4.879 -0.8591  2.8868 -0.6279
   22MOL   H20811170   6.632   7.487   4.719  0.8360  4.1082  0.0710
   22MOL   H20911171   6.419   7.420   4.824 -0.1629 -0.7170  0.2247
   22MOL   C21011172   6.760   7.399   5.399  0.6177  0.4929 -0.3148
   22MOL   C21111173   6.833   7.423   5.541  0.2569  0.1906 -0.0074
   22MOL   N21211174   6.751   7.478   5.653  0.1340 -0.5199  0.6114
   22MOL   C21311175   6.773   7.594   5.732 -0.2594  0.0179 -0.2093
   22MOL   C21411176   6.657   7.622   5.809 -0.2885  0.1673  1.0821
   22MOL   C21511177   6.645   7.744   5.876  0.1281  0.4046  0.2414
   22MOL   C21611178   6.753   7.834   5.891 -0.0266  0.4105  0.1836
   22MOL   C21711179   6.872   7.795   5.829 -0.1943 -1.1086  0.0573
   22MOL   C21811180   6.880   7.692   5.735  0.5187 -0.6712 -0.1193
   22MOL   C21911181   6.572   7.511   5.791 -1.0475 -0.1342  0.3232
   22MOL   C22011182   6.627   7.426   5.693  0.1311  0.3320  0.3409
   22MOL   C22111183   6.560   7.304   5.660  0.4494  0.0980 -0.0666
   22MOL   C22211184   6.444   7.272   5.724  0.0802  0.7043 -0.3379
   22MOL   C22311185   6.395   7.349   5.827 -0.0689 -0.8243 -0.4808
   22MOL   C22411186   6.459   7.468   5.860 -0.3462  0.5246 -0.3362
   22MOL   H22511187   6.735   7.294   5.389  1.9054  0.1457 -0.0305
   22MOL   H22611188   6.823   7.417   5.312  0.5369 -0.3368 -0.5479
   22MOL   H22711189   6.899   7.504   5.511 -1.2588  1.7390  0.7662
   22MOL   H22811190   6.553   7.778   5.920 -1.8007 -1.4342 -2.2132
   22MOL   H22911191   6.748   7.915   5.962 -0.1767 -0.4564  1.1691
   22MOL   H23011192   6.959   7.859   5.834 -0.6215 -0.5376  0.1435
   22MOL   H23111193   6.970   7.665   5.683 -0.4608 -1.9726 -1.1769
   22MOL   H23211194   6.602   7.247   5.579 -0.9827 -1.2819  0.1450
   22MOL   H23311195   6.387   7.185   5.693  1.5590 -0.5969  0.4765
   22MOL   H23411196   6.313   7.322   5.893  0.1811 -2.3813 -0.7696
   22MOL   H23511197   6.437   7.526   5.949 -2.8522  0.4195 -0.8619
   22MOL   C23611198   6.920   7.304   5.585  0.0793 -0.3445  0.6006
   22MOL   C23711199   7.012   7.244   5.471 -0.2614 -0.6413  0.2243
   22MOL   N23811200   7.077   7.346   5.393 -0.2114  0.0994  0.0979
   22MOL   C23911201   7.077   7.351   5.252  0.0250 -0.5794  0.3089
   22MOL   C24011202   7.151   7.468   5.214  0.1546  0.3096 -0.0542
   22MOL   C24111203   7.153   7.506   5.080  0.0214  0.6447  0.1800
   22MOL   C24211204   7.086   7.434   4.979  0.5077  0.1543  0.0216
   22MOL   C24311205   7.016   7.315   5.023  0.2992  0.2542 -0.0237
   22MOL   C24411206   7.012   7.275   5.155 -0.1974 -0.1648 -0.2799
   22MOL   C24511207   7.196   7.534   5.333 -0.3599  0.1567 -0.2054
   22MOL   C24611208   7.159   7.454   5.441 -0.1915  0.2081 -0.6982
   22MOL   C24711209   7.195   7.487   5.573  0.3165  0.1757  0.1775
   22MOL   C24811210   7.267   7.604   5.594 -0.1796 -0.7527 -0.2168
   22MOL   C24911211   7.303   7.688   5.490  0.0564 -0.2137 -0.2230
   22MOL   C25011212   7.273   7.652   5.359 -0.4913  0.3663  0.3381
   22MOL   H25111213   6.983   7.342   5.665  0.9463  0.8023 -0.6098
   22MOL   H25211214   6.848   7.229   5.620 -1.5172  0.3605 -1.0813
   22MOL   H25311215   6.954   7.179   5.406 -1.0863 -0.3528  0.6616
   22MOL   H25411216   7.206   7.598   5.060 -0.4141  0.2099 -3.1664
   22MOL   H25511217   7.097   7.461   4.875  1.9783 -0.0950  0.0997
   22MOL   H25611218   6.969   7.250   4.951  1.2324  0.4182 -0.8051
   22MOL   H25711219   6.961   7.181   5.170  0.8338 -0.8145 -0.8037
   22MOL   H25811220   7.164   7.419   5.651 -1.5660  0.0059 -0.6905
   22MOL   H25911221   7.289   7.637   5.695  1.7883 -1.4064 -0.4092
   22MOL   H26011222   7.353   7.778   5.523 -1.3424 -0.2703  2.1962
   22MOL   H26111223   7.297   7.725   5.282 -1.5884 -0.5461 -0.8893
   22MOL   C26211224   7.116   7.139   5.530 -0.1357 -0.7199 -0.9361
   22MOL   C26311225   7.060   7.013   5.596 -0.1168 -0.2075  0.0305
   22MOL   N26411226   6.972   6.935   5.508  1.0006  0.0984 -0.2626
   22MOL   C26511227   6.833   6.923   5.521  0.6696  0.2000 -0.7366
   22MOL   C26611228   6.775   6.860   5.409 -0.4728 -0.1535  0.0729
   22MOL   C26711229   6.633   6.860   5.404 -0.4349 -0.3417 -0.3885
   22MOL   C26811230   6.558   6.916   5.506  0.1862  0.5203  0.2667
   22MOL   C26911231   6.611   6.955   5.627 -0.0978 -0.3448  0.2646
   22MOL   C27011232   6.751   6.955   5.633  0.4608  0.2856  0.3048
   22MOL   C27111233   6.885   6.814   5.326 -0.3991  0.0709  0.4385
   22MOL   C27211234   7.004   6.861   5.389 -0.0682  0.1614 -0.8415
   22MOL   C27311235   7.128   6.830   5.338 -0.1040  0.1429  0.2613
   22MOL   C27411236   7.140   6.746   5.228  0.0952 -0.6093  0.6644
   22MOL   C27511237   7.029   6.682   5.179 -0.2285  0.5195  0.2258
   22MOL   C27611238   6.898   6.720   5.227 -0.3098 -0.4269 -0.0168
   22MOL   H27711239   7.169   7.112   5.439 -1.8608 -1.7502 -1.6514
   22MOL   H27811240   7.185   7.198   5.591 -1.2979 -1.5218  1.2204
   22MOL   H27911241   6.997   7.050   5.676 -0.2043  0.8271 -0.5049
   22MOL   H28011242   6.593   6.826   5.309  1.3016  0.4276 -1.4278
   22MOL   H28111243   6.450   6.915   5.496  0.0323 -0.0406  1.8819
   22MOL   H28211244   6.555   6.999   5.708  0.2675  2.1663 -0.7949
   22MOL   H28311245   6.795   6.987   5.726 -0.5807 -0.5066  1.0733
   22MOL   H28411246   7.223   6.868   5.374 -0.3818  1.9891 -0.8976
   22MOL   H28511247   7.236   6.708   5.196  1.4125  1.0771  2.4528
   22MOL   H28611248   7.044   6.611   5.099 -0.1972  0.2422  0.4740
   22MOL   H28711249   6.805   6.681   5.186  0.3519  0.8283 -2.8231
   22MOL   C28811250   7.157   6.922   5.673 -0.1965 -0.6527 -0.2375
   22MOL   C28911251   7.236   7.001   5.785  0.6751  0.3589 -0.4695
   22MOL   N29011252   7.154   7.092   5.863  0.1721  0.1432 -0.3524
   22MOL   C29111253   7.191   7.226   5.891  0.6548  0.3115 -0.9240
   22MOL   C29211254   7.077   7.290   5.949 -0.3262  0.0658 -0.0839
   22MOL   C29311255   7.089   7.425   5.984 -0.2261 -0.1098 -0.2120
   22MOL   C29411256   7.202   7.504   5.963 -0.2346  0.1703 -0.3708
   22MOL   C29511257   7.312   7.443   5.911  0.0416  0.1845 -0.1697
   22MOL   C29611258   7.299   7.310   5.865 -0.2249  0.3014 -0.0242
   22MOL   C29711259   6.983   7.192   5.969 -0.0708 -1.1870  0.0461
   22MOL   C29811260   7.037   7.069   5.925 -0.0150 -0.3203  0.1201
   22MOL   C29911261   6.953   6.953   5.942  0.9281  0.4128 -0.6643
   22MOL   C30011262   6.822   6.958   6.008 -0.6597  0.0906  0.2198
   22MOL   C30111263   6.781   7.081   6.058 -0.2173  0.4243  0.0684
   22MOL   C30211264   6.861   7.199   6.038  0.2719 -0.2021 -0.8475
   22MOL   H30311265   7.111   6.828   5.707 -1.3782  0.2907  0.8154
   22MOL   H30411266   7.225   6.878   5.600 -2.5725 -1.0126 -2.2775
   22MOL   H30511267   7.314   7.051   5.727 -0.6891  0.5635 -2.1553
   22MOL   H30611268   7.008   7.477   6.034  0.6652  0.1691  0.9627
   22MOL   H30711269   7.196   7.606   5.997  0.9429  0.2380 -0.3468
   22MOL   H30811270   7.404   7.500   5.905 -0.9558  1.8356  0.0583
   22MOL   H30911271   7.389   7.277   5.815  0.1904 -0.3925  1.1739
   22MOL   H31011272   6.978   6.860   5.892  3.3854  1.2049 -0.9879
   22MOL   H31111273   6.759   6.871   6.019 -1.8685  1.1159  1.5829
   22MOL   H31211274   6.685   7.087   6.108 -0.5900 -0.7653 -0.4882
   22MOL   H31311275   6.835   7.293   6.085 -2.1318 -0.9608 -0.5646
   22MOL   C31411276   7.301   6.897   5.878  0.9570 -1.3383 -0.4282
   22MOL   C31511277   7.428   6.947   5.947 -0.1222  0.0597  0.5544
   22MOL   N31611278   7.414   6.935   6.090  0.0155 -0.1917 -0.5086
   22MOL   C31711279   7.444   7.027   6.188  0.7374 -0.3918 -0.0651
   22MOL   C31811280   7.441   6.975   6.322 -0.2256 -0.3625 -0.8152
   22MOL   C31911281   7.470   7.061   6.429  0.2893 -0.1836  0.1114
   22MOL   C32011282   7.514   7.191   6.403  0.4725  0.9403  0.6302
   22MOL   C32111283   7.512   7.248   6.267  0.4613  0.1976  0.1261
   22MOL   C32211284   7.480   7.163   6.163 -0.1679 -0.8034  0.7477
   22MOL   C32311285   7.400   6.839   6.300 -0.4757 -0.1990 -0.4046
   22MOL   C32411286   7.388   6.819   6.163 -0.0076 -0.4046  0.4086
   22MOL   C32511287   7.376   6.685   6.116 -0.1370 -0.1419  0.7073
   22MOL   C32611288   7.356   6.576   6.197 -0.2474 -1.3432  0.7016
   22MOL   C32711289   7.365   6.599   6.337  0.3656  0.1008 -0.4696
   22MOL   C32811290   7.382   6.732   6.386 -0.8184  0.7807  0.0466
   22MOL   H32911291   7.224   6.866   5.949  0.3326  0.5356 -0.2666
   22MOL   H33011292   7.326   6.813   5.812 -0.2882 -0.4362 -2.0799
   22MOL   H33111293   7.449   7.052   5.928 -0.7624  0.0161 -0.4152
   22MOL   H33211294   7.453   7.043   6.534 -1.5538  0.1835 -0.1070
   22MOL   H33311295   7.519   7.256   6.488 -0.2766  1.2629  0.4333
   22MOL   H33411296   7.522   7.353   6.241 -1.9425  0.5756  0.6261
   22MOL   H33511297   7.477   7.201   6.062  1.4842  1.7784  1.6368
   22MOL   H33611298   7.385   6.663   6.011 -0.0221 -0.3630  0.7630
   22MOL   H33711299   7.359   6.477   6.153  0.8192 -0.8884 -0.2545
   22MOL   H33811300   7.361   6.519   6.410 -1.5617 -1.5534 -2.2987
   22MOL   H33911301   7.385   6.751   6.492  0.7105  0.7294  0.0327
   22MOL   C34011302   7.563   6.883   5.906 -0.2320 -0.3800  0.3705
   22MOL   C34111303   7.610   6.900   5.758  0.0496  0.0153  0.4133
   22MOL   N34211304   7.595   7.033   5.709  0.1494 -0.3357  0.0893
   22MOL   C34311305   7.538   7.068   5.583  0.0766 -0.2358 -0.2221
   22MOL   C34411306   7.536   7.211   5.571  0.1277 -0.4440  0.5543
   22MOL   C34511307   7.475   7.266   5.454  0.1556 -0.2181 -0.4937
   22MOL   C34611308   7.427   7.182   5.351 -0.3380  0.0134 -0.3583
   22MOL   C34711309   7.442   7.043   5.360  0.0066  0.1379  0.0109
   22MOL   C34811310   7.496   6.984   5.477 -0.0272  0.2653 -0.0382
   22MOL   C34911311   7.602   7.266   5.688  0.2069  0.1726  0.6287
   22MOL   C35011312   7.645   7.155   5.767 -0.0018  0.2537  0.0662
   22MOL   C35111313   7.729   7.175   5.885 -0.1204 -0.3544  0.8381
   22MOL   C35211314   7.764   7.308   5.922  0.3704  0.0952 -0.2441
   22MOL   C35311315   7.711   7.415   5.850 -0.2648 -0.1842  0.4428
   22MOL   C35411316   7.634   7.394   5.731 -0.2777 -0.2831  0.4075
   22MOL   H35511317   7.634   6.914   5.982 -0.0158 -0.5387  0.2357
   22MOL   H35611318   7.548   6.775   5.912  1.1788 -0.6972 -1.2954
   22MOL   H35711319   7.542   6.835   5.703  0.4916 -1.8744  2.0566
   22MOL   H35811320   7.492   7.368   5.424  0.1177 -0.4130 -1.1997
   22MOL   H35911321   7.376   7.233   5.272 -0.6219 -0.9869 -0.8322
   22MOL   H36011322   7.392   6.975   5.293  0.5831 -0.4891  0.2139
   22MOL   H36111323   7.489   6.876   5.480  2.0006  0.1351  0.8159
   22MOL   H36211324   7.766   7.090   5.940  1.9964  0.4063  0.6103
   22MOL   H36311325   7.825   7.317   6.010 -0.2540 -0.1603  0.2172
   22MOL   H36411326   7.731   7.516   5.882 -0.0819 -0.0750 -0.0016
   22MOL   H36511327   7.598   7.481   5.679 -0.0120 -0.6538 -0.4115
   22MOL   C36611328   7.756   6.846   5.723  0.0708  0.2861  0.1256
   22MOL   C36711329   7.784   6.699   5.750 -0.0594  0.3208 -0.3353
   22MOL   N36811330   7.689   6.611   5.681 -0.1265 -0.6920 -0.0348
   22MOL   C36911331   7.594   6.526   5.739 -0.2857 -0.3736  0.1504
   22MOL   C37011332   7.511   6.467   5.642  0.0635 -0.2883  0.1154
   22MOL   C37111333   7.410   6.373   5.672 -0.5338 -0.5572  0.5448
   22MOL   C37211334   7.402   6.326   5.810  0.1657 -0.4801  0.1369
   22MOL   C37311335   7.480   6.396   5.904  1.3996  0.2443 -0.3862
   22MOL   C37411336   7.583   6.490   5.871  0.2411 -0.0399  0.2835
   22MOL   C37511337   7.560   6.518   5.516 -0.1724 -0.0433 -0.4005
   22MOL   C37611338   7.665   6.609   5.544 -0.0134 -0.6470  0.4038
   22MOL   C37711339   7.739   6.670   5.439  0.3893  0.3161  0.0388
   22MOL   C37811340   7.700   6.646   5.306  0.0100  0.2909  0.2760
   22MOL   C37911341   7.593   6.562   5.279 -0.3187  0.1757  0.6867
   22MOL   C38011342   7.528   6.495   5.383 -0.1453  0.1031  0.2359
   22MOL   H38111343   7.776   6.863   5.618  1.1189 -3.3090 -0.3460
   22MOL   H38211344   7.824   6.907   5.782  1.6224 -0.4012 -0.9166
   22MOL   H38311345   7.765   6.695   5.857 -1.5703 -0.1557 -0.6069
   22MOL   H38411346   7.345   6.328   5.599  0.8676 -0.9416 -0.4904
   22MOL   H38511347   7.338   6.246   5.844 -1.2372  0.3831 -0.4498
   22MOL   H38611348   7.470   6.387   6.011 -0.5491  1.2579 -0.4690
   22MOL   H38711349   7.650   6.533   5.944 -0.3400  1.5662 -0.1028
   22MOL   H38811350   7.824   6.731   5.465  0.0132  0.8023  0.1134
   22MOL   H38911351   7.754   6.688   5.223  0.1098 -1.2664 -0.4574
   22MOL   H39011352   7.570   6.541   5.175 -0.6085 -0.8044  0.9399
   22MOL   H39111353   7.443   6.431   5.363  1.4418 -1.4514 -1.6885
   22MOL   C39211354   7.934   6.656   5.747 -0.3939  0.5806  0.1839
   22MOL   C39311355   7.961   6.504   5.776  0.7263  0.1383  0.7819
   22MOL   N39411356   7.935   6.418   5.652  0.2891  0.2173 -0.0361
   22MOL   C39511357   7.857   6.306   5.653  0.9376 -0.4865 -0.0817
   22MOL   C39611358   7.839   6.251   5.521 -0.4191  0.4556  0.0661
   22MOL   C39711359   7.757   6.137   5.509 -0.7022 -0.2101 -0.3641
   22MOL   C39811360   7.689   6.084   5.615  0.2132 -1.1511  0.4900
   22MOL   C39911361   7.697   6.141   5.744  0.1479  0.0713  0.8403
   22MOL   C40011362   7.781   6.250   5.763 -0.3847 -0.6720  1.2874
   22MOL   C40111363   7.921   6.339   5.437  0.8499  0.1992  0.1458
   22MOL   C40211364   7.985   6.432   5.523  0.8511 -0.5170 -0.5535
   22MOL   C40311365   8.075   6.528   5.467 -0.0597  0.0810 -0.8868
   22MOL   C40411366   8.092   6.538   5.330  0.0611  0.2893  0.4575
   22MOL   C40511367   8.024   6.449   5.246 -0.4611  0.2799 -0.0085
   22MOL   C40611368   7.949   6.342   5.300 -0.5966  0.8779  0.5174
   22MOL   H40711369   7.973   6.687   5.650 -2.7325  1.3287 -0.5645
   22MOL   H40811370   7.983   6.722   5.818  1.1584  1.8843 -2.0256
   22MOL   H40911371   7.887   6.468   5.847  0.9741 -1.5466  0.1893
   22MOL   H41011372   7.735   6.092   5.413 -1.1530  0.9337 -0.8123
   22MOL   H41111373   7.612   6.013   5.589 -0.4893  0.6548 -2.6811
   22MOL   H41211374   7.651   6.102   5.834  1.8956  0.1624  1.7874
   22MOL   H41311375   7.782   6.283   5.865 -0.5360 -0.8741  1.3548
   22MOL   H41411376   8.129   6.601   5.526 -1.3353 -0.2853  0.7478
   22MOL   H41511377   8.153   6.618   5.289  1.9193 -0.4582  1.6988
   22MOL   H41611378   8.033   6.458   5.139 -0.2675 -0.0605 -0.0204
   22MOL   H41711379   7.894   6.274   5.237 -0.2048 -0.5113  1.6562
   22MOL   C41811380   8.104   6.485   5.831  0.0157  0.2893 -0.2156
   22MOL   C41911381   8.139   6.562   5.960  0.1074  0.6297 -0.2162
   22MOL   N42011382   8.033   6.615   6.050 -0.2130  0.9957 -0.0519
   22MOL   C42111383   8.011   6.748   6.095 -0.3625 -0.3839 -0.6280
   22MOL   C42211384   7.892   6.766   6.170 -0.4008 -0.6272  0.4178
   22MOL   C42311385   7.853   6.892   6.214  0.2274  0.0226  0.1539
   22MOL   C42411386   7.932   7.004   6.190 -1.0118  0.8738 -0.0815
   22MOL   C42511387   8.062   6.986   6.129  0.1066 -1.2795  0.2209
   22MOL   C42611388   8.095   6.856   6.074  0.1430  0.1695 -0.0161
   22MOL   C42711389   7.836   6.633   6.179  0.7083  0.3511  0.5009
   22MOL   C42811390   7.922   6.546   6.107 -0.3650 -0.2451  0.1062
   22MOL   C42911391   7.889   6.412   6.103 -0.2644 -0.1770  0.2776
   22MOL   C43011392   7.770   6.358   6.162  0.2613 -0.5441 -0.5111
   22MOL   C43111393   7.677   6.447   6.221 -0.3025  0.7917 -0.6285
   22MOL   C43211394   7.711   6.577   6.234 -0.2123 -0.3954 -0.8308
   22MOL   H43311395   8.131   6.380   5.847  3.0516  1.1946  1.0429
   22MOL   H43411396   8.174   6.522   5.756  1.3951  0.8218  1.3161
   22MOL   H43511397   8.188   6.649   5.915  2.6986  0.2065  1.6826
   22MOL   H43611398   7.753   6.903   6.253  0.9389  2.2340  1.4309
   22MOL   H43711399   7.906   7.100   6.232 -1.1479  0.3483  1.0581
   22MOL   H43811400   8.122   7.075   6.118 -0.4412 -0.6539  2.1432
   22MOL   H43911401   8.188   6.840   6.022 -0.0294  1.0590 -0.6184
   22MOL   H44011402   7.964   6.345   6.064 -0.0523 -0.9018  1.9106
   22MOL   H44111403   7.761   6.251   6.152  1.3258 -0.7469  0.5421
   22MOL   H44211404   7.588   6.410   6.270  0.4251 -1.9991 -1.2896
   22MOL   H44311405   7.643   6.641   6.288 -1.5119 -0.4777 -2.3399
   22MOL   C44411406   0.019   6.498   6.050 -0.5951  0.3111 -0.1214
   22MOL   C44511407   0.146   6.450   5.976  0.1250  0.0068  1.0416
   22MOL   N44611408   0.203   6.544   5.890 -0.5262  0.1829 -0.2196
   22MOL   C44711409   0.225   6.524   5.751  0.3948 -1.0177 -0.4124
   22MOL   C44811410   0.284   6.639   5.697 -0.2519 -0.7747 -0.2469
   22MOL   C44911411   0.314   6.638   5.555 -0.1339 -0.3331 -0.0367
   22MOL   C45011412   0.286   6.527   5.473 -0.4752 -0.1295  0.1198
   22MOL   C45111413   0.228   6.412   5.531 -0.0207 -0.7490 -0.2802
   22MOL   C45211414   0.202   6.407   5.667  0.1208  0.0369  0.2440
   22MOL   C45311415   0.301   6.734   5.805  0.1158  0.3932 -0.0035
   22MOL   C45411416   0.249   6.675   5.921 -0.3829 -0.1787 -0.5225
   22MOL   C45511417   0.247   6.746   6.042  0.3136  0.2279  0.6740
   22MOL   C45611418   0.292   6.878   6.048  0.1843  0.4270 -0.3837
   22MOL   C45711419   0.348   6.940   5.933  0.9599 -0.3813 -0.0871
   22MOL   C45811420   0.349   6.869   5.811  0.4730 -1.0660  0.0828
   22MOL   H45911421   0.050   6.583   6.111  1.3877 -0.1665 -0.4228
   22MOL   H46011422   8.204   6.418   6.110 -0.4645  1.4591  1.5222
   22MOL   H46111423   0.121   6.363   5.914  2.0410 -0.0626  0.3564
   22MOL   H46211424   0.342   6.731   5.509 -3.6077  0.4309 -0.7888
   22MOL   H46311425   0.311   6.528   5.368 -0.5017 -0.1932  0.1132
   22MOL   H46411426   0.215   6.323   5.471  1.2002 -1.0432 -0.1168
   22MOL   H46511427   0.165   6.315   5.711 -2.4324  0.0374 -1.7814
   22MOL   H46611428   0.201   6.699   6.128 -1.2290 -0.2991 -0.4400
   22MOL   H46711429   0.277   6.933   6.140 -0.3163  1.1165 -0.8729
   22MOL   H46811430   0.383   7.042   5.938 -1.0821  0.3373  0.1506
   22MOL   H46911431   0.389   6.915   5.722 -2.3386 -0.9892 -1.2126
   22MOL   C47011432   0.244   6.395   6.072 -0.3323 -0.4059  0.1505
   22MOL   C47111433   0.395   6.372   6.042 -0.0477  0.7476 -0.0140
   22MOL   N47211434   0.464   6.334   6.171 -0.6819 -0.7962 -0.1170
   22MOL   C47311435   0.531   6.421   6.261  0.4903 -0.0005 -0.5785
   22MOL   C47411436   0.584   6.350   6.369  0.4209 -0.5151  0.7388
   22MOL   C47511437   0.654   6.420   6.471  0.7238  0.3532  0.4683
   22MOL   C47611438   0.664   6.562   6.460  0.2473  0.0372  0.1357
   22MOL   C47711439   0.609   6.630   6.351 -0.6649  0.1842  0.0184
   22MOL   C47811440   0.539   6.562   6.252 -0.2894  0.4829 -0.6445
   22MOL   C47911441   0.542   6.213   6.356  0.2421  0.9183  0.8549
   22MOL   C48011442   0.473   6.204   6.228  0.3342  0.6228 -1.3410
   22MOL   C48111443   0.413   6.083   6.185  0.5236  0.0545 -1.0014
   22MOL   C48211444   0.417   5.972   6.271 -0.2894  0.1869 -0.1090
   22MOL   C48311445   0.493   5.972   6.390 -0.1437 -0.8806  0.6213
   22MOL   C48411446   0.556   6.094   6.431  0.2303 -0.1267  0.0863
   22MOL   H48511447   0.250   6.451   6.166 -1.8315 -0.3999  0.2536
   22MOL   H48611448   0.218   6.294   6.102  0.2569 -0.8907 -0.9654
   22MOL   H48711449   0.446   6.465   6.015  2.7606 -0.7534 -0.0299
   22MOL   H48811450   0.700   6.375   6.557 -0.1282  3.0786  2.4215
   22MOL   H48911451   0.720   6.605   6.541  2.4602 -1.7767 -0.3845
   22MOL   H49011452   0.623   6.737   6.347  0.4716 -0.0055 -1.8946
   22MOL   H49111453   0.516   6.618   6.163  0.3804  1.0620 -0.4572
   22MOL   H49211454   0.352   6.082   6.096  1.3382  2.0129 -1.5977
   22MOL   H49311455   0.358   5.890   6.233 -0.8316  0.8816 -0.7706
   22MOL   H49411456   0.495   5.879   6.443  0.8929 -1.2140  0.0165
   22MOL   H49511457   0.610   6.105   6.524 -0.4157  1.8285  0.2712
   22MOL   C49611458   0.434   6.286   5.917  0.3820 -0.6490  0.6768
   22MOL   C49711459   0.589   6.274   5.898  0.3366  0.6131 -1.1087
   22MOL   N49811460   0.615   6.253   5.753  0.4716 -0.0526 -0.2761
   22MOL   C49911461   0.636   6.351   5.662  0.2110 -0.5053  0.2537
   22MOL   C50011462   0.653   6.295   5.530  0.9032  0.3996  0.3461
   22MOL   C50111463   0.672   6.385   5.421 -0.2423  0.4160  0.7169
   22MOL   C50211464   0.681   6.529   5.445 -0.6888  0.3846 -0.3704
   22MOL   C50311465   0.657   6.589   5.575 -0.1834 -0.0866  0.4282
   22MOL   C50411466   0.632   6.491   5.683 -0.0677 -0.5838  0.3258
   22MOL   C50511467   0.628   6.153   5.546  0.4724 -0.8109  0.0662
   22MOL   C50611468   0.608   6.131   5.683  0.1687 -1.3573  0.3747
   22MOL   C50711469   0.583   5.999   5.735  0.6471 -0.4260  0.0174
   22MOL   C50811470   0.580   5.891   5.653 -0.5369  1.1528  0.1023
   22MOL   C50911471   0.594   5.910   5.515  0.5169  0.2560 -1.1645
   22MOL   C51011472   0.626   6.036   5.463  0.1156  0.2686  0.1096
   22MOL   H51111473   0.389   6.186   5.922 -0.1374 -0.3659  1.8687
   22MOL   H51211474   0.397   6.335   5.827 -0.1394 -0.7551  0.8284
   22MOL   H51311475   0.628   6.195   5.961 -0.3062 -0.1953 -1.7040
   22MOL   H51411476   0.673   6.359   5.316 -0.0783  0.0329  0.8164
   22MOL   H51511477   0.704   6.598   5.366 -1.9068 -0.6930 -1.7154
   22MOL   H51611478   0.641   6.693   5.598  0.7934 -0.0546  1.0092
   22MOL   H51711479   0.597   6.528   5.778 -2.6272 -2.3668  0.1272
   22MOL   H51811480   0.573   5.985   5.842 -1.6087 -1.1253 -0.2478
   22MOL   H51911481   0.564   5.791   5.689 -1.9929  1.4277  0.2377
   22MOL   H52011482   0.575   5.827   5.447 -3.5235 -2.1176  2.5650
   22MOL   H52111483   0.627   6.049   5.355  0.0297  0.8665  0.1804
   22MOL   H52211484   0.645   6.361   5.933 -1.9714  1.6947 -0.0255
   23MOL     C111485   4.951   2.041   4.724  0.5118 -0.2111 -0.0653
   23MOL     C211486   4.816   1.976   4.697 -0.2321 -0.1361  0.0831
   23MOL     N311487   4.817   1.895   4.577  0.3213  0.1585  0.7098
   23MOL     C411488   4.735   1.919   4.469 -0.4093 -0.3939 -0.6768
   23MOL     C511489   4.736   1.806   4.382 -0.2104 -0.1730 -0.2507
   23MOL     C611490   4.666   1.807   4.259 -0.2339  0.9431 -0.0743
   23MOL     C711491   4.575   1.910   4.230 -0.0867 -0.4872  0.6048
   23MOL     C811492   4.575   2.024   4.310 -0.6389 -0.4557  0.5778
   23MOL     C911493   4.658   2.032   4.429 -0.6193  0.2745 -0.1984
   23MOL    C1011494   4.823   1.709   4.437  0.0509 -1.0800  0.1264
   23MOL    C1111495   4.880   1.772   4.551  0.9504  0.1809  0.0411
   23MOL    C1211496   4.980   1.714   4.628  0.2077  0.3888 -0.0105
   23MOL    C1311497   5.030   1.584   4.588  0.2581 -0.1429 -0.1318
   23MOL    C1411498   4.978   1.526   4.471  0.7144 -0.0876 -0.0093
   23MOL    C1511499   4.873   1.589   4.394 -0.1003 -0.1229 -0.0634
   23MOL    H1611500   4.959   2.109   4.640 -1.4245 -2.9534 -2.5593
   23MOL    H1711501   5.042   1.980   4.724  0.8060  0.2241 -0.9207
   23MOL    H1811502   4.751   2.064   4.694 -0.1293 -0.1069 -1.9591
   23MOL    H1911503   4.673   1.721   4.193 -0.8951  1.1394 -0.3999
   23MOL    H2011504   4.514   1.899   4.141  0.7795  0.8646 -0.1804
   23MOL    H2111505   4.517   2.107   4.274  1.5725  0.4209 -1.0782
   23MOL    H2211506   4.667   2.121   4.489  0.9342 -0.0074 -0.0093
   23MOL    H2311507   5.013   1.758   4.721  1.0762  1.3957 -0.7823
   23MOL    H2411508   5.110   1.543   4.648 -1.7150 -1.8650  1.4047
   23MOL    H2511509   5.018   1.434   4.430 -0.0393 -0.3096 -0.2533
   23MOL    H2611510   4.834   1.541   4.305 -0.9288  0.6525 -0.1272
   23MOL    H2711511   4.944   2.091   4.821 -0.7142  2.1239 -1.3130
   23MOL    C2811512   4.776   1.898   4.824  0.3931 -0.6555  0.1764
   23MOL    C2911513   4.675   1.783   4.809 -0.4276 -0.4280 -0.9992
   23MOL    N3011514   4.656   1.702   4.923  0.1090 -0.4947 -0.5176
   23MOL    C3111515   4.670   1.563   4.931  0.5886 -0.0426 -0.2592
   23MOL    C3211516   4.622   1.523   5.060 -0.3516 -0.0023  0.8832
   23MOL    C3311517   4.638   1.389   5.094 -0.4483  0.1890  0.0617
   23MOL    C3411518   4.694   1.292   5.008  0.0106 -1.5271  0.6488
   23MOL    C3511519   4.743   1.331   4.881 -0.5270  0.2133 -0.4922
   23MOL    C3611520   4.722   1.463   4.839 -0.4162  0.0292 -0.2427
   23MOL    C3711521   4.581   1.638   5.131  0.4765 -0.2715 -0.2434
   23MOL    C3811522   4.601   1.755   5.046  0.4416  0.3975 -0.1123
   23MOL    C3911523   4.563   1.877   5.089  0.8822  0.0413 -0.2796
   23MOL    C4011524   4.511   1.899   5.223 -0.8763 -0.2224 -0.8482
   23MOL    C4111525   4.490   1.790   5.309  0.4338 -0.0596  0.8200
   23MOL    C4211526   4.527   1.662   5.263 -0.1423 -0.0480  0.0953
   23MOL    H4311527   4.863   1.842   4.859  0.2843 -0.2971  1.0191
   23MOL    H4411528   4.749   1.972   4.899  2.4107 -0.2573  0.5387
   23MOL    H4511529   4.701   1.710   4.732 -0.6886 -1.0160 -0.5333
   23MOL    H4611530   4.594   1.352   5.185  1.0041 -1.8679 -0.0374
   23MOL    H4711531   4.696   1.190   5.044 -0.8359 -1.5987  0.4876
   23MOL    H4811532   4.778   1.249   4.820 -1.6536 -2.1609  1.9395
   23MOL    H4911533   4.745   1.491   4.737 -0.6923 -0.7141 -0.5142
   23MOL    H5011534   4.557   1.962   5.023  1.5838 -0.5205 -1.0820
   23MOL    H5111535   4.487   2.000   5.251 -2.0829 -0.2989 -1.5554
   23MOL    H5211536   4.466   1.809   5.412 -2.2587 -0.1925  0.2530
   23MOL    H5311537   4.516   1.570   5.318 -0.6390 -0.4365 -0.6329
   23MOL    C5411538   4.539   1.830   4.754 -0.4691 -0.3421 -0.2873
   23MOL    C5511539   4.432   1.721   4.734 -0.4263  0.3546 -0.1109
   23MOL    N5611540   4.287   1.765   4.735  0.5267  0.3321  0.3067
   23MOL    C5711541   4.186   1.733   4.826  0.3974 -0.0234 -0.6216
   23MOL    C5811542   4.058   1.787   4.783  0.4317  0.8621  0.3204
   23MOL    C5911543   3.942   1.753   4.858  0.4981  0.8499  0.2698
   23MOL    C6011544   3.949   1.680   4.974 -0.3560  0.3337 -0.7569
   23MOL    C6111545   4.075   1.631   5.021  0.8464 -0.7230 -1.2344
   23MOL    C6211546   4.192   1.654   4.942  0.2121 -0.5693 -0.1606
   23MOL    C6311547   4.086   1.867   4.668  0.3941  0.0358 -0.4629
   23MOL    C6411548   4.226   1.854   4.643 -0.3875  0.4710  0.4437
   23MOL    C6511549   4.285   1.916   4.532 -0.4744  0.2173 -0.3698
   23MOL    C6611550   4.206   1.986   4.435 -0.6155 -0.1960  0.1142
   23MOL    C6711551   4.067   2.005   4.463  0.1965  0.2505  0.0164
   23MOL    C6811552   4.008   1.950   4.580 -0.8037 -0.5857 -0.2533
   23MOL    H6911553   4.499   1.913   4.812  0.5413  0.3567 -0.5820
   23MOL    H7011554   4.556   1.878   4.657  2.3878 -0.2987  0.1986
   23MOL    H7111555   4.437   1.651   4.818 -1.9043 -0.5339 -0.7391
   23MOL    H7211556   3.846   1.789   4.822 -0.1291  1.0097  2.0579
   23MOL    H7311557   3.858   1.655   5.026  0.8416 -2.1109  0.2678
   23MOL    H7411558   4.072   1.575   5.113 -1.9289 -1.5422 -1.7863
   23MOL    H7511559   4.288   1.618   4.978  1.0131  0.6877 -0.9985
   23MOL    H7611560   4.385   1.893   4.501 -0.5921 -1.0009  0.0849
   23MOL    H7711561   4.250   2.015   4.341  1.2937  0.4340  1.1771
   23MOL    H7811562   3.997   2.047   4.392 -1.2775 -0.8253  0.8114
   23MOL    H7911563   3.907   1.982   4.603  0.1380  2.2240  0.1622
   23MOL    C8011564   4.460   1.633   4.610 -1.3477  0.0557 -0.7652
   23MOL    C8111565   4.364   1.518   4.585  0.8123 -0.4188  0.2417
   23MOL    N8211566   4.365   1.467   4.443 -0.4493  0.8378  0.0734
   23MOL    C8311567   4.248   1.469   4.360  0.3074 -0.0565 -0.4883
   23MOL    C8411568   4.280   1.394   4.241  0.2975 -0.0174  0.1800
   23MOL    C8511569   4.176   1.379   4.146 -0.1845 -0.2063 -0.0587
   23MOL    C8611570   4.047   1.436   4.161  0.5767 -0.0296  0.1401
   23MOL    C8711571   4.025   1.517   4.271 -0.6699  0.4739 -0.1234
   23MOL    C8811572   4.118   1.527   4.376 -0.2732 -0.9011  0.2626
   23MOL    C8911573   4.414   1.355   4.256  0.0480 -0.2526  0.0340
   23MOL    C9011574   4.471   1.409   4.374  1.3352  0.3826  0.1921
   23MOL    C9111575   4.603   1.380   4.403  0.4090 -0.0309 -0.0483
   23MOL    C9211576   4.682   1.308   4.311 -0.3238 -0.1332  0.2544
   23MOL    C9311577   4.630   1.259   4.194  0.3027 -0.3128  0.3964
   23MOL    C9411578   4.497   1.288   4.168  0.6607  0.6877  0.2036
   23MOL    H9511579   4.461   1.700   4.524 -0.0439  0.2228 -0.6202
   23MOL    H9611580   4.562   1.596   4.612 -1.1811  0.4897 -1.2769
   23MOL    H9711581   4.267   1.565   4.593  1.9078  1.8929  0.3278
   23MOL    H9811582   4.203   1.333   4.052  1.5348 -1.7157  1.1450
   23MOL    H9911583   3.977   1.434   4.079 -0.2654 -0.9445  0.8658
   23MOL   H10011584   3.936   1.579   4.275 -1.3233 -0.3990 -0.8891
   23MOL   H10111585   4.105   1.591   4.462  1.4415 -0.4883  0.2510
   23MOL   H10211586   4.647   1.404   4.498 -2.0042 -1.3663  1.4596
   23MOL   H10311587   4.782   1.284   4.344  0.6025  0.7101 -1.8637
   23MOL   H10411588   4.682   1.193   4.126  0.8501  1.1293 -0.6088
   23MOL   H10511589   4.445   1.258   4.078  0.8187 -0.3875  0.4668
   23MOL   C10611590   4.362   1.401   4.686 -0.1788  0.5640 -0.4697
   23MOL   C10711591   4.236   1.305   4.665  0.4732  0.1715 -0.1941
   23MOL   N10811592   4.248   1.162   4.694 -0.5252 -1.0188 -0.5078
   23MOL   C10911593   4.266   1.060   4.595  0.1488 -0.5813 -1.2255
   23MOL   C11011594   4.292   0.938   4.661  0.6550  0.4609 -0.0848
   23MOL   C11111595   4.324   0.822   4.580 -0.7864  0.1020 -0.1018
   23MOL   C11211596   4.326   0.828   4.440  0.2208 -0.0180  0.4392
   23MOL   C11311597   4.300   0.955   4.375 -0.1941 -0.4266  0.3150
   23MOL   C11411598   4.277   1.073   4.455  1.0933  0.5946 -0.1764
   23MOL   C11511599   4.280   0.965   4.801 -0.7089  0.6827 -0.5335
   23MOL   C11611600   4.258   1.106   4.823 -0.4899 -0.0625  0.0148
   23MOL   C11711601   4.249   1.161   4.953  0.6607 -0.1830 -0.2628
   23MOL   C11811602   4.273   1.078   5.059  0.5697 -0.1409 -0.2882
   23MOL   C11911603   4.297   0.942   5.042 -0.4414  0.3961  0.3938
   23MOL   C12011604   4.302   0.882   4.913 -0.2222 -0.4392  0.3798
   23MOL   H12111605   4.454   1.347   4.666  1.0281  1.7850  1.6069
   23MOL   H12211606   4.364   1.439   4.788  0.9663 -0.8821  0.0526
   23MOL   H12311607   4.212   1.311   4.558 -1.6558  1.5011  0.3317
   23MOL   H12411608   4.342   0.733   4.638 -0.6936  0.7172  0.8253
   23MOL   H12511609   4.353   0.750   4.371  0.4529  1.5105 -1.2506
   23MOL   H12611610   4.315   0.959   4.268  4.0525  0.5968  0.8508
   23MOL   H12711611   4.248   1.164   4.406 -0.4117  0.1173 -0.2182
   23MOL   H12811612   4.232   1.267   4.965 -1.3742 -0.5292  0.1030
   23MOL   H12911613   4.281   1.120   5.158  0.0947  1.5651 -0.9608
   23MOL   H13011614   4.320   0.886   5.132  1.5518 -0.9319 -0.9116
   23MOL   H13111615   4.326   0.778   4.898 -1.1164 -0.5691 -0.2044
   23MOL   C13211616   4.109   1.371   4.728  0.3402  0.0668 -0.0358
   23MOL   C13311617   3.987   1.284   4.738 -0.5708  0.1536  0.3044
   23MOL   N13411618   3.879   1.361   4.800  0.2795 -0.2573  0.6753
   23MOL   C13511619   3.834   1.348   4.934  0.5714 -0.2725  0.1352
   23MOL   C13611620   3.710   1.422   4.950  0.1678  0.6824  0.3243
   23MOL   C13711621   3.642   1.421   5.075  0.4573 -0.6132 -0.1085
   23MOL   C13811622   3.695   1.355   5.184  0.1189 -0.4937  0.0886
   23MOL   C13911623   3.813   1.284   5.168 -0.9350 -0.0576  0.1028
   23MOL   C14011624   3.882   1.280   5.048  0.3944 -0.6375 -0.3094
   23MOL   C14111625   3.690   1.499   4.827  0.3111 -0.0327 -0.2113
   23MOL   C14211626   3.790   1.452   4.738 -0.4732 -0.7153 -0.2909
   23MOL   C14311627   3.797   1.507   4.610 -0.3262  0.1391  0.1819
   23MOL   C14411628   3.702   1.606   4.568 -0.1741 -0.7257  0.1456
   23MOL   C14511629   3.602   1.645   4.655 -0.7719 -0.2014 -0.6086
   23MOL   C14611630   3.597   1.599   4.789  0.3517 -0.3182  0.2041
   23MOL   H14711631   4.128   1.418   4.824  1.8364  0.7893 -0.6765
   23MOL   H14811632   4.070   1.456   4.673 -0.9282 -0.2401  0.3790
   23MOL   H14911633   4.018   1.205   4.808  2.4466  0.5967 -0.4476
   23MOL   H15011634   3.553   1.480   5.084  1.5876  1.1681 -0.4644
   23MOL   H15111635   3.655   1.357   5.284  0.8671 -1.8188  0.4362
   23MOL   H15211636   3.863   1.237   5.251  0.0720  0.3400 -0.2780
   23MOL   H15311637   3.970   1.221   5.029  0.3123 -0.5974 -0.8202
   23MOL   H15411638   3.873   1.481   4.537  0.0757  0.1749  0.5895
   23MOL   H15511639   3.717   1.644   4.468  0.4046 -1.7834 -0.1774
   23MOL   H15611640   3.530   1.722   4.632  0.0980  1.7499  2.8510
   23MOL   H15711641   3.522   1.633   4.859 -0.4083 -1.3992 -0.0588
   23MOL   C15811642   3.936   1.216   4.604 -0.5882  0.3631  0.2533
   23MOL   C15911643   3.890   1.073   4.626 -0.1292  0.4033  0.0274
   23MOL   N16011644   3.775   1.051   4.720  0.6135  0.3997 -0.0839
   23MOL   C16111645   3.779   0.964   4.830 -0.1064  0.7941  0.9218
   23MOL   C16211646   3.650   0.964   4.897  0.5379 -0.5943 -0.1162
   23MOL   C16311647   3.637   0.898   5.025  0.0373 -0.0604  0.8592
   23MOL   C16411648   3.741   0.812   5.067  0.3455  0.3661 -0.1916
   23MOL   C16511649   3.865   0.812   5.006 -0.4044 -0.2922  0.0915
   23MOL   C16611650   3.885   0.888   4.891 -0.1193 -0.0704 -0.7668
   23MOL   C16711651   3.566   1.049   4.823  0.1683 -0.3188 -0.0011
   23MOL   C16811652   3.639   1.090   4.705 -0.4642 -0.0647  0.0024
   23MOL   C16911653   3.578   1.167   4.604  0.1132 -0.3697 -0.0342
   23MOL   C17011654   3.457   1.227   4.621  0.3294 -0.0900 -0.3913
   23MOL   C17111655   3.387   1.192   4.737  0.3509  0.5493 -0.7275
   23MOL   C17211656   3.435   1.102   4.835  0.2986  0.2415 -0.7232
   23MOL   H17311657   3.852   1.261   4.552  0.4554  0.6184 -1.2493
   23MOL   H17411658   4.012   1.219   4.525 -1.2149 -3.9374 -0.6862
   23MOL   H17511659   3.978   1.016   4.657 -1.1021 -0.7623  0.7031
   23MOL   H17611660   3.553   0.921   5.088 -0.4124  2.3369 -0.5676
   23MOL   H17711661   3.718   0.764   5.161 -0.2596  0.3033 -0.3689
   23MOL   H17811662   3.948   0.752   5.043 -0.3484 -0.5556 -0.4512
   23MOL   H17911663   3.982   0.881   4.844 -0.0328  1.1555 -0.7962
   23MOL   H18011664   3.636   1.186   4.515 -0.3558 -2.3182 -0.7695
   23MOL   H18111665   3.414   1.306   4.561 -1.2117 -0.3509  0.3175
   23MOL   H18211666   3.287   1.232   4.748 -0.7929 -2.0066 -1.6134
   23MOL   H18311667   3.375   1.084   4.924  1.9920 -3.3728 -0.2157
   23MOL   C18411668   3.873   0.991   4.495  0.0637 -0.4479 -0.0522
   23MOL   C18511669   3.784   0.859   4.499 -0.5358 -0.3053  0.1305
   23MOL   N18611670   3.719   0.850   4.368 -0.3604  0.0831 -0.5292
   23MOL   C18711671   3.586   0.865   4.333 -0.6749  0.3332  0.4124
   23MOL   C18811672   3.564   0.836   4.192  0.8729  0.4547 -0.6814
   23MOL   C18911673   3.429   0.851   4.140 -0.4436  0.1706  0.4147
   23MOL   C19011674   3.329   0.890   4.230  0.0476 -0.9106  0.0605
   23MOL   C19111675   3.355   0.922   4.367  0.1455  0.3897  0.3646
   23MOL   C19211676   3.482   0.898   4.420 -0.1049  0.0719  0.0989
   23MOL   C19311677   3.689   0.797   4.138 -0.1040  0.0307 -0.4739
   23MOL   C19411678   3.780   0.807   4.248 -0.0365  0.7452 -0.3349
   23MOL   C19511679   3.919   0.764   4.223 -0.0412  0.1948 -0.1543
   23MOL   C19611680   3.958   0.722   4.096  0.3127  0.2223  0.7289
   23MOL   C19711681   3.862   0.710   3.994  0.1633  0.4172  0.1889
   23MOL   C19811682   3.731   0.744   4.014 -0.4354  0.2405 -0.7249
   23MOL   H19911683   3.827   1.058   4.423  1.1554 -0.5578 -0.8527
   23MOL   H20011684   3.968   0.966   4.448 -0.5155  0.2477 -1.6004
   23MOL   H20111685   3.699   0.873   4.566  0.6350  0.9338  1.4018
   23MOL   H20211686   3.411   0.838   4.034 -0.8821  0.4119  0.4582
   23MOL   H20311687   3.231   0.906   4.189  0.4547  1.4941 -0.0219
   23MOL   H20411688   3.278   0.955   4.436 -1.1975 -0.2045 -0.8205
   23MOL   H20511689   3.505   0.920   4.523 -0.0973 -0.0668  0.1266
   23MOL   H20611690   3.991   0.777   4.303  1.8464 -0.2412 -1.7444
   23MOL   H20711691   4.056   0.677   4.085 -0.8758 -2.1814 -0.3435
   23MOL   H20811692   3.898   0.669   3.900  0.6729  2.1782 -0.3982
   23MOL   H20911693   3.657   0.722   3.939 -1.1460 -0.7563  0.2391
   23MOL   C21011694   3.862   0.726   4.550  0.4692  0.9101 -0.4532
   23MOL   C21111695   3.783   0.591   4.529  0.4581 -0.6892  0.2027
   23MOL   N21211696   3.859   0.475   4.559  0.8628  0.0334 -0.5621
   23MOL   C21311697   3.881   0.360   4.473 -0.3723  0.4315  0.0967
   23MOL   C21411698   3.955   0.260   4.544 -0.2484 -0.5854  0.2552
   23MOL   C21511699   4.008   0.149   4.467 -0.4230 -0.2885  0.2505
   23MOL   C21611700   3.970   0.136   4.332 -0.8398  0.1748 -0.9067
   23MOL   C21711701   3.883   0.226   4.268 -0.1176 -0.3574 -0.3018
   23MOL   C21811702   3.841   0.339   4.338 -0.3743  0.1189  0.0953
   23MOL   C21911703   3.982   0.321   4.672  0.4275  0.5415  0.1475
   23MOL   C22011704   3.914   0.441   4.685  0.4798  0.6314  0.1648
   23MOL   C22111705   3.901   0.507   4.809 -0.3624  0.0304  0.4489
   23MOL   C22211706   3.975   0.456   4.913 -0.1404 -0.4760 -0.3856
   23MOL   C22311707   4.053   0.341   4.905  0.0806 -0.8445 -0.4065
   23MOL   C22411708   4.063   0.281   4.778  0.0809  1.0351 -0.0611
   23MOL   H22511709   3.960   0.717   4.504  0.6695  2.6912 -0.4350
   23MOL   H22611710   3.874   0.740   4.658 -2.0166 -0.5011  0.0233
   23MOL   H22711711   3.749   0.585   4.426 -1.4519  1.6670  0.6733
   23MOL   H22811712   4.078   0.079   4.509 -1.4005 -2.4951 -1.6337
   23MOL   H22911713   4.000   0.044   4.283 -0.9307 -0.8352  0.8718
   23MOL   H23011714   3.854   0.220   4.164  0.3065  2.6019 -0.6248
   23MOL   H23111715   3.791   0.411   4.275 -0.6650 -0.9504 -0.8993
   23MOL   H23211716   3.845   0.599   4.815 -0.6030  0.2027 -3.2843
   23MOL   H23311717   3.974   0.495   5.014 -0.8644 -0.1103 -0.5314
   23MOL   H23411718   4.105   0.299   4.989  1.5900  0.2154 -0.7933
   23MOL   H23511719   4.132   0.198   4.776 -1.2258 -0.0978  1.1129
   23MOL   C23611720   3.631   0.586   4.586 -0.0400 -0.0941  0.0827
   23MOL   C23711721   3.576   0.440   4.596  0.1178 -0.0798 -0.4720
   23MOL   N23811722   3.488   0.419   4.707 -0.2046  0.0279 -0.6027
   23MOL   C23911723   3.506   0.327   4.818 -0.9772 -0.3331 -0.5297
   23MOL   C24011724   3.393   0.322   4.903 -0.8115 -0.2501 -0.0409
   23MOL   C24111725   3.393   0.241   5.016  0.1131  0.1760 -0.2946
   23MOL   C24211726   3.504   0.156   5.044 -0.4777 -0.5038  0.2090
   23MOL   C24311727   3.612   0.164   4.958 -0.3323 -0.4379 -0.3415
   23MOL   C24411728   3.614   0.243   4.846  0.4446  0.2843 -0.3425
   23MOL   C24511729   3.305   0.420   4.839 -0.5006  0.4216  0.1844
   23MOL   C24611730   3.370   0.482   4.728 -0.5441  0.0185  0.3288
   23MOL   C24711731   3.302   0.576   4.651 -1.0447 -0.5551 -0.1182
   23MOL   C24811732   3.173   0.625   4.680 -0.2329 -0.8047 -0.6221
   23MOL   C24911733   3.106   0.572   4.797 -1.0864  0.4616 -0.0545
   23MOL   C25011734   3.173   0.464   4.876  0.0698  0.1627  0.1314
   23MOL   H25111735   3.614   0.640   4.679 -1.5759  1.0924 -0.8580
   23MOL   H25211736   3.565   0.638   4.516 -0.9078 -1.3254 -0.0471
   23MOL   H25311737   3.653   0.371   4.630 -0.6636 -0.1343  1.2616
   23MOL   H25411738   3.310   0.237   5.085  0.8654 -0.8726  0.5699
   23MOL   H25511739   3.498   0.089   5.129  1.3929  0.5534  1.2102
   23MOL   H25611740   3.700   0.111   4.990  0.0743 -1.1938 -2.6112
   23MOL   H25711741   3.705   0.240   4.787  0.0452 -1.5598 -0.9038
   23MOL   H25811742   3.346   0.609   4.557 -0.4455  1.0781  0.6987
   23MOL   H25911743   3.139   0.710   4.623  1.0403 -1.5655 -2.5795
   23MOL   H26011744   3.020   0.626   4.834  0.4270  1.9461  1.3752
   23MOL   H26111745   3.129   0.428   4.968  1.2664 -0.5070  0.4526
   23MOL   C26211746   3.519   0.390   4.465 -0.3437  0.5809 -0.5772
   23MOL   C26311747   3.443   0.251   4.468 -0.1691  1.5281 -0.2512
   23MOL   N26411748   3.367   0.225   4.351  0.2250 -0.4848  0.5309
   23MOL   C26511749   3.229   0.239   4.346  0.0014  0.0485  0.1887
   23MOL   C26611750   3.180   0.190   4.222 -0.1683 -0.4383  0.0268
   23MOL   C26711751   3.038   0.178   4.199 -0.6329 -1.0870  0.1928
   23MOL   C26811752   2.948   0.235   4.292 -0.5049  0.2120 -0.6780
   23MOL   C26911753   2.999   0.277   4.417 -0.4635  0.0580  0.5017
   23MOL   C27011754   3.137   0.276   4.446 -0.1791 -0.5403 -0.0408
   23MOL   C27111755   3.296   0.160   4.144 -0.1562  0.0936 -0.1488
   23MOL   C27211756   3.412   0.196   4.219  0.2013 -0.0993 -0.4307
   23MOL   C27311757   3.543   0.178   4.166 -0.0057 -0.3048 -0.1183
   23MOL   C27411758   3.558   0.136   4.034  0.2600 -0.1660  0.0124
   23MOL   C27511759   3.442   0.108   3.958  0.7735  0.4648  0.4245
   23MOL   C27611760   3.311   0.110   4.015  0.0082  0.2335  0.2960
   23MOL   H27711761   3.436   0.453   4.432 -0.9873 -0.4332 -0.9524
   23MOL   H27811762   3.593   0.388   4.385 -0.1876 -1.6868 -0.4083
   23MOL   H27911763   3.374   0.263   4.551 -0.8249 -1.3251 -0.3262
   23MOL   H28011764   3.011   0.126   4.109 -1.3500  0.1408 -0.3219
   23MOL   H28111765   2.842   0.243   4.277 -0.5684  0.4775 -0.1045
   23MOL   H28211766   2.933   0.315   4.493  0.7835  0.6905  1.2862
   23MOL   H28311767   3.165   0.281   4.551 -1.3049  3.5546  0.1525
   23MOL   H28411768   3.624   0.197   4.234 -1.2886 -1.4368  1.7581
   23MOL   H28511769   3.657   0.133   3.991 -0.7088 -1.4888 -2.2205
   23MOL   H28611770   3.457   0.090   3.853  2.5993  1.3744  0.5066
   23MOL   H28711771   3.228   0.083   3.952  0.0975  0.1472  0.2160
   23MOL   C28811772   3.529   0.129   4.509 -0.1101  1.1765 -0.1252
   23MOL   C28911773   3.472   8.224   4.484  0.6940 -0.3772 -0.0582
   23MOL   N29011774   3.566   8.108   4.498  0.2484 -0.2884  0.7021
   23MOL   C29111775   3.627   8.041   4.384  0.0481  0.5290 -0.1040
   23MOL   C29211776   3.714   7.941   4.437  0.4962  0.3982 -0.3343
   23MOL   C29311777   3.782   7.859   4.345 -0.3372  0.2935  0.2494
   23MOL   C29411778   3.774   7.882   4.203  0.0759 -0.2170  0.6479
   23MOL   C29511779   3.692   7.985   4.161 -0.1981 -0.2921 -0.1441
   23MOL   C29611780   3.618   8.063   4.249 -1.4157 -0.2884 -0.3440
   23MOL   C29711781   3.708   7.950   4.578 -0.2651  0.3957 -0.1942
   23MOL   C29811782   3.624   8.055   4.610  0.0223 -0.9629 -0.2841
   23MOL   C29911783   3.600   8.087   4.743  0.0507 -0.6958  0.0690
   23MOL   C30011784   3.660   8.014   4.846  0.1066  0.2709  0.0326
   23MOL   C30111785   3.742   7.902   4.819  0.1272 -0.6318  0.4034
   23MOL   C30211786   3.764   7.864   4.687  0.1159 -0.3719  0.1416
   23MOL   H30311787   3.620   0.137   4.449 -0.3726 -0.5547 -0.7761
   23MOL   H30411788   3.555   0.133   4.615 -0.9325  0.3381  0.1205
   23MOL   H30511789   3.453   0.002   4.376 -0.4103 -1.5450  0.0547
   23MOL   H30611790   3.842   7.779   4.384  0.6083  1.0675  0.3956
   23MOL   H30711791   3.832   7.824   4.134  1.2952  0.6858  0.9105
   23MOL   H30811792   3.677   8.003   4.055  0.3124  0.2765 -0.1229
   23MOL   H30911793   3.548   8.131   4.204  1.5054  2.7366 -0.5025
   23MOL   H31011794   3.535   8.169   4.768  0.3019 -0.7595  0.9507
   23MOL   H31111795   3.628   8.026   4.949  0.0635 -0.5617  0.1207
   23MOL   H31211796   3.780   7.840   4.898 -0.1812  0.7587  1.6711
   23MOL   H31311797   3.829   7.781   4.665  1.2661  0.1949  1.3146
   23MOL   C31411798   3.336   8.190   4.548 -0.6951  0.9133  0.1898
   23MOL   C31511799   3.283   8.052   4.491 -0.3749  0.9138 -0.3546
   23MOL   N31611800   3.166   8.014   4.567  0.2736 -0.1742 -0.1849
   23MOL   C31711801   3.172   7.913   4.665  0.0304  0.2835 -0.0474
   23MOL   C31811802   3.043   7.887   4.715 -0.4832 -0.4102 -0.3694
   23MOL   C31911803   3.034   7.782   4.813 -0.0990  0.8300  0.2375
   23MOL   C32011804   3.145   7.715   4.862  0.4234  0.3207  0.2090
   23MOL   C32111805   3.274   7.762   4.827  0.0819 -0.3775 -0.0350
   23MOL   C32211806   3.283   7.851   4.715  0.3787 -0.0959 -0.2071
   23MOL   C32311807   2.958   7.975   4.649  0.8635  0.3294  0.3713
   23MOL   C32411808   3.037   8.068   4.579  0.4235  0.0320 -0.6676
   23MOL   C32511809   2.978   8.185   4.525 -0.1317  0.7153  0.2250
   23MOL   C32611810   2.841   8.222   4.541 -0.0550  0.3027  0.1705
   23MOL   C32711811   2.762   8.126   4.601  0.7280 -0.2095 -0.0501
   23MOL   C32811812   2.819   8.009   4.654 -0.2079  0.3356 -0.0590
   23MOL   H32911813   3.361   8.181   4.654 -0.8966 -4.0235 -0.0933
   23MOL   H33011814   3.273   0.047   4.519  1.1581  2.6361  1.0093
   23MOL   H33111815   3.359   7.974   4.490 -0.0040  1.2642  0.2074
   23MOL   H33211816   2.935   7.760   4.850 -0.0361  0.1246 -0.0230
   23MOL   H33311817   3.136   7.634   4.933 -2.5545 -1.0078 -1.5740
   23MOL   H33411818   3.359   7.725   4.882  2.1211  4.5850  0.4655
   23MOL   H33511819   3.375   7.900   4.688  0.4575  0.5654  1.2178
   23MOL   H33611820   3.038   0.029   4.470  1.4347 -1.7643 -1.3239
   23MOL   H33711821   2.794   0.086   4.509 -1.2773 -0.3398  0.0805
   23MOL   H33811822   2.656   8.141   4.618  0.5341 -1.7372  0.1392
   23MOL   H33911823   2.759   7.947   4.718  0.0103 -0.6950 -0.8345
   23MOL   C34011824   3.257   8.064   4.338  0.2601  0.0369 -0.1187
   23MOL   C34111825   3.149   7.966   4.282 -0.1587  0.3062 -0.0565
   23MOL   N34211826   3.127   8.004   4.141  0.3104 -0.7025 -0.0133
   23MOL   C34311827   3.007   8.068   4.101  0.7166  0.7109 -0.2921
   23MOL   C34411828   3.017   8.107   3.966 -0.1870 -0.2482  0.1086
   23MOL   C34511829   2.912   8.173   3.900 -0.2182 -0.0153 -0.2143
   23MOL   C34611830   2.798   8.203   3.973 -0.3831  0.1542 -0.1531
   23MOL   C34711831   2.781   8.159   4.107 -0.4752  0.3852 -0.1608
   23MOL   C34811832   2.893   8.097   4.180  0.1692 -0.1925  0.1511
   23MOL   C34911833   3.143   8.056   3.922  0.0826  0.8268  0.2220
   23MOL   C35011834   3.209   7.999   4.033  0.4039 -0.1929 -0.2557
   23MOL   C35111835   3.344   7.959   4.022  0.4636  0.5368  0.8617
   23MOL   C35211836   3.412   7.966   3.899 -0.2161  0.1385 -0.1528
   23MOL   C35311837   3.339   8.018   3.787 -0.4068 -0.3612 -0.7040
   23MOL   C35411838   3.205   8.059   3.795 -0.3506  0.1711  0.1568
   23MOL   H35511839   3.218   8.164   4.324 -2.3115 -1.2291 -2.5256
   23MOL   H35611840   3.351   8.048   4.285 -0.3057 -1.3221 -0.7452
   23MOL   H35711841   3.054   7.975   4.335 -0.7813  1.6048 -1.3820
   23MOL   H35811842   2.920   8.176   3.793 -1.2345  0.0246 -0.2912
   23MOL   H35911843   2.717   0.014   3.912 -0.4216  0.8725  0.3503
   23MOL   H36011844   2.681   8.160   4.149 -0.3000  1.2810  0.2498
   23MOL   H36111845   2.882   8.068   4.284  1.6852 -0.5475  0.2116
   23MOL   H36211846   3.408   7.927   4.102  1.2630 -2.1919 -0.8310
   23MOL   H36311847   3.513   7.930   3.894 -0.3188  0.1382 -2.9252
   23MOL   H36411848   3.383   8.040   3.691 -1.0797  0.4974 -0.8163
   23MOL   H36511849   3.154   8.093   3.706 -2.6302  1.5301  1.9359
   23MOL   C36611850   3.179   7.815   4.302 -0.7005 -0.1788 -0.1297
   23MOL   C36711851   3.067   7.724   4.246 -0.5948 -0.4417 -0.6413
   23MOL   N36811852   3.123   7.591   4.242  0.2899  0.4543  0.3792
   23MOL   C36911853   3.120   7.510   4.129 -0.4197  0.6470  0.2688
   23MOL   C37011854   3.176   7.387   4.159 -0.2787  0.1563 -0.4904
   23MOL   C37111855   3.173   7.288   4.060  0.0753  0.4155 -0.0632
   23MOL   C37211856   3.113   7.308   3.938  0.2786  0.1020 -0.0582
   23MOL   C37311857   3.065   7.439   3.905  1.0866 -0.1410  0.1357
   23MOL   C37411858   3.062   7.535   4.003 -0.3433 -0.1488  0.5896
   23MOL   C37511859   3.213   7.387   4.296  0.3471 -0.0229  0.2333
   23MOL   C37611860   3.174   7.510   4.345  0.4932  0.0178  0.1075
   23MOL   C37711861   3.191   7.538   4.482  0.3439  0.7106 -0.0704
   23MOL   C37811862   3.246   7.438   4.568  0.5320 -0.3944  0.4408
   23MOL   C37911863   3.285   7.311   4.519  0.1223 -0.0307  0.0755
   23MOL   C38011864   3.269   7.287   4.379  0.1998  0.3036 -1.0952
   23MOL   H38111865   3.265   7.785   4.242 -1.9181 -1.1359 -1.4541
   23MOL   H38211866   3.210   7.793   4.404  1.8866 -0.4546 -0.9426
   23MOL   H38311867   3.051   7.762   4.145 -0.5984 -1.3288 -0.9760
   23MOL   H38411868   3.215   7.193   4.092  2.4658  1.2527 -0.6111
   23MOL   H38511869   3.103   7.233   3.861 -0.2164  2.1214 -2.0288
   23MOL   H38611870   3.014   7.459   3.811  0.0142  0.3825  0.8216
   23MOL   H38711871   3.011   7.628   3.988 -0.5442 -0.2866  0.4242
   23MOL   H38811872   3.152   7.621   4.538 -1.5209 -0.8020  0.9492
   23MOL   H38911873   3.255   7.469   4.671  2.6425  1.4549 -0.2577
   23MOL   H39011874   3.328   7.235   4.584  2.1981  0.7537 -0.3338
   23MOL   H39111875   3.291   7.188   4.343 -0.7650 -0.3883  0.2149
   23MOL   C39211876   2.942   7.740   4.333 -0.7010  0.3115  0.2414
   23MOL   C39311877   2.846   7.620   4.337 -1.4611 -0.6596 -0.3817
   23MOL   N39411878   2.782   7.621   4.469 -0.3566  0.3211 -0.1269
   23MOL   C39511879   2.802   7.526   4.575 -0.0043 -0.1948 -0.0126
   23MOL   C39611880   2.714   7.563   4.681 -0.3157 -0.3406 -0.0315
   23MOL   C39711881   2.712   7.479   4.801  0.5798  0.3627  0.4927
   23MOL   C39811882   2.777   7.357   4.802 -0.1756 -0.2313 -0.6526
   23MOL   C39911883   2.879   7.331   4.702  0.2391 -0.0362 -0.3840
   23MOL   C40011884   2.885   7.409   4.586 -0.1112  0.2072 -0.0918
   23MOL   C40111885   2.645   7.684   4.636  0.4766  0.4057 -0.3672
   23MOL   C40211886   2.688   7.719   4.512 -0.3815  0.3045  0.1055
   23MOL   C40311887   2.638   7.835   4.447  0.0945 -0.3658 -0.1083
   23MOL   C40411888   2.533   7.907   4.506  0.2115 -0.1284  0.0481
   23MOL   C40511889   2.492   7.872   4.636 -0.1575  0.5244  0.3852
   23MOL   C40611890   2.545   7.758   4.702 -0.3940 -0.3514  0.2010
   23MOL   H40711891   2.961   7.775   4.434 -1.0567 -0.3580  0.5425
   23MOL   H40811892   2.889   7.827   4.295 -0.9345  0.0543 -0.0247
   23MOL   H40911893   2.915   7.535   4.341  1.5848  1.7278 -0.6051
   23MOL   H41011894   2.658   7.506   4.891 -1.0248  0.5721 -0.5197
   23MOL   H41111895   2.769   7.298   4.893  0.9709 -0.0172 -0.3983
   23MOL   H41211896   2.944   7.245   4.710 -0.0241 -0.1826  0.1884
   23MOL   H41311897   2.947   7.363   4.511  0.7378  0.4820  0.4348
   23MOL   H41411898   2.672   7.864   4.349  0.2990 -1.4486 -0.3589
   23MOL   H41511899   2.489   7.988   4.450  1.1606  1.4880  1.5879
   23MOL   H41611900   2.417   7.928   4.690  0.5747  1.6913  0.2005
   23MOL   H41711901   2.513   7.735   4.803  0.5058 -0.4875  0.4642
   23MOL   C41811902   2.757   7.604   4.218 -0.2575  0.2902 -0.4105
   23MOL   C41911903   2.693   7.472   4.221  0.2861 -0.6460 -0.2944
   23MOL   N42011904   2.570   7.477   4.138  0.2290 -0.3127  0.0899
   23MOL   C42111905   2.436   7.475   4.182  0.6223 -0.1188  1.0387
   23MOL   C42211906   2.347   7.490   4.076 -0.5916 -0.0445 -0.0064
   23MOL   C42311907   2.209   7.477   4.105 -0.5298  0.1702  0.4049
   23MOL   C42411908   2.160   7.464   4.239 -0.8085  0.0757  0.5835
   23MOL   C42511909   2.250   7.446   4.340  1.2289  0.6590  0.1111
   23MOL   C42611910   2.385   7.462   4.316  1.0668  0.5595  0.1018
   23MOL   C42711911   2.426   7.512   3.961 -0.2192 -0.7404 -0.4406
   23MOL   C42811912   2.564   7.508   4.001 -0.5818  0.6229  0.1819
   23MOL   C42911913   2.667   7.531   3.908 -0.0672 -0.2833 -0.3735
   23MOL   C43011914   2.639   7.531   3.767  0.8696  0.4779  0.3506
   23MOL   C43111915   2.504   7.529   3.727  0.7985 -0.2580 -0.0624
   23MOL   C43211916   2.401   7.515   3.823 -0.2325 -0.1906  0.1118
   23MOL   H43311917   2.679   7.676   4.243  0.4872  0.1599  2.5678
   23MOL   H43411918   2.796   7.637   4.122  1.4729  0.2748  0.2752
   23MOL   H43511919   2.669   7.444   4.324  2.4477  2.6380  1.1974
   23MOL   H43611920   2.135   7.490   4.027  1.6748 -0.0757 -1.8052
   23MOL   H43711921   2.054   7.450   4.255 -1.5878  2.1043 -2.3161
   23MOL   H43811922   2.216   7.429   4.441 -0.0479  3.2581  0.1488
   23MOL   H43911923   2.452   7.448   4.400 -0.0972 -0.6705  0.8380
   23MOL   H44011924   2.770   7.544   3.938  0.2284 -0.2389 -1.3785
   23MOL   H44111925   2.708   7.551   3.686  0.3433  0.1072 -0.1884
   23MOL   H44211926   2.470   7.549   3.627 -0.9983  0.6800  0.7199
   23MOL   H44311927   2.296   7.516   3.796 -1.3219 -0.7428  3.9453
   23MOL   C44411928   2.785   7.356   4.187 -0.1461  0.2896  0.1276
   23MOL   C44511929   2.721   7.221   4.206  0.5977  0.1337  0.5813
   23MOL   N44611930   2.798   7.118   4.132  0.2164  0.1968 -0.4915
   23MOL   C44711931   2.755   7.062   4.013  0.3184 -0.1876  0.2511
   23MOL   C44811932   2.837   6.950   3.985 -0.1209  0.0522  0.2792
   23MOL   C44911933   2.809   6.868   3.870 -0.1221  0.7496  0.6912
   23MOL   C45011934   2.697   6.899   3.791 -0.2697 -0.0420 -0.5954
   23MOL   C45111935   2.621   7.011   3.817  0.5051 -0.0575  0.1844
   23MOL   C45211936   2.638   7.086   3.930  0.4505 -0.3693  0.1488
   23MOL   C45311937   2.935   6.945   4.085  0.1162 -0.5165 -0.5106
   23MOL   C45411938   2.915   7.052   4.175  0.5592 -0.0099 -0.6668
   23MOL   C45511939   2.998   7.070   4.284 -0.5225  1.0482 -0.1605
   23MOL   C45611940   3.099   6.979   4.314  0.0493 -0.3112 -0.5767
   23MOL   C45711941   3.117   6.861   4.232  0.1130  0.4827 -0.1719
   23MOL   C45811942   3.035   6.848   4.116 -0.7317 -0.3159 -0.1513
   23MOL   H45911943   2.818   7.371   4.084 -1.8391  1.7901 -0.2196
   23MOL   H46011944   2.873   7.346   4.251 -0.8157  2.2468  1.3817
   23MOL   H46111945   2.630   7.232   4.146 -0.6653  0.9985  2.6021
   23MOL   H46211946   2.859   6.776   3.843 -0.5599  0.7722 -0.2322
   23MOL   H46311947   2.671   6.842   3.703 -2.4397  0.8396 -0.5727
   23MOL   H46411948   2.532   7.037   3.762  0.9091  0.8813 -0.0468
   23MOL   H46511949   2.572   7.171   3.944  2.2122  1.4402 -2.1186
   23MOL   H46611950   2.978   7.150   4.354 -0.1890  0.0177  1.1424
   23MOL   H46711951   3.166   6.995   4.396 -3.2958  1.9086  1.8257
   23MOL   H46811952   3.189   6.783   4.252 -0.8726 -0.1193  1.0741
   23MOL   H46911953   3.041   6.758   4.057 -1.4136  0.3166 -1.2016
   23MOL   C47011954   2.683   7.182   4.347  0.1304  0.4971  0.0420
   23MOL   C47111955   2.616   7.040   4.366  0.5444 -0.0045  0.4596
   23MOL   N47211956   2.697   6.928   4.398  0.5056  0.6189 -0.2304
   23MOL   C47311957   2.702   6.811   4.325  0.0444 -0.3507  0.4385
   23MOL   C47411958   2.802   6.723   4.380  0.0151 -0.2431  0.4975
   23MOL   C47511959   2.825   6.598   4.317 -0.4773 -0.1821 -0.1463
   23MOL   C47611960   2.752   6.550   4.198 -0.2829 -0.3053 -0.9100
   23MOL   C47711961   2.651   6.637   4.145 -0.2856 -0.6876 -0.4123
   23MOL   C47811962   2.628   6.768   4.204  0.2272  0.3369 -1.0262
   23MOL   C47911963   2.842   6.784   4.497  0.3012  0.4881 -0.0178
   23MOL   C48011964   2.781   6.909   4.506 -0.5686 -0.1258  0.6004
   23MOL   C48111965   2.811   6.998   4.614  0.2365  0.5039  0.6210
   23MOL   C48211966   2.890   6.948   4.721 -0.1027  0.3737 -0.5589
   23MOL   C48311967   2.957   6.823   4.709  0.0450 -0.0682  0.1231
   23MOL   C48411968   2.936   6.742   4.596 -0.4384  0.4915 -0.1927
   23MOL   H48511969   2.771   7.177   4.411  0.5996  0.3114 -0.6087
   23MOL   H48611970   2.606   7.252   4.377 -2.5942 -2.4733  0.3242
   23MOL   H48711971   2.572   7.021   4.268  0.1201  1.4236  0.3674
   23MOL   H48811972   2.904   6.538   4.359 -1.2282  0.0016  1.5358
   23MOL   H48911973   2.772   6.456   4.149 -1.9098 -0.0464 -2.1104
   23MOL   H49011974   2.591   6.610   4.059 -2.1660 -1.4098  1.0922
   23MOL   H49111975   2.550   6.813   4.145 -0.8924  1.7397  1.4323
   23MOL   H49211976   2.777   7.101   4.616  0.3653  0.5515  4.4023
   23MOL   H49311977   2.910   7.006   4.810  0.9853 -0.2172 -0.4199
   23MOL   H49411978   3.003   6.785   4.799  0.5256  0.8366  0.2634
   23MOL   H49511979   2.994   6.654   4.570  1.0312  0.9754  1.3588
   23MOL   C49611980   2.488   7.046   4.462  0.3728 -0.3888 -0.1683
   23MOL   C49711981   2.355   7.066   4.401  0.2152 -0.3584  0.3057
   23MOL   N49811982   2.321   6.974   4.302  0.0442  0.6177 -0.4604
   23MOL   C49911983   2.299   7.000   4.164 -0.3012  0.5011  0.3063
   23MOL   C50011984   2.281   6.877   4.100  0.4810  0.0939 -0.6650
   23MOL   C50111985   2.246   6.883   3.962 -0.2436 -0.1300  0.5980
   23MOL   C50211986   2.253   7.004   3.890  0.8624  0.1637 -0.1437
   23MOL   C50311987   2.278   7.123   3.958 -0.6768  0.3399  0.4256
   23MOL   C50411988   2.295   7.120   4.098 -0.0946 -0.0107  0.0693
   23MOL   C50511989   2.279   6.772   4.194  0.3805  0.1693 -0.1216
   23MOL   C50611990   2.295   6.838   4.321  0.0596  0.6397  0.1339
   23MOL   C50711991   2.279   6.760   4.444  0.6953 -0.2288 -0.7138
   23MOL   C50811992   2.274   6.615   4.442 -0.3319  0.2419 -0.1506
   23MOL   C50911993   2.274   6.553   4.310  0.1439 -0.0800  0.1168
   23MOL   C51011994   2.264   6.628   4.189 -0.4539 -0.8154 -0.1160
   23MOL   H51111995   2.489   6.952   4.517 -1.3140 -0.6784 -0.6159
   23MOL   H51211996   2.505   7.121   4.539 -1.6059 -2.3520  2.2584
   23MOL   H51311997   2.362   7.164   4.355 -1.8672 -0.6695 -0.7261
   23MOL   H51411998   2.219   6.794   3.908  0.1671  1.8650 -3.0860
   23MOL   H51511999   2.242   7.007   3.782  1.7939  2.1351 -0.2131
   23MOL   H51612000   2.286   7.218   3.908  0.9612  0.4095  0.7997
   23MOL   H51712001   2.317   7.215   4.144 -1.5572 -0.7388  2.3481
   23MOL   H51812002   2.295   6.809   4.539  2.2129  1.1887 -1.6583
   23MOL   H51912003   2.270   6.548   4.527  0.0662  0.1761 -0.1803
   23MOL   H52012004   2.269   6.445   4.303 -0.2345 -0.1131  0.8786
   23MOL   H52112005   2.245   6.587   4.091 -0.0384  0.0898 -0.5802
   23MOL   H52212006   2.268   7.070   4.466  0.8290  1.5385  1.0399
   24MOL     C112007   2.608   4.227   4.941  0.7317  0.1485  0.0450
   24MOL     C212008   2.597   4.204   4.785  0.8211  0.2251 -0.2573
   24MOL     N312009   2.714   4.131   4.736  0.7331 -0.5397  0.1136
   24MOL     C412010   2.786   4.174   4.625  0.0187 -0.1882 -0.2934
   24MOL     C512011   2.882   4.073   4.587  0.8719 -0.4785 -0.1395
   24MOL     C612012   2.962   4.104   4.476 -0.1295  0.2343  0.1308
   24MOL     C712013   2.954   4.227   4.404 -0.0278 -1.3440 -0.0997
   24MOL     C812014   2.849   4.321   4.432  0.7602  0.8903 -0.2551
   24MOL     C912015   2.771   4.291   4.545 -0.8171  0.1156  0.4218
   24MOL    C1012016   2.859   3.958   4.672  0.0542 -0.5534  1.1305
   24MOL    C1112017   2.754   3.995   4.760  0.8450 -0.5929 -0.4136
   24MOL    C1212018   2.702   3.897   4.854  0.4547 -0.3000  0.6456
   24MOL    C1312019   2.765   3.772   4.858  0.4249 -0.2751 -1.0561
   24MOL    C1412020   2.867   3.734   4.769  0.1538 -0.2460  0.2937
   24MOL    C1512021   2.910   3.824   4.675  0.8396 -0.1955 -0.2566
   24MOL    H1612022   2.702   4.270   4.975  0.0698  1.2800  0.4836
   24MOL    H1712023   2.601   4.131   4.991 -3.8560  0.5088  0.3406
   24MOL    H1812024   2.587   4.300   4.734 -0.2945 -0.0155 -0.5046
   24MOL    H1912025   3.044   4.036   4.463 -0.2295  0.5009 -1.9770
   24MOL    H2012026   3.030   4.251   4.330 -1.9891 -2.9925 -2.7120
   24MOL    H2112027   2.845   4.414   4.379 -2.3853  0.1557 -1.4059
   24MOL    H2212028   2.704   4.370   4.576 -1.0469  0.4951 -0.9892
   24MOL    H2312029   2.614   3.916   4.914  0.1886  1.1161 -0.1799
   24MOL    H2412030   2.740   3.702   4.936  0.8742  0.8695  0.1395
   24MOL    H2512031   2.904   3.632   4.773  1.2065  0.0647 -1.1401
   24MOL    H2612032   2.982   3.789   4.603  0.4992 -1.8916  0.2008
   24MOL    H2712033   2.529   4.286   4.987  0.2623 -1.4325  1.2957
   24MOL    C2812034   2.470   4.135   4.730  0.3106 -0.2961 -0.8755
   24MOL    C2912035   2.333   4.201   4.743 -0.9047  0.7181  0.2854
   24MOL    N3012036   2.319   4.330   4.688  0.4599 -0.0205  0.4128
   24MOL    C3112037   2.281   4.446   4.760 -0.6439  0.4122  0.1307
   24MOL    C3212038   2.262   4.547   4.662 -0.2377  0.2635  0.1067
   24MOL    C3312039   2.223   4.669   4.717 -1.0342  0.4889  0.0497
   24MOL    C3412040   2.200   4.695   4.853 -0.2689 -0.3440  0.2096
   24MOL    C3512041   2.208   4.596   4.949 -0.2301  0.5171  0.2648
   24MOL    C3612042   2.257   4.469   4.902 -0.2852  0.2944  0.0303
   24MOL    C3712043   2.287   4.490   4.529  0.1268 -0.1601 -0.0658
   24MOL    C3812044   2.320   4.357   4.552 -0.5703 -0.2779 -0.4112
   24MOL    C3912045   2.347   4.271   4.445  0.1132  0.3203  0.0751
   24MOL    C4012046   2.340   4.322   4.318 -0.1297  0.4138  0.1117
   24MOL    C4112047   2.320   4.455   4.289 -0.2756  0.2873 -0.6299
   24MOL    C4212048   2.298   4.543   4.397  0.0350 -0.5610  0.3497
   24MOL    H4312049   2.485   4.106   4.626 -0.7487  0.8848 -1.3654
   24MOL    H4412050   2.460   4.038   4.779  1.6801 -0.3224 -0.6370
   24MOL    H4512051   2.314   4.209   4.850 -1.3998 -0.3349  0.2811
   24MOL    H4612052   2.197   4.748   4.648 -0.5485 -0.6731 -1.4824
   24MOL    H4712053   2.175   4.794   4.888  3.2085  0.5844  0.2231
   24MOL    H4812054   2.199   4.613   5.055 -0.9941  2.9054 -0.1509
   24MOL    H4912055   2.266   4.389   4.975 -0.7947  1.1965  1.0922
   24MOL    H5012056   2.370   4.165   4.452 -0.5205  0.0419 -1.6441
   24MOL    H5112057   2.373   4.257   4.238 -0.8801  0.2814 -0.0888
   24MOL    H5212058   2.316   4.498   4.190 -0.1825  0.8251 -0.4015
   24MOL    H5312059   2.278   4.648   4.381 -1.3767 -0.5528  1.9451
   24MOL    C5412060   2.220   4.094   4.699  0.6486 -0.0411 -0.5147
   24MOL    C5512061   2.103   4.078   4.805  0.3782 -0.2696  0.2261
   24MOL    N5612062   2.016   4.198   4.815 -0.2006 -0.0569 -0.2985
   24MOL    C5712063   1.994   4.276   4.931 -0.7855 -1.0307  0.6740
   24MOL    C5812064   1.922   4.391   4.891  0.2845 -0.3782 -0.2559
   24MOL    C5912065   1.886   4.488   4.985  0.0928 -0.2906 -0.1374
   24MOL    C6012066   1.922   4.458   5.120  0.4960  0.2508  0.1092
   24MOL    C6112067   1.997   4.351   5.163  0.2498  0.0549 -0.1938
   24MOL    C6212068   2.040   4.262   5.065 -0.6804  0.0990 -0.1040
   24MOL    C6312069   1.888   4.378   4.756  0.2737 -0.8581  0.3443
   24MOL    C6412070   1.940   4.255   4.708  0.1542  0.9671 -0.3956
   24MOL    C6512071   1.923   4.206   4.576 -0.2862  0.1362 -0.1920
   24MOL    C6612072   1.844   4.284   4.489 -0.9253  0.5121  0.0938
   24MOL    C6712073   1.801   4.410   4.526 -0.4679  0.4017  0.0394
   24MOL    C6812074   1.821   4.453   4.658 -0.2355 -0.5190  0.6442
   24MOL    H6912075   2.181   4.129   4.603  0.7848 -0.4148 -0.7052
   24MOL    H7012076   2.258   3.996   4.669  0.0178 -0.2274 -0.7357
   24MOL    H7112077   2.154   4.067   4.901 -1.2871 -0.2487  1.1368
   24MOL    H7212078   1.822   4.566   4.948  0.9162  0.3025 -0.3074
   24MOL    H7312079   1.892   4.525   5.199 -0.1904  0.1965 -0.1064
   24MOL    H7412080   2.009   4.328   5.268 -3.4829 -0.7359  0.1117
   24MOL    H7512081   2.094   4.175   5.099 -0.6174  1.1027  2.5161
   24MOL    H7612082   1.949   4.104   4.552  1.2176 -0.0961  2.1851
   24MOL    H7712083   1.840   4.248   4.388 -1.7096  1.4882 -0.2201
   24MOL    H7812084   1.745   4.465   4.452 -1.9009 -0.9931  0.0488
   24MOL    H7912085   1.790   4.551   4.692  0.1410 -0.4628  0.8264
   24MOL    C8012086   2.017   3.950   4.785  0.0235 -0.0078 -0.3817
   24MOL    C8112087   2.082   3.820   4.839  0.1101 -0.5518  0.8995
   24MOL    N8212088   2.112   3.831   4.982 -0.2250  0.6163  0.4701
   24MOL    C8312089   2.229   3.781   5.039 -0.2427 -0.3828 -0.1942
   24MOL    C8412090   2.231   3.812   5.178 -0.1851  0.4893 -0.3192
   24MOL    C8512091   2.352   3.786   5.243  0.6885  0.9228  0.1465
   24MOL    C8612092   2.470   3.738   5.180  0.3519  0.5884 -0.3466
   24MOL    C8712093   2.469   3.709   5.044 -0.1806 -0.1001 -0.0951
   24MOL    C8812094   2.347   3.727   4.970  0.2132  0.4220 -0.5230
   24MOL    C8912095   2.104   3.862   5.210  0.1615 -0.4545 -0.7386
   24MOL    C9012096   2.033   3.870   5.088  0.1063 -0.2448 -0.3114
   24MOL    C9112097   1.895   3.904   5.092  0.2947  0.0516  0.3375
   24MOL    C9212098   1.834   3.949   5.215  0.3069 -0.4920 -0.0578
   24MOL    C9312099   1.909   3.961   5.332  0.5790  0.2819  0.2190
   24MOL    C9412100   2.045   3.918   5.325 -0.0964  0.1919 -0.2316
   24MOL    H9512101   1.923   3.974   4.835 -0.4293 -0.7414 -0.8695
   24MOL    H9612102   1.988   3.945   4.680  1.2835  1.5902 -0.8069
   24MOL    H9712103   2.174   3.815   4.780  0.4773  2.0809  1.1860
   24MOL    H9812104   2.353   3.801   5.350 -0.9440 -0.0261  0.3138
   24MOL    H9912105   2.558   3.733   5.243  1.9397 -5.7950 -2.6099
   24MOL   H10012106   2.559   3.676   4.994  0.5752  2.6890 -0.7056
   24MOL   H10112107   2.348   3.708   4.863  1.2907  1.7768 -0.7785
   24MOL   H10212108   1.843   3.898   4.998 -0.2301 -2.3372  0.7454
   24MOL   H10312109   1.728   3.968   5.212  0.2526 -0.7881 -0.0025
   24MOL   H10412110   1.865   4.011   5.417  0.1669 -1.5060  1.0718
   24MOL   H10512111   2.095   3.933   5.420  1.5446 -2.3719 -0.6401
   24MOL   C10612112   1.996   3.693   4.815  0.4930  0.4052  0.1942
   24MOL   C10712113   1.990   3.654   4.665  0.3542  0.3184  0.7940
   24MOL   N10812114   2.121   3.621   4.597 -0.2022  0.3151  0.7030
   24MOL   C10912115   2.200   3.700   4.516 -0.2592  0.0567 -0.6964
   24MOL   C11012116   2.324   3.635   4.472 -0.5538  0.3616  0.0192
   24MOL   C11112117   2.416   3.710   4.395  0.2066 -0.2689  0.4345
   24MOL   C11212118   2.388   3.840   4.350  0.2364  0.2347 -0.2396
   24MOL   C11312119   2.265   3.901   4.389 -0.4846 -0.3624  0.3941
   24MOL   C11412120   2.171   3.834   4.473 -0.3122  0.4053  0.4595
   24MOL   C11512121   2.318   3.511   4.536  0.0410 -0.2384 -0.7222
   24MOL   C11612122   2.200   3.510   4.617 -0.1065  0.4167 -0.0219
   24MOL   C11712123   2.178   3.400   4.702 -0.3094  0.0059 -0.4064
   24MOL   C11812124   2.267   3.293   4.704  0.4860  0.5539  0.3673
   24MOL   C11912125   2.386   3.294   4.630 -0.4232  0.8635 -0.3314
   24MOL   C12012126   2.409   3.407   4.542 -0.1018  0.6270 -0.2280
   24MOL   H12112127   2.040   3.608   4.868 -2.2879 -0.8722  0.5386
   24MOL   H12212128   1.895   3.705   4.854 -0.0705  1.0770 -1.4517
   24MOL   H12312129   1.949   3.735   4.604 -1.3638 -1.6801 -0.8089
   24MOL   H12412130   2.506   3.659   4.362  0.0272  0.1148 -0.6774
   24MOL   H12512131   2.456   3.876   4.274 -1.3903  1.4510 -1.1528
   24MOL   H12612132   2.254   4.002   4.354  0.0551 -0.5579 -0.3535
   24MOL   H12712133   2.084   3.889   4.506 -1.4067 -0.1385 -1.4213
   24MOL   H12812134   2.099   3.394   4.775  0.2543 -0.2028  0.1834
   24MOL   H12912135   2.229   3.208   4.758  4.0509 -2.1300 -1.0834
   24MOL   H13012136   2.457   3.213   4.618 -1.8868 -0.6888  1.2720
   24MOL   H13112137   2.498   3.403   4.481 -1.1258 -3.0289 -1.6341
   24MOL   C13212138   1.886   3.537   4.628 -1.2997 -0.0219  0.0984
   24MOL   C13312139   1.737   3.572   4.646  0.4995  1.2111 -0.5821
   24MOL   N13412140   1.705   3.704   4.602 -0.1458  0.2445 -0.0639
   24MOL   C13512141   1.657   3.804   4.688 -0.5023  0.0071  0.1570
   24MOL   C13612142   1.634   3.920   4.611 -0.1145 -0.6282 -0.2869
   24MOL   C13712143   1.575   4.037   4.677  0.5362 -1.4144 -0.1157
   24MOL   C13812144   1.556   4.032   4.819  0.9741  0.0973  0.7709
   24MOL   C13912145   1.588   3.919   4.892  0.5707  0.0775 -0.7121
   24MOL   C14012146   1.648   3.810   4.827 -0.4658  0.5351  0.2698
   24MOL   C14112147   1.669   3.891   4.474  0.3703 -0.4704 -0.1631
   24MOL   C14212148   1.709   3.752   4.472  0.2861  0.3247  0.1308
   24MOL   C14312149   1.747   3.695   4.343  0.7142 -0.8908  0.3858
   24MOL   C14412150   1.759   3.772   4.225  0.2314 -0.1792 -0.3638
   24MOL   C14512151   1.729   3.908   4.233  0.7956  0.3879  0.0302
   24MOL   C14612152   1.684   3.965   4.354 -0.2476  0.1399  0.2149
   24MOL   H14712153   1.905   3.508   4.524  1.4304 -0.1316  0.5781
   24MOL   H14812154   1.912   3.444   4.678 -1.0263  0.5684  1.0667
   24MOL   H14912155   1.735   3.576   4.754  0.6396 -3.4781 -0.3054
   24MOL   H15012156   1.573   4.129   4.619  0.0948 -1.4749 -0.1962
   24MOL   H15112157   1.520   4.120   4.872 -2.3815 -0.6289 -0.1641
   24MOL   H15212158   1.571   3.912   4.998  1.1824  0.1523 -0.6057
   24MOL   H15312159   1.676   3.726   4.889  0.0269  1.2314  0.9957
   24MOL   H15412160   1.764   3.588   4.348 -2.2333 -1.4691 -0.7563
   24MOL   H15512161   1.796   3.725   4.135  0.5435 -3.4157  1.3934
   24MOL   H15612162   1.737   3.971   4.146  0.2510  0.3395 -0.0563
   24MOL   H15712163   1.653   4.069   4.347 -1.2602  0.1038  3.3774
   24MOL   C15812164   1.626   3.474   4.599 -0.0284 -0.3077 -0.1173
   24MOL   C15912165   1.523   3.433   4.709  0.1809  0.5555  0.0700
   24MOL   N16012166   1.392   3.442   4.657 -0.4719 -0.1449  0.4704
   24MOL   C16112167   1.285   3.526   4.709  0.2235  1.0057 -0.2224
   24MOL   C16212168   1.172   3.503   4.632  0.0337  0.1812  0.2933
   24MOL   C16312169   1.045   3.557   4.674  0.2390  0.3989  0.8259
   24MOL   C16412170   1.034   3.645   4.782  0.5854  0.0727  0.0665
   24MOL   C16512171   1.150   3.688   4.845 -0.1172 -0.0879 -0.1364
   24MOL   C16612172   1.277   3.627   4.811 -0.4178  0.1008  0.1137
   24MOL   C16712173   1.201   3.410   4.528  0.0434 -0.3185  0.2852
   24MOL   C16812174   1.339   3.373   4.548 -0.3523 -0.1158 -0.3308
   24MOL   C16912175   1.399   3.279   4.457 -0.3499 -0.6849 -0.2971
   24MOL   C17012176   1.323   3.224   4.348 -0.4322  0.2005  0.4321
   24MOL   C17112177   1.196   3.271   4.326  0.3743 -0.3301  0.7210
   24MOL   C17212178   1.132   3.358   4.418  0.6794 -1.1299  0.0926
   24MOL   H17312179   1.568   3.511   4.515  0.3420 -0.0059 -0.2358
   24MOL   H17412180   1.672   3.384   4.557  0.0078 -2.6769  4.6451
   24MOL   H17512181   1.525   3.505   4.790  1.7011  0.3255  0.2527
   24MOL   H17612182   0.956   3.524   4.621 -0.8826  1.3329  2.0881
   24MOL   H17712183   0.946   3.704   4.804  1.0554  1.2447 -1.1140
   24MOL   H17812184   1.143   3.772   4.912  1.0008  0.3637 -0.5699
   24MOL   H17912185   1.370   3.663   4.854 -0.3803 -1.2933  1.2249
   24MOL   H18012186   1.501   3.243   4.457  0.5793  1.8407 -1.4846
   24MOL   H18112187   1.364   3.150   4.281  0.2645 -0.0021  1.0775
   24MOL   H18212188   1.136   3.230   4.246  1.9791  0.4429 -0.9200
   24MOL   H18312189   1.028   3.384   4.404  1.2308  0.3159 -1.4917
   24MOL   C18412190   1.544   3.293   4.768 -0.0745 -0.3937 -0.3536
   24MOL   C18512191   1.669   3.268   4.860 -0.6759  0.0606 -0.2134
   24MOL   N18612192   1.697   3.360   4.968  1.1823  0.1808 -0.4255
   24MOL   C18712193   1.817   3.392   5.028 -0.9216 -0.2472  0.8632
   24MOL   C18812194   1.810   3.492   5.118  0.3255  0.3290 -0.6182
   24MOL   C18912195   1.922   3.542   5.181 -0.0858  0.2146  0.1685
   24MOL   C19012196   2.043   3.480   5.164  0.0429 -0.3934  0.0995
   24MOL   C19112197   2.056   3.385   5.055 -0.8123 -0.1835 -0.3709
   24MOL   C19212198   1.942   3.339   4.986 -0.5714  0.2722  0.9539
   24MOL   C19312199   1.673   3.526   5.123 -0.2239 -0.4515 -0.6553
   24MOL   C19412200   1.601   3.436   5.039 -0.5271  0.6593 -0.2487
   24MOL   C19512201   1.459   3.443   5.036 -0.7724 -0.3254 -0.1297
   24MOL   C19612202   1.399   3.548   5.106 -0.5242  0.1356  0.9747
   24MOL   C19712203   1.467   3.645   5.179  0.4016  0.2910 -0.1698
   24MOL   C19812204   1.603   3.636   5.179 -0.3541 -0.2285 -0.3442
   24MOL   H19912205   1.457   3.261   4.825 -0.1626 -0.1073 -0.3241
   24MOL   H20012206   1.548   3.225   4.683  0.1828  1.1868 -1.6301
   24MOL   H20112207   1.756   3.266   4.795 -0.9457  1.7782 -0.6441
   24MOL   H20212208   1.913   3.618   5.256 -0.5638 -0.8614  1.2093
   24MOL   H20312209   2.134   3.515   5.209 -0.3948  0.4151  0.3681
   24MOL   H20412210   2.149   3.333   5.033  0.1651  1.0614  0.6980
   24MOL   H20512211   1.950   3.262   4.911  1.2131  1.1268  0.2156
   24MOL   H20612212   1.400   3.371   4.982 -0.1192  0.4641 -1.9117
   24MOL   H20712213   1.292   3.550   5.115 -0.9163 -1.5416 -2.2884
   24MOL   H20812214   1.426   3.719   5.246  1.7945  0.1930  0.8036
   24MOL   H20912215   1.657   3.706   5.241 -0.7550  0.2548 -0.5367
   24MOL   C21012216   1.685   3.118   4.911  0.8875 -0.1837  0.0264
   24MOL   C21112217   1.708   3.017   4.798  0.5833 -0.2166  0.1262
   24MOL   N21212218   1.834   3.019   4.732 -0.0514  0.2609 -0.4912
   24MOL   C21312219   1.872   3.079   4.620  0.0942 -0.1931  0.0458
   24MOL   C21412220   2.014   3.079   4.595  0.8429 -0.0397 -0.3081
   24MOL   C21512221   2.059   3.162   4.493 -0.4322 -0.9935 -0.1070
   24MOL   C21612222   1.975   3.224   4.405  0.0179  0.1369 -0.4440
   24MOL   C21712223   1.840   3.203   4.414 -1.1481  0.2347  0.4351
   24MOL   C21812224   1.787   3.134   4.527  0.2045 -0.1783  0.4360
   24MOL   C21912225   2.061   2.995   4.696  0.0101 -0.1252 -0.5262
   24MOL   C22012226   1.952   2.958   4.782 -0.8656  0.3430 -0.0134
   24MOL   C22112227   1.980   2.890   4.902  0.2733  0.1916  0.6758
   24MOL   C22212228   2.102   2.828   4.926 -0.5643 -0.0369  0.2291
   24MOL   C22312229   2.214   2.868   4.846 -0.0839  0.2285  0.3367
   24MOL   C22412230   2.187   2.951   4.737 -0.2412 -0.0013  0.5588
   24MOL   H22512231   1.764   3.105   4.985  2.3655  1.3501 -1.2603
   24MOL   H22612232   1.593   3.097   4.966  1.0919 -3.2035 -0.7140
   24MOL   H22712233   1.641   3.040   4.716  0.9847 -1.9354 -0.7183
   24MOL   H22812234   2.166   3.175   4.487 -0.2714 -2.2028 -0.1459
   24MOL   H22912235   2.021   3.289   4.331 -0.2865 -0.2775 -1.0030
   24MOL   H23012236   1.778   3.241   4.333 -0.4384 -2.5386 -1.4764
   24MOL   H23112237   1.681   3.124   4.543 -0.1442  1.7457 -0.5052
   24MOL   H23212238   1.910   2.873   4.983 -0.6638  1.8599  0.2282
   24MOL   H23312239   2.119   2.759   5.007  0.1228 -0.7481 -0.5099
   24MOL   H23412240   2.313   2.830   4.863  0.5775  1.6920 -0.2211
   24MOL   H23512241   2.272   2.978   4.676 -0.8066  2.0993  0.6381
   24MOL   C23612242   1.672   2.874   4.842  0.7344  0.7786 -0.1585
   24MOL   C23712243   1.522   2.850   4.844 -0.1148  0.1999  0.0954
   24MOL   N23812244   1.459   2.865   4.713 -0.2647  0.1610 -0.4910
   24MOL   C23912245   1.351   2.949   4.685  0.9535  0.3529  0.0857
   24MOL   C24012246   1.298   2.918   4.560 -0.1508  0.0632 -0.1527
   24MOL   C24112247   1.172   2.971   4.521  0.0455 -0.2237 -0.2100
   24MOL   C24212248   1.098   3.063   4.598 -0.6119 -0.6124  0.0061
   24MOL   C24312249   1.151   3.102   4.719 -0.6630 -0.1003  0.0945
   24MOL   C24412250   1.280   3.044   4.766  0.1333 -0.3072 -0.4916
   24MOL   C24512251   1.391   2.830   4.498 -0.3428  0.2220  0.4585
   24MOL   C24612252   1.495   2.799   4.594  0.4509 -0.1678  0.0217
   24MOL   C24712253   1.598   2.709   4.559 -0.1594  0.7576 -0.4821
   24MOL   C24812254   1.600   2.644   4.431  0.1417 -0.9774 -0.3250
   24MOL   C24912255   1.492   2.676   4.343 -0.1082 -0.3963 -0.3354
   24MOL   C25012256   1.388   2.764   4.368  0.2572 -0.2153 -0.5833
   24MOL   H25112257   1.728   2.800   4.785 -0.4614 -0.6105  0.4587
   24MOL   H25212258   1.713   2.863   4.942  2.4095  1.5534 -0.7333
   24MOL   H25312259   1.483   2.929   4.908  0.5961 -0.4898  1.4026
   24MOL   H25412260   1.125   2.928   4.434  0.9189 -0.3451 -0.6193
   24MOL   H25512261   0.997   3.094   4.573 -0.1383  1.9119  1.1349
   24MOL   H25612262   1.088   3.169   4.776  0.8807 -0.9010  2.8084
   24MOL   H25712263   1.330   3.072   4.857  0.1856 -3.8783  0.6600
   24MOL   H25812264   1.675   2.680   4.630  0.1135 -0.4167 -1.2475
   24MOL   H25912265   1.677   2.577   4.396  0.8141 -0.3151 -0.1233
   24MOL   H26012266   1.501   2.624   4.248 -0.3115  2.2562 -1.8674
   24MOL   H26112267   1.314   2.796   4.296 -1.4394 -0.0697  1.1897
   24MOL   C26212268   1.476   2.723   4.912 -0.5065  0.1171 -0.2267
   24MOL   C26312269   1.491   2.702   5.067 -0.0511 -0.5603  0.4082
   24MOL   N26412270   1.497   2.831   5.142  0.1914  0.5475 -0.2170
   24MOL   C26512271   1.608   2.888   5.205 -0.5815 -0.3932 -0.2001
   24MOL   C26612272   1.577   3.021   5.237  0.4231 -0.3414 -0.5976
   24MOL   C26712273   1.681   3.098   5.289  0.3454  0.2119  0.4412
   24MOL   C26812274   1.808   3.045   5.323 -0.4046 -0.6160 -0.1451
   24MOL   C26912275   1.843   2.915   5.282  0.5484 -0.2953  0.0694
   24MOL   C27012276   1.740   2.838   5.217  0.2726  0.5473  0.7426
   24MOL   C27112277   1.440   3.045   5.209  0.3853  0.5984  0.1697
   24MOL   C27212278   1.394   2.923   5.148  0.2993 -0.7706  0.8371
   24MOL   C27312279   1.258   2.914   5.107  0.1386 -0.2000 -0.6075
   24MOL   C27412280   1.170   3.021   5.110  0.6894 -0.7193  0.1249
   24MOL   C27512281   1.214   3.140   5.179  0.1845 -0.4615 -0.5693
   24MOL   C27612282   1.346   3.148   5.226  0.4938  0.3862  0.2940
   24MOL   H27712283   1.369   2.722   4.890 -0.2392  2.1146 -1.7720
   24MOL   H27812284   1.510   2.637   4.853 -1.3563 -0.6545  0.4027
   24MOL   H27912285   1.584   2.646   5.061  0.4902 -0.0473  3.4844
   24MOL   H28012286   1.654   3.197   5.323  1.1620  1.0250 -1.2419
   24MOL   H28112287   1.891   3.102   5.362  1.0745 -2.2910 -0.7288
   24MOL   H28212288   1.941   2.870   5.282  0.8327  0.3051 -1.0859
   24MOL   H28312289   1.776   2.740   5.186  2.8252  1.6195  0.1741
   24MOL   H28412290   1.222   2.819   5.070  2.4632 -0.9490 -1.0335
   24MOL   H28512291   1.068   3.016   5.075  1.6105 -0.7077 -2.7299
   24MOL   H28612292   1.148   3.224   5.195  1.0153 -0.0514  0.8054
   24MOL   H28712293   1.385   3.240   5.265  2.4429 -0.6570  0.8603
   24MOL   C28812294   1.392   2.600   5.127 -0.3714  0.2490 -0.9711
   24MOL   C28912295   1.439   2.497   5.226 -0.3024  0.3106 -0.2988
   24MOL   N29012296   1.522   2.553   5.328 -0.2216  0.0587 -0.1485
   24MOL   C29112297   1.650   2.497   5.360  0.1873  0.2338 -0.1581
   24MOL   C29212298   1.699   2.568   5.475  0.1275 -0.0879 -0.0789
   24MOL   C29312299   1.827   2.529   5.523 -0.9001  0.1356  0.0151
   24MOL   C29412300   1.902   2.429   5.463 -0.0356  0.2228 -0.5458
   24MOL   C29512301   1.853   2.363   5.350  1.3532  0.8833 -0.5430
   24MOL   C29612302   1.721   2.391   5.310 -0.1247  0.0824 -0.0026
   24MOL   C29712303   1.597   2.658   5.518 -0.2295  0.1446 -0.3975
   24MOL   C29812304   1.489   2.657   5.419 -0.8850 -0.0935 -0.4596
   24MOL   C29912305   1.370   2.738   5.440 -0.0028  0.2308 -0.3211
   24MOL   C30012306   1.371   2.828   5.542  0.4818 -0.0974 -0.1072
   24MOL   C30112307   1.478   2.839   5.634  0.2563 -0.3051 -0.2620
   24MOL   C30212308   1.578   2.743   5.629 -0.1822 -0.4208 -0.0139
   24MOL   H30312309   1.313   2.659   5.173 -0.0656 -0.7137  0.8140
   24MOL   H30412310   1.343   2.547   5.045 -0.7594  1.1024 -1.3045
   24MOL   H30512311   1.511   2.442   5.166  2.0199  3.2932 -0.3560
   24MOL   H30612312   1.865   2.572   5.615  0.4672 -0.5951 -0.1982
   24MOL   H30712313   2.000   2.408   5.503 -0.1909 -1.9626 -1.2127
   24MOL   H30812314   1.916   2.290   5.301  0.1898  0.9484 -2.1540
   24MOL   H30912315   1.680   2.322   5.238  1.7333  0.4488 -1.4336
   24MOL   H31012316   1.287   2.745   5.371 -0.2852  2.1095  0.1897
   24MOL   H31112317   1.303   2.912   5.545  0.7126  0.1144 -0.6873
   24MOL   H31212318   1.480   2.919   5.706  0.3043  1.0016 -1.6799
   24MOL   H31312319   1.653   2.747   5.706  2.3621  1.9583 -2.4708
   24MOL   C31412320   1.327   2.395   5.272  0.2430  0.2056 -1.0223
   24MOL   C31512321   1.307   2.280   5.169 -0.1623 -0.4037 -0.4572
   24MOL   N31612322   1.403   2.173   5.194  0.2993  0.0213  0.9765
   24MOL   C31712323   1.505   2.131   5.106  0.0675  0.0093  0.1581
   24MOL   C31812324   1.549   2.003   5.149  0.2239 -0.0757 -0.3892
   24MOL   C31912325   1.645   1.939   5.061 -0.5256 -0.8682 -0.3318
   24MOL   C32012326   1.685   1.986   4.936  0.0333 -0.0413 -0.6145
   24MOL   C32112327   1.651   2.119   4.908 -0.1030 -0.5722 -0.9022
   24MOL   C32212328   1.558   2.191   4.993  0.2503  0.5419  0.3106
   24MOL   C32312329   1.497   1.981   5.283  0.3305 -0.1350  0.6321
   24MOL   C32412330   1.409   2.090   5.307  0.1227 -0.4077  0.9828
   24MOL   C32512331   1.338   2.093   5.430  0.2271  0.2481 -0.0590
   24MOL   C32612332   1.356   1.989   5.525 -0.3081 -0.6638 -0.1353
   24MOL   C32712333   1.433   1.875   5.492 -0.2642 -0.1428 -0.0551
   24MOL   C32812334   1.511   1.878   5.374 -0.3316 -0.0377 -0.4863
   24MOL   H32912335   1.357   2.358   5.370 -0.2137  1.3574 -0.4295
   24MOL   H33012336   1.229   2.443   5.281  0.4987  0.2538  2.2508
   24MOL   H33112337   1.337   2.324   5.074 -0.6504 -0.3600 -0.5922
   24MOL   H33212338   1.690   1.851   5.104 -0.5493 -1.6360 -1.8048
   24MOL   H33312339   1.760   1.942   4.872  1.4634  1.9011 -0.3247
   24MOL   H33412340   1.680   2.176   4.821  0.5488  3.4043  1.7635
   24MOL   H33512341   1.534   2.293   4.964 -0.9755  0.0499 -0.4448
   24MOL   H33612342   1.279   2.179   5.458  0.3904  0.9459 -1.8063
   24MOL   H33712343   1.299   1.989   5.617 -0.1455  1.1045 -0.0291
   24MOL   H33812344   1.450   1.792   5.559  0.9033  0.4492  0.4087
   24MOL   H33912345   1.573   1.791   5.361  0.9725  0.7910  0.0630
   24MOL   C34012346   1.160   2.220   5.150 -0.8072 -0.3034 -0.6574
   24MOL   C34112347   1.055   2.310   5.076 -0.0102  0.6309  0.4220
   24MOL   N34212348   1.099   2.399   4.970 -0.2425 -0.3118 -0.1757
   24MOL   C34312349   1.049   2.530   4.957  0.9029  0.3974 -0.4347
   24MOL   C34412350   1.100   2.590   4.842  0.2178  0.3156 -0.0242
   24MOL   C34512351   1.067   2.720   4.809  0.5115 -0.0282  0.1127
   24MOL   C34612352   0.986   2.801   4.892  0.7963 -0.0940  0.2965
   24MOL   C34712353   0.935   2.738   5.007 -0.4737  0.1353  0.0271
   24MOL   C34812354   0.960   2.605   5.040 -0.3165 -0.1994  0.0754
   24MOL   C34912355   1.200   2.498   4.783  0.1142 -0.4525 -0.4609
   24MOL   C35012356   1.185   2.378   4.859 -0.1230  0.3768  0.5747
   24MOL   C35112357   1.256   2.265   4.821  0.2453 -0.1566  0.2071
   24MOL   C35212358   1.352   2.272   4.720  0.7299 -0.4025 -0.1496
   24MOL   C35312359   1.370   2.391   4.648 -0.4361  0.1866  0.6751
   24MOL   C35412360   1.286   2.501   4.673 -0.2828  0.3415 -0.2606
   24MOL   H35512361   1.168   2.124   5.100  0.7804 -0.0259 -0.9729
   24MOL   H35612362   1.131   2.198   5.253  0.2109  2.5111  0.2875
   24MOL   H35712363   1.031   2.369   5.165  0.9829  1.0295  0.4327
   24MOL   H35812364   1.101   2.763   4.716 -0.7885 -1.8217 -1.2009
   24MOL   H35912365   0.964   2.906   4.878  0.1651 -0.3042 -0.3464
   24MOL   H36012366   0.885   2.811   5.070 -0.1011  1.5569 -1.2858
   24MOL   H36112367   0.916   2.573   5.133 -0.4235 -0.3050 -0.0115
   24MOL   H36212368   1.245   2.179   4.886  2.2536 -1.5535 -1.2301
   24MOL   H36312369   1.418   2.189   4.700  1.3721  0.0498  0.0663
   24MOL   H36412370   1.447   2.399   4.573  0.8842 -2.6453  1.6957
   24MOL   H36512371   1.293   2.589   4.612 -0.1263  0.0316 -0.6868
   24MOL   C36612372   0.933   2.223   5.025  0.0030 -0.3548  0.2372
   24MOL   C36712373   0.875   2.136   5.136  0.3107  0.6701  0.6043
   24MOL   N36812374   0.833   2.230   5.246 -0.2814  0.2178 -0.6782
   24MOL   C36912375   0.866   2.203   5.380 -0.3114  0.3633  0.1229
   24MOL   C37012376   0.817   2.305   5.460 -0.4766  0.6223 -0.4576
   24MOL   C37112377   0.856   2.305   5.600 -0.4431  0.3464  0.3316
   24MOL   C37212378   0.944   2.210   5.654  0.7551 -0.3402 -1.0056
   24MOL   C37312379   0.978   2.099   5.577 -0.5367  0.1503 -0.4341
   24MOL   C37412380   0.941   2.095   5.438 -0.0474 -0.7583  0.3474
   24MOL   C37512381   0.749   2.399   5.376 -0.5986  0.4238 -0.0349
   24MOL   C37612382   0.750   2.341   5.246 -0.0286  0.0246  0.2289
   24MOL   C37712383   0.666   2.395   5.143 -0.2330  0.2312 -0.6239
   24MOL   C37812384   0.588   2.513   5.164 -0.4263  0.0288 -0.3679
   24MOL   C37912385   0.600   2.574   5.294 -0.5637  0.2083  0.4841
   24MOL   C38012386   0.680   2.523   5.390  0.3115 -0.1380 -0.5003
   24MOL   H38112387   0.863   2.296   4.985  1.2063  1.6565  1.6992
   24MOL   H38212388   0.964   2.166   4.938  1.6942  0.6711  0.1319
   24MOL   H38312389   0.958   2.076   5.174 -0.5728  0.1740  1.7728
   24MOL   H38412390   0.819   2.379   5.668 -0.9526  0.0079  0.4295
   24MOL   H38512391   0.988   2.223   5.752  3.7032 -1.1976 -2.1708
   24MOL   H38612392   1.050   2.024   5.606 -0.3184  0.0828 -1.1297
   24MOL   H38712393   0.986   2.016   5.381  1.2139  1.6537 -2.1625
   24MOL   H38812394   0.664   2.341   5.049 -0.2169  1.1635 -1.1665
   24MOL   H38912395   0.522   2.550   5.088  0.6709  2.9388  0.0413
   24MOL   H39012396   0.547   2.667   5.310 -1.9106  0.3274 -3.8770
   24MOL   H39112397   0.676   2.576   5.485 -1.8350  0.0599 -0.6788
   24MOL   C39212398   0.764   2.046   5.082 -0.0134 -0.0952  0.4196
   24MOL   C39312399   0.792   1.950   4.955 -0.3672 -0.4253 -0.3408
   24MOL   N39412400   0.930   1.910   4.946  0.3125 -0.3039 -0.4359
   24MOL   C39512401   1.020   1.936   4.839  0.7751 -0.0821  0.3397
   24MOL   C39612402   1.145   1.878   4.867  0.1537 -0.0411  0.4396
   24MOL   C39712403   1.251   1.896   4.777 -0.4858 -0.3244 -0.1283
   24MOL   C39812404   1.228   1.972   4.655 -0.0393  0.2910 -0.0398
   24MOL   C39912405   1.102   2.033   4.633  1.1470 -0.0838  0.0166
   24MOL   C40012406   0.998   2.008   4.723  0.8476 -0.2314 -0.1947
   24MOL   C40112407   1.131   1.811   4.995 -0.1969 -0.0807  0.1784
   24MOL   C40212408   1.003   1.841   5.040 -0.1847 -0.2143 -0.0620
   24MOL   C40312409   0.959   1.793   5.169 -0.8046  0.1435  0.2319
   24MOL   C40412410   1.056   1.727   5.255 -0.0874  0.1946  0.3494
   24MOL   C40512411   1.185   1.703   5.217 -0.2394 -0.1274  0.8468
   24MOL   C40612412   1.222   1.738   5.083  0.6045 -0.6717  0.1749
   24MOL   H40712413   0.706   1.987   5.152 -2.3356 -0.9285 -2.0932
   24MOL   H40812414   0.680   2.107   5.050 -0.8006 -2.1442 -1.5958
   24MOL   H40912415   0.776   2.014   4.869  0.9312  1.0004  0.4683
   24MOL   H41012416   1.347   1.850   4.792  0.3725  0.9582 -1.6100
   24MOL   H41112417   1.303   1.975   4.577  0.4864 -0.9896  0.4063
   24MOL   H41212418   1.091   2.088   4.540 -0.5616 -1.2704 -0.5229
   24MOL   H41312419   0.908   2.067   4.714  1.7293  1.1186 -0.2778
   24MOL   H41412420   0.866   1.823   5.216 -0.4319 -0.7781  1.6127
   24MOL   H41512421   1.019   1.690   5.349 -3.0266  0.2287 -0.7176
   24MOL   H41612422   1.261   1.650   5.273  0.3818 -1.7891 -1.4827
   24MOL   H41712423   1.328   1.728   5.061  0.8470 -0.6396  1.3190
   24MOL   C41812424   0.696   1.829   4.941 -0.4658 -0.7152  0.3458
   24MOL   C41912425   0.728   1.720   4.839  0.3348 -0.3415 -1.0034
   24MOL   N42012426   0.637   1.606   4.850 -0.2517 -0.0744 -0.4000
   24MOL   C42112427   0.671   1.472   4.866 -0.0846 -0.1449  0.8684
   24MOL   C42212428   0.557   1.388   4.875  0.3141 -0.2482  0.6637
   24MOL   C42312429   0.569   1.247   4.885  0.4729  0.6038  0.3102
   24MOL   C42412430   0.694   1.184   4.882 -0.8013 -0.1222 -0.5317
   24MOL   C42512431   0.809   1.263   4.877 -0.0068  0.1718 -0.2010
   24MOL   C42612432   0.794   1.404   4.873 -0.2096 -0.5252  1.0957
   24MOL   C42712433   0.443   1.472   4.847  0.3132 -0.0325 -0.2002
   24MOL   C42812434   0.492   1.607   4.840  0.4610 -0.3070 -0.1883
   24MOL   C42912435   0.393   1.710   4.821  0.5373 -0.1911  0.1860
   24MOL   C43012436   0.259   1.683   4.805  0.0068 -0.2285  0.6001
   24MOL   C43112437   0.209   1.548   4.809  0.7751 -0.5090  0.1184
   24MOL   C43212438   0.304   1.445   4.828 -0.1800 -0.3323 -0.4497
   24MOL   H43312439   0.696   1.770   5.033  1.8642  0.8865  1.4212
   24MOL   H43412440   0.603   1.880   4.917  0.3391  0.2636 -0.7365
   24MOL   H43512441   0.828   1.687   4.867 -0.1578 -1.1368 -0.1583
   24MOL   H43612442   0.495   1.168   4.879  0.3619  0.7843 -0.8129
   24MOL   H43712443   0.704   1.076   4.878 -1.1489 -0.1244 -1.5909
   24MOL   H43812444   0.905   1.214   4.874 -0.8307 -1.3871 -3.4708
   24MOL   H43912445   0.880   1.467   4.860 -3.2587  3.6313  0.2081
   24MOL   H44012446   0.413   1.814   4.802 -0.9115  0.1404  0.3558
   24MOL   H44112447   0.196   1.769   4.789  0.7880  0.3379  0.4870
   24MOL   H44212448   0.108   1.521   4.781  1.4086  0.2180 -3.1134
   24MOL   H44312449   0.267   1.344   4.828  2.0363 -1.1753 -0.1604
   24MOL   C44412450   0.732   1.774   4.694  0.1495 -0.3253 -0.3704
   24MOL   C44512451   0.798   1.672   4.594 -0.6122  0.8085 -0.2788
   24MOL   N44612452   0.746   1.686   4.459  0.1955 -0.7201 -0.0634
   24MOL   C44712453   0.685   1.582   4.380  0.1864 -0.6140  0.4179
   24MOL   C44812454   0.676   1.623   4.248  0.3727 -0.5005 -0.1527
   24MOL   C44912455   0.622   1.541   4.155 -0.3823  0.2143 -0.1175
   24MOL   C45012456   0.584   1.411   4.184  0.2603 -0.3036 -0.0855
   24MOL   C45112457   0.597   1.363   4.319  0.6622  0.2088 -0.0952
   24MOL   C45212458   0.637   1.453   4.418 -1.0573  0.2533 -0.0280
   24MOL   C45312459   0.735   1.756   4.237  0.4275 -0.2327  0.2748
   24MOL   C45412460   0.775   1.792   4.370 -0.4474  0.3333  0.0105
   24MOL   C45512461   0.851   1.911   4.383  0.6703  0.6172 -0.4768
   24MOL   C45612462   0.877   1.999   4.278  0.0596 -0.6854 -1.2203
   24MOL   C45712463   0.830   1.970   4.149 -0.2793  0.2253  0.4772
   24MOL   C45812464   0.754   1.849   4.128  0.1679  0.4574 -0.1645
   24MOL   H45912465   0.629   1.773   4.657 -0.3267 -0.4626  0.9100
   24MOL   H46012466   0.783   1.869   4.677  0.1054 -0.3239 -0.4943
   24MOL   H46112467   0.758   1.576   4.628  0.7291  0.3252 -0.0263
   24MOL   H46212468   0.617   1.583   4.055 -1.2253  1.0182  0.2555
   24MOL   H46312469   0.550   1.349   4.103  0.0421 -1.1097  0.6184
   24MOL   H46412470   0.557   1.267   4.349 -0.2362  0.7786  0.5347
   24MOL   H46512471   0.651   1.416   4.518  0.8548  0.8133 -0.0686
   24MOL   H46612472   0.868   1.947   4.483 -0.1697 -2.0214  0.6660
   24MOL   H46712473   0.925   2.094   4.297 -2.9266  0.9922 -1.7869
   24MOL   H46812474   0.836   2.034   4.062 -2.3907  1.3625  1.1474
   24MOL   H46912475   0.698   1.831   4.037 -1.3557 -0.0187  0.8465
   24MOL   C47012476   0.953   1.665   4.599 -0.4144 -0.1554  0.1881
   24MOL   C47112477   1.022   1.563   4.510  0.1244  0.0478  0.7388
   24MOL   N47212478   1.167   1.588   4.500  0.3409 -0.6179 -0.2570
   24MOL   C47312479   1.228   1.654   4.393 -0.0911 -0.0522  0.2007
   24MOL   C47412480   1.371   1.654   4.412  0.0496  0.8640 -0.4851
   24MOL   C47512481   1.458   1.701   4.310  0.8216  0.2181 -0.3791
   24MOL   C47612482   1.407   1.740   4.186 -0.3195 -0.5579  0.7994
   24MOL   C47712483   1.269   1.745   4.169 -0.0866 -0.9722  0.1349
   24MOL   C47812484   1.176   1.704   4.268  0.1824  0.1570 -1.3692
   24MOL   C47912485   1.390   1.618   4.551 -0.1215 -0.8531  0.5759
   24MOL   C48012486   1.266   1.572   4.604 -0.4361  1.0279  0.6749
   24MOL   C48112487   1.265   1.536   4.742 -0.1744 -0.4147 -0.1814
   24MOL   C48212488   1.381   1.545   4.819  0.1895 -0.2277  0.0876
   24MOL   C48312489   1.505   1.589   4.766  0.7794  0.1326  0.3809
   24MOL   C48412490   1.508   1.624   4.630 -0.0527  0.8860  0.2326
   24MOL   H48512491   0.983   1.765   4.569 -0.6648  0.2338  1.2521
   24MOL   H48612492   0.979   1.656   4.704 -1.3289  2.6695  0.6875
   24MOL   H48712493   0.977   1.570   4.410  0.8758  0.1988  0.4076
   24MOL   H48812494   1.563   1.694   4.331  0.1108  0.7597  3.8036
   24MOL   H48912495   1.474   1.763   4.105  1.3946 -2.2515  1.7121
   24MOL   H49012496   1.237   1.772   4.069  0.8275  0.6411  0.2603
   24MOL   H49112497   1.071   1.699   4.246 -0.5300  2.6402  1.0985
   24MOL   H49212498   1.174   1.508   4.792 -0.0680  0.9094  0.7727
   24MOL   H49312499   1.373   1.517   4.923 -3.0159  1.2901  0.3214
   24MOL   H49412500   1.592   1.612   4.825 -0.0881  1.7367  1.0668
   24MOL   H49512501   1.597   1.658   4.581 -0.9302 -2.3041 -3.8690
   24MOL   C49612502   0.994   1.419   4.554 -0.3341  0.8484 -0.1378
   24MOL   C49712503   1.056   1.315   4.461  0.5740  0.0255 -0.7316
   24MOL   N49812504   1.054   1.181   4.522  0.1890 -0.8109 -0.3835
   24MOL   C49912505   0.957   1.079   4.513  0.3420 -0.3224 -0.3209
   24MOL   C50012506   0.980   0.966   4.592 -0.7464  0.1696  0.8998
   24MOL   C50112507   0.882   0.867   4.591  0.8216 -0.3355  0.1425
   24MOL   C50212508   0.763   0.876   4.522 -0.6197  0.1956  0.0579
   24MOL   C50312509   0.743   0.988   4.446  0.5278  0.4066 -0.2698
   24MOL   C50412510   0.837   1.091   4.441  0.0754  0.0165 -0.0239
   24MOL   C50512511   1.110   1.000   4.651  0.1608 -0.5115 -0.1737
   24MOL   C50612512   1.154   1.125   4.606 -0.1152 -0.4805 -0.2646
   24MOL   C50712513   1.284   1.174   4.653  0.3874  0.0970 -0.6813
   24MOL   C50812514   1.359   1.101   4.747 -0.8710 -0.4866 -0.0914
   24MOL   C50912515   1.317   0.976   4.797 -0.1763  0.1299 -0.3047
   24MOL   C51012516   1.194   0.929   4.743 -0.1249 -0.3802  0.1273
   24MOL   H51112517   1.028   1.408   4.658  0.5159  1.0426 -0.3907
   24MOL   H51212518   0.888   1.396   4.566 -0.6865  1.2114 -2.4706
   24MOL   H51312519   1.161   1.337   4.438 -0.1674  1.8865 -2.5072
   24MOL   H51412520   0.905   0.781   4.652 -1.5811 -1.6352 -0.6621
   24MOL   H51512521   0.694   0.793   4.523  0.8276 -1.0397  0.2785
   24MOL   H51612522   0.650   1.001   4.391 -0.1727  1.9702  1.2166
   24MOL   H51712523   0.812   1.175   4.377 -0.7246 -0.4289 -0.3017
   24MOL   H51812524   1.317   1.271   4.621 -0.3053  0.3873 -0.5262
   24MOL   H51912525   1.453   1.138   4.787 -1.1502  1.7013 -1.4048
   24MOL   H52012526   1.362   0.916   4.875  0.4558  0.0319 -0.7387
   24MOL   H52112527   1.151   0.839   4.783  0.0378 -1.1568 -1.4185
   24MOL   H52212528   1.000   1.313   4.368  0.3439  0.0039 -0.5910
   25MOL     C112529   4.796   4.534   7.668  0.1602  0.2704  0.8355
   25MOL     C212530   4.828   4.680   7.631  0.4488  0.3190 -0.2837
   25MOL     N312531   4.797   4.709   7.488 -0.2762  0.3920  0.3069
   25MOL     C412532   4.891   4.733   7.384 -0.7100 -0.7890  0.3405
   25MOL     C512533   4.819   4.754   7.261  0.3537  0.4128  0.4643
   25MOL     C612534   4.894   4.771   7.141  0.9532 -0.0946  0.4609
   25MOL     C712535   5.035   4.770   7.142  0.9521 -0.1053  0.4903
   25MOL     C812536   5.106   4.762   7.268  0.2052  0.0703  0.1874
   25MOL     C912537   5.036   4.741   7.384  0.4033 -0.6443 -0.2247
   25MOL    C1012538   4.674   4.747   7.287 -0.4327 -0.2162  0.6177
   25MOL    C1112539   4.669   4.712   7.429 -0.0137 -0.7120  0.2490
   25MOL    C1212540   4.539   4.685   7.490  0.0723  0.6724 -0.2969
   25MOL    C1312541   4.422   4.705   7.418  0.3839 -0.1513  0.1305
   25MOL    C1412542   4.431   4.754   7.287  0.2293  0.6711  0.6435
   25MOL    C1512543   4.551   4.769   7.218 -0.0188  0.4242 -0.3182
   25MOL    H1612544   4.819   4.472   7.582 -1.8545 -0.2944  0.6707
   25MOL    H1712545   4.692   4.514   7.694 -0.7113  3.3013 -0.0150
   25MOL    H1812546   4.935   4.697   7.645  0.5137  1.4295 -2.0218
   25MOL    H1912547   4.845   4.789   7.047  1.0070 -1.9963  0.0433
   25MOL    H2012548   5.094   4.776   7.052 -1.2078  0.6884 -0.9209
   25MOL    H2112549   5.213   4.751   7.260  0.2986 -1.0102  2.3179
   25MOL    H2212550   5.085   4.730   7.480  2.7595 -0.5500 -1.3754
   25MOL    H2312551   4.531   4.641   7.588 -0.1792  1.4193  0.0175
   25MOL    H2412552   4.326   4.683   7.461 -0.0675  0.7581 -0.3848
   25MOL    H2512553   4.344   4.754   7.223  0.4955 -1.3188  0.2224
   25MOL    H2612554   4.561   4.801   7.115 -4.5393 -1.5737 -1.5098
   25MOL    H2712555   4.864   4.501   7.746  1.9007 -2.2305 -1.6450
   25MOL    C2812556   4.765   4.782   7.732  0.3687 -0.0936 -1.0653
   25MOL    C2912557   4.791   4.934   7.712 -0.0057  0.2192 -0.2032
   25MOL    N3012558   4.674   5.008   7.759  0.0287 -0.5459  0.1573
   25MOL    C3112559   4.602   5.090   7.670 -0.3552  0.1965 -0.1671
   25MOL    C3212560   4.501   5.154   7.747  0.7448  0.6079 -0.1541
   25MOL    C3312561   4.417   5.250   7.677  0.1681  0.1682 -0.1815
   25MOL    C3412562   4.433   5.277   7.544  0.2416 -0.2285 -0.0791
   25MOL    C3512563   4.527   5.208   7.466 -0.0412 -0.9741 -0.1083
   25MOL    C3612564   4.607   5.114   7.529 -0.8402  0.3521 -0.4979
   25MOL    C3712565   4.510   5.115   7.887 -0.6330 -0.0748  0.2414
   25MOL    C3812566   4.620   5.024   7.890 -0.0610 -0.0450  0.7908
   25MOL    C3912567   4.660   4.954   8.009  0.6146 -0.3120  0.3196
   25MOL    C4012568   4.579   4.982   8.121  0.1462 -0.1935  0.1549
   25MOL    C4112569   4.483   5.081   8.125  1.1489  0.8224  0.3871
   25MOL    C4212570   4.451   5.149   8.010  0.1840  0.5628 -0.4120
   25MOL    H4312571   4.657   4.766   7.728  0.2358  0.9118 -1.7861
   25MOL    H4412572   4.792   4.754   7.834 -0.0419  0.8045 -0.6970
   25MOL    H4512573   4.791   4.946   7.603  1.5339 -0.2335 -0.2666
   25MOL    H4612574   4.349   5.308   7.737  1.8049  0.1105  1.7608
   25MOL    H4712575   4.366   5.348   7.498  1.3384 -0.5611 -2.2501
   25MOL    H4812576   4.552   5.221   7.362 -1.4220  0.3022 -0.3044
   25MOL    H4912577   4.680   5.059   7.471 -0.5249 -0.3564  0.5564
   25MOL    H5012578   4.728   4.871   8.013  0.6479 -0.5970 -3.9069
   25MOL    H5112579   4.594   4.925   8.212  0.1824 -0.3001  0.0834
   25MOL    H5212580   4.430   5.095   8.218 -1.4208  0.2108 -0.9293
   25MOL    H5312581   4.375   5.223   7.991  0.0606  0.5705  0.1030
   25MOL    C5412582   4.923   4.965   7.782 -0.0924 -0.0530 -0.4420
   25MOL    C5512583   5.025   5.051   7.697  0.2533  1.1577  0.1648
   25MOL    N5612584   4.970   5.159   7.624 -0.4000  0.3025  0.4469
   25MOL    C5712585   5.001   5.185   7.488  0.0600 -0.7119 -0.3164
   25MOL    C5812586   4.936   5.305   7.446 -1.1299  0.1588  0.8675
   25MOL    C5912587   4.953   5.344   7.306 -0.1591 -0.7886 -0.0784
   25MOL    C6012588   5.017   5.270   7.210 -0.0026  0.2992  0.1341
   25MOL    C6112589   5.087   5.154   7.251 -0.0922 -0.1781  0.2221
   25MOL    C6212590   5.073   5.112   7.387  0.5337  0.4197 -0.2546
   25MOL    C6312591   4.875   5.370   7.563 -0.3701  1.0986 -0.2363
   25MOL    C6412592   4.897   5.267   7.663  0.2456  0.2438  0.1277
   25MOL    C6512593   4.846   5.290   7.793  0.6614 -0.4502  0.1824
   25MOL    C6612594   4.760   5.397   7.829 -0.2373  0.1445 -0.0402
   25MOL    C6712595   4.743   5.496   7.725 -0.9093 -0.1646 -0.7994
   25MOL    C6812596   4.805   5.490   7.598  0.0903  0.5392 -0.2887
   25MOL    H6912597   4.912   5.007   7.882 -0.1239  0.3941 -0.6313
   25MOL    H7012598   4.980   4.875   7.804 -2.6653 -1.2674  1.4902
   25MOL    H7112599   5.051   4.981   7.617 -0.4023  2.5411 -1.2868
   25MOL    H7212600   4.911   5.441   7.283  1.0901 -0.1851  0.1544
   25MOL    H7312601   5.022   5.296   7.105  2.7742  0.3967  0.2718
   25MOL    H7412602   5.147   5.087   7.191  0.1885 -0.4130  0.7644
   25MOL    H7512603   5.120   5.017   7.408 -3.9066 -1.4237  1.9319
   25MOL    H7612604   4.854   5.222   7.877  1.1053  0.1263  0.6029
   25MOL    H7712605   4.723   5.407   7.930 -0.0736 -0.9964  0.1327
   25MOL    H7812606   4.673   5.575   7.745 -1.2631  0.0279 -2.6959
   25MOL    H7912607   4.787   5.572   7.530  3.2596  2.3148  0.8967
   25MOL    C8012608   5.153   5.108   7.771 -0.0393  0.1111  0.2970
   25MOL    C8112609   5.235   5.021   7.866  0.1669 -0.4769 -0.1409
   25MOL    N8212610   5.264   4.892   7.815 -0.1057  0.0898 -0.2064
   25MOL    C8312611   5.255   4.770   7.884  0.9020  0.4122 -0.3409
   25MOL    C8412612   5.310   4.659   7.813 -0.4387  0.0047 -0.1026
   25MOL    C8512613   5.315   4.528   7.868  0.3959 -0.2450  0.2856
   25MOL    C8612614   5.267   4.500   8.001  0.2702 -0.5605 -0.2343
   25MOL    C8712615   5.205   4.608   8.069  0.6501  0.9361 -0.7002
   25MOL    C8812616   5.206   4.739   8.014  0.0595 -0.1624  0.1573
   25MOL    C8912617   5.354   4.717   7.686 -0.1286  0.3455 -0.5786
   25MOL    C9012618   5.316   4.858   7.685 -0.8458  0.0253 -0.4461
   25MOL    C9112619   5.341   4.941   7.574  0.0941  0.2649 -0.6470
   25MOL    C9212620   5.400   4.892   7.461  0.1069 -0.0669 -0.7064
   25MOL    C9312621   5.448   4.752   7.460 -0.0348 -0.0380 -0.7142
   25MOL    C9412622   5.421   4.665   7.570  0.1306  0.0566 -0.2125
   25MOL    H9512623   5.224   5.154   7.702 -0.4982 -0.5310 -0.6248
   25MOL    H9612624   5.114   5.187   7.834  1.6806  0.9998  0.2838
   25MOL    H9712625   5.165   5.010   7.949  0.2195  0.2038 -0.0090
   25MOL    H9812626   5.356   4.446   7.811  2.3950 -0.6090  2.1891
   25MOL    H9912627   5.258   4.402   8.045 -0.1513  0.3805  1.8375
   25MOL   H10012628   5.160   4.584   8.165  2.4795 -1.2564 -0.3490
   25MOL   H10112629   5.155   4.810   8.078  1.6112 -1.0721  2.4695
   25MOL   H10212630   5.313   5.045   7.567 -1.3032  0.2237  3.2014
   25MOL   H10312631   5.412   4.951   7.372 -1.4942  0.9614 -0.2574
   25MOL   H10412632   5.497   4.706   7.376  0.7852 -0.1976 -0.1598
   25MOL   H10512633   5.435   4.558   7.558  3.6238  0.4037  0.2564
   25MOL   C10612634   5.361   5.097   7.914  0.3443  0.5981  0.7390
   25MOL   C10712635   5.344   5.234   7.986  0.4284 -0.3989 -0.4653
   25MOL   N10812636   5.238   5.235   8.092  0.7909  1.1149 -0.1822
   25MOL   C10912637   5.137   5.324   8.099  0.3575 -0.1591  0.6290
   25MOL   C11012638   5.051   5.294   8.211  0.7888 -0.8079 -0.3391
   25MOL   C11112639   4.936   5.371   0.008  0.2638 -0.9690 -0.2604
   25MOL   C11212640   4.904   5.479   8.148 -0.2587 -0.5915 -0.1622
   25MOL   C11312641   4.985   5.506   8.039  0.6134  0.0024  0.1973
   25MOL   C11412642   5.104   5.436   8.023 -0.1578  0.7755 -0.2451
   25MOL   C11512643   5.117   5.188   0.053 -0.0155  0.1302  0.2367
   25MOL   C11612644   5.232   5.156   8.205  0.0568 -0.2695  0.1696
   25MOL   C11712645   5.320   5.050   0.023 -0.2455 -0.1943  0.2833
   25MOL   C11812646   5.299   4.990   0.149 -0.4866 -0.6664  0.2792
   25MOL   C11912647   5.180   5.019   0.220  0.2165  0.2308  0.7058
   25MOL   C12012648   5.087   5.113   0.169  0.7064  0.3785 -0.5259
   25MOL   H12112649   5.406   5.035   7.991  0.3581 -0.9393 -0.4847
   25MOL   H12212650   5.401   5.106   7.813 -1.3652 -0.9061 -0.0995
   25MOL   H12312651   5.308   5.300   7.908  1.0989 -0.5568 -0.9133
   25MOL   H12412652   4.867   5.350   0.088 -1.8848 -1.6185 -2.2364
   25MOL   H12512653   4.817   5.537   8.176 -0.0396 -0.8131  0.9813
   25MOL   H12612654   4.968   5.597   7.984 -1.3573  0.2516  1.1569
   25MOL   H12712655   5.173   5.464   7.945  1.2125  0.2832  0.7731
   25MOL   H12812656   5.409   5.017   8.198 -1.5644 -2.0677 -0.8394
   25MOL   H12912657   5.372   4.922   0.191  0.9729  1.3379  1.0778
   25MOL   H13012658   5.154   4.963   0.309  0.4099  2.8861  2.4749
   25MOL   H13112659   4.993   5.131   0.219  1.5670  2.0090  0.5734
   25MOL   C13212660   5.480   5.288   8.041  0.5686  0.3240  0.3577
   25MOL   C13312661   5.580   5.309   7.937 -0.4299  0.3155  0.1560
   25MOL   N13412662   5.540   5.420   7.847 -0.0985  0.2363 -0.2383
   25MOL   C13512663   5.507   5.410   7.708 -0.2715 -0.4568  0.0376
   25MOL   C13612664   5.474   5.535   7.655  0.3172  0.9159 -0.1740
   25MOL   C13712665   5.440   5.544   7.516 -0.5275  0.0447 -0.3312
   25MOL   C13812666   5.438   5.433   7.424 -0.1179  0.0851 -0.4089
   25MOL   C13912667   5.464   5.310   7.485  0.0465 -0.0204  0.1107
   25MOL   C14012668   5.505   5.298   7.621 -0.4842 -0.5450  0.0480
   25MOL   C14112669   5.490   5.629   7.762  0.2740 -0.2241  0.7825
   25MOL   C14212670   5.534   5.556   7.876  0.2281  0.0205  0.1792
   25MOL   C14312671   5.548   5.628   7.999 -0.1384 -0.2953  0.6948
   25MOL   C14412672   5.505   5.760   8.014 -0.4471  0.1464 -0.0601
   25MOL   C14512673   5.465   5.832   7.898 -0.6409  0.8701  0.1737
   25MOL   C14612674   5.462   5.767   7.773 -0.3441 -0.6135 -0.2959
   25MOL   H14712675   5.470   5.376   8.103 -0.3113  1.3834 -1.2610
   25MOL   H14812676   5.513   5.206   8.105 -3.3015 -1.9420 -0.3820
   25MOL   H14912677   5.568   5.225   7.869 -2.7667  1.5611 -1.0290
   25MOL   H15012678   5.426   5.639   7.467  1.1983  0.5706  0.1656
   25MOL   H15112679   5.427   5.449   7.318  0.6083  1.2157 -0.3139
   25MOL   H15212680   5.453   5.219   7.429 -0.1471 -0.5734  1.0315
   25MOL   H15312681   5.519   5.200   7.663 -1.3183  0.1659  2.0041
   25MOL   H15412682   5.578   5.570   8.085 -2.3705 -2.0782  0.3224
   25MOL   H15512683   5.504   5.811   8.109 -3.4734  1.1909 -0.5969
   25MOL   H15612684   5.419   5.929   7.912  0.3717  1.1385  1.7971
   25MOL   H15712685   5.433   5.824   7.686 -2.5948  2.5393  2.3614
   25MOL   C15812686   5.726   5.333   7.986  0.0790 -0.4624 -0.6272
   25MOL   C15912687   5.781   5.219   8.070  0.1335 -0.0850  0.0016
   25MOL   N16012688   5.744   5.091   8.009 -0.1800  0.1469 -0.6558
   25MOL   C16112689   5.688   4.985   8.082  0.5304  0.1369  0.0263
   25MOL   C16212690   5.667   4.873   7.997 -0.1890 -0.0917  0.2781
   25MOL   C16312691   5.607   4.757   8.049  0.5377 -0.4037 -0.4721
   25MOL   C16412692   5.576   4.745   8.185 -1.2470  0.3695  0.2589
   25MOL   C16512693   5.616   4.850   0.047 -0.4266 -0.6561  0.0003
   25MOL   C16612694   5.659   4.975   8.221 -0.3920 -0.6010 -0.3056
   25MOL   C16712695   5.714   4.913   7.870  0.3429  0.2042  0.4907
   25MOL   C16812696   5.768   5.041   7.877  0.2348 -0.6914  0.3153
   25MOL   C16912697   5.835   5.101   7.763 -0.1241  0.1891  0.7615
   25MOL   C17012698   5.829   5.030   7.644 -0.4809 -0.5044  0.3077
   25MOL   C17112699   5.770   4.909   7.631  0.0810 -0.2343  0.1562
   25MOL   C17212700   5.714   4.852   7.744 -0.5058  0.5690  0.3014
   25MOL   H17312701   5.776   5.345   7.890  0.7093  2.0738 -0.0202
   25MOL   H17412702   5.725   5.435   8.026 -1.4152 -1.0527  0.9414
   25MOL   H17512703   5.724   5.214   8.163 -0.3099 -1.0418 -0.3189
   25MOL   H17612704   5.595   4.684   7.971 -0.8641 -0.5117 -0.1583
   25MOL   H17712705   5.533   4.651   8.217 -4.1804  0.9296 -1.8408
   25MOL   H17812706   5.595   4.837   0.152 -1.1168  0.6922  0.0395
   25MOL   H17912707   5.679   5.050   0.069 -2.5925 -1.1042  0.8300
   25MOL   H18012708   5.888   5.195   7.770  0.5171 -0.2701  2.2875
   25MOL   H18112709   5.870   5.070   7.552  2.1516  1.8201  2.4194
   25MOL   H18212710   5.749   4.846   7.546 -1.0561 -0.2716  0.4690
   25MOL   H18312711   5.663   4.758   7.752 -0.6921  0.7939  2.1869
   25MOL   C18412712   5.926   5.227   8.107 -0.2007 -0.4301  0.3495
   25MOL   C18512713   5.978   5.333   8.201  0.2502  1.0106 -0.0285
   25MOL   N18612714   5.886   5.380   0.082 -0.2696 -0.3174 -0.3692
   25MOL   C18712715   5.833   5.508   0.100  1.7013  0.2167 -0.4403
   25MOL   C18812716   5.751   5.514   0.221 -0.5751  0.1631 -0.1639
   25MOL   C18912717   5.697   5.638   0.253 -0.1312 -0.1272 -0.1377
   25MOL   C19012718   5.721   5.759   0.181  0.5807  0.4602 -0.1235
   25MOL   C19112719   5.790   5.744   0.058 -0.2419  0.2625 -0.1986
   25MOL   C19212720   5.853   5.624   0.023 -0.0533  0.1517  0.3994
   25MOL   C19312721   5.752   5.388   0.273  0.2088  0.4282  0.2423
   25MOL   C19412722   5.830   5.308   0.184 -0.1444  0.8897 -0.4040
   25MOL   C19512723   5.854   5.171   0.215 -0.4570 -0.1213 -0.2711
   25MOL   C19612724   5.798   5.109   0.326  0.5080  0.3801 -0.9716
   25MOL   C19712725   5.715   5.193   0.410 -0.6218  0.2840 -0.4172
   25MOL   C19812726   5.696   5.331   0.385 -0.2797  0.1126  0.3831
   25MOL   H19912727   5.964   5.131   8.143  0.4219 -0.1048  0.5490
   25MOL   H20012728   5.976   5.235   8.011 -0.4166 -1.5500  0.1353
   25MOL   H20112729   5.995   5.419   8.136 -1.1840  1.8656  0.6879
   25MOL   H20212730   5.628   5.640   0.336 -0.1104  1.8822 -0.1403
   25MOL   H20312731   5.668   5.852   0.198 -0.1542  0.0777 -0.3142
   25MOL   H20412732   5.799   5.826   8.215  0.4336  0.9094  0.6101
   25MOL   H20512733   5.915   5.627   8.162  1.0368 -1.2132  1.0916
   25MOL   H20612734   5.935   5.120   0.165  0.5185  0.6450  0.5066
   25MOL   H20712735   5.817   5.004   0.346 -0.9605  0.3250  0.2356
   25MOL   H20812736   5.671   5.158   0.502  0.4986  1.3333  0.5470
   25MOL   H20912737   5.633   5.394   0.446 -1.3226 -0.4790 -0.0688
   25MOL   C21012738   6.123   5.308   0.031  0.2605 -0.1879  0.3400
   25MOL   C21112739   6.169   5.408   0.141 -0.1365 -0.8898  0.3292
   25MOL   N21212740   6.276   5.354   0.230  0.0178 -0.0868  0.3716
   25MOL   C21312741   6.259   5.332   0.368  0.2260 -0.2198 -0.8802
   25MOL   C21412742   6.385   5.295   0.424 -0.0262  0.7042  0.3138
   25MOL   C21512743   6.391   5.276   0.564 -0.1710  0.7694  0.4787
   25MOL   C21612744   6.275   5.290   0.647  0.3880 -0.1169  0.0940
   25MOL   C21712745   6.148   5.314   0.584  0.3285  0.2867 -0.6199
   25MOL   C21812746   6.138   5.336   0.446  0.0151 -0.1436  0.0474
   25MOL   C21912747   6.485   5.296   0.319 -0.2471 -0.2686 -0.0241
   25MOL   C22012748   6.415   5.331   0.199  0.8468 -0.6790  0.5524
   25MOL   C22112749   6.481   5.345   0.079  0.0772 -0.0957  0.2044
   25MOL   C22212750   6.622   5.320   0.068 -0.4448 -0.0458 -0.0741
   25MOL   C22312751   6.699   5.306   0.192  0.0580  0.7585  0.6370
   25MOL   C22412752   6.629   5.299   0.310  0.3104 -0.2633 -0.3246
   25MOL   H22512753   6.126   5.210   0.078  0.6264 -1.3223 -1.9742
   25MOL   H22612754   6.204   5.299   8.185 -1.1545  0.3749 -1.3096
   25MOL   H22712755   6.088   5.439   0.207 -0.7771  0.5461 -1.1050
   25MOL   H22812756   6.486   5.247   0.606 -0.5531 -1.0721  0.1297
   25MOL   H22912757   6.285   5.282   0.754 -0.2977 -0.9164  0.1056
   25MOL   H23012758   6.057   5.316   0.642  0.2625  1.4544 -0.7584
   25MOL   H23112759   6.048   5.345   0.387 -0.0089 -0.4097  0.0422
   25MOL   H23212760   6.436   5.378   8.214  0.2619 -1.5293 -0.4179
   25MOL   H23312761   6.676   5.330   8.203  0.5337  0.2494  0.5201
   25MOL   H23412762   6.807   5.314   0.200  0.1870 -0.7503  0.4130
   25MOL   H23512763   6.686   5.301   0.402 -0.0310 -1.0229 -0.0933
   25MOL   C23612764   6.211   5.550   0.087 -0.3149  0.0786  0.0678
   25MOL   C23712765   6.266   5.635   0.199  0.2691  0.3686 -0.6093
   25MOL   N23812766   6.347   5.744   0.145 -0.0482 -1.1219  0.0824
   25MOL   C23912767   6.486   5.755   0.159  0.3915  0.1025 -0.3373
   25MOL   C24012768   6.528   5.885   0.123 -0.0267 -0.2254 -0.1294
   25MOL   C24112769   6.659   5.924   0.139  0.0995 -0.0048  0.2253
   25MOL   C24212770   6.757   5.830   0.167 -0.3742 -0.4477 -0.7820
   25MOL   C24312771   6.719   5.701   0.207 -0.1487 -0.1183  0.6024
   25MOL   C24412772   6.584   5.660   0.201 -0.2069 -0.4980 -0.1308
   25MOL   C24512773   6.413   5.946   0.065 -0.1784  0.0383 -0.5601
   25MOL   C24612774   6.303   5.858   0.079  0.5790 -0.4166  0.3159
   25MOL   C24712775   6.174   5.895   0.036 -0.0507 -0.8945 -0.4539
   25MOL   C24812776   6.151   6.026   8.207 -0.0134  0.5482  0.0978
   25MOL   C24912777   6.257   6.120   8.206 -0.0976  0.6168 -0.5602
   25MOL   C25012778   6.386   6.072   0.010  0.2501 -0.6514 -0.0046
   25MOL   H25112779   6.291   5.532   0.014 -1.4055 -0.8900 -0.9070
   25MOL   H25212780   6.127   5.601   0.041 -2.1358 -2.3753  0.5995
   25MOL   H25312781   6.336   5.582   0.264 -0.0407  1.8565  0.9840
   25MOL   H25412782   6.697   6.021   0.113  0.3682 -0.1756 -0.0264
   25MOL   H25512783   6.861   5.859   0.171 -0.6603  0.9054 -2.2836
   25MOL   H25612784   6.795   5.625   0.222  0.2623  0.4476  1.4727
   25MOL   H25712785   6.557   5.561   0.235  1.3609 -0.8825  0.0126
   25MOL   H25812786   6.090   5.826   0.039  0.4588 -1.4805  0.9720
   25MOL   H25912787   6.053   6.057   8.176 -0.1295  0.6185  0.5194
   25MOL   H26012788   6.248   6.222   8.171 -2.0647  0.0392 -1.8122
   25MOL   H26112789   6.468   6.142   0.016 -1.2416  1.0132  1.5437
   25MOL   C26212790   6.166   5.692   0.300  0.4227 -0.9478 -0.5409
   25MOL   C26312791   6.217   5.776   0.421  0.4651 -0.5109 -0.6165
   25MOL   N26412792   6.101   5.844   0.485 -0.0440 -0.1165 -0.1792
   25MOL   C26512793   6.088   5.988   0.508 -0.2872 -0.5281  0.2865
   25MOL   C26612794   5.956   6.017   0.561  0.2352 -0.9907 -0.0731
   25MOL   C26712795   5.915   6.151   0.585  0.8931  0.1575  0.1681
   25MOL   C26812796   5.999   6.253   0.543  1.4027  0.5009  0.1632
   25MOL   C26912797   6.132   6.230   0.495  0.3490  0.3978 -0.0631
   25MOL   C27012798   6.177   6.097   0.480 -0.1759 -0.4302 -0.0004
   25MOL   C27112799   5.895   5.890   0.579  0.1358  0.4069 -0.0189
   25MOL   C27212800   5.984   5.791   0.539 -0.9135 -0.4642  0.8786
   25MOL   C27312801   5.949   5.655   0.555 -0.4361  0.1720 -0.2384
   25MOL   C27412802   5.826   5.611   0.605  0.8364  0.0019 -0.5321
   25MOL   C27512803   5.734   5.714   0.648 -0.0017 -0.9687 -0.0621
   25MOL   C27612804   5.771   5.847   0.639 -0.7391  0.2615 -0.2494
   25MOL   H27712805   6.089   5.740   0.239 -0.2844 -0.0004  1.0664
   25MOL   H27812806   6.110   5.609   0.343  3.6294 -2.6814  0.4523
   25MOL   H27912807   6.282   5.857   0.386 -0.8829  0.0436 -1.8986
   25MOL   H28012808   5.827   6.177   0.642  0.9433 -0.4742  0.5410
   25MOL   H28112809   5.972   6.357   0.541  0.9107  0.3732  0.1576
   25MOL   H28212810   6.195   6.314   0.468  1.7811 -0.4780  0.4783
   25MOL   H28312811   6.278   6.089   0.443  1.0426  2.8179  2.3614
   25MOL   H28412812   6.011   5.571   0.526 -0.2261 -0.8280  2.8625
   25MOL   H28512813   5.805   5.505   0.611 -2.3146  0.6720  1.2576
   25MOL   H28612814   5.646   5.669   0.692  1.2313 -1.5520  1.8352
   25MOL   H28712815   5.696   5.912   0.680 -1.2977 -0.8451  0.5208
   25MOL   C28812816   6.294   5.696   0.522 -0.4687  0.4724  0.2505
   25MOL   C28912817   6.381   5.782   0.618  0.3053 -0.2090  0.1559
   25MOL   N29012818   6.410   5.711   0.743 -0.1631 -0.0622  0.1723
   25MOL   C29112819   6.349   5.734   0.868  0.4274  0.0095  0.3001
   25MOL   C29212820   6.385   5.639   0.964  0.0949 -0.2538  0.2443
   25MOL   C29312821   6.335   5.653   1.098  0.5656  0.7459 -0.6475
   25MOL   C29412822   6.255   5.759   1.137  0.1152  0.3529 -0.4125
   25MOL   C29512823   6.219   5.853   1.042  0.4007 -0.6494  1.0388
   25MOL   C29612824   6.261   5.837   0.905  0.0669 -0.2293 -0.1932
   25MOL   C29712825   6.474   5.550   0.890 -0.0350 -0.0140 -0.1092
   25MOL   C29812826   6.496   5.600   0.760  0.1946  0.0383  0.3598
   25MOL   C29912827   6.578   5.532   0.669 -0.4354 -1.1246  0.5217
   25MOL   C30012828   6.662   5.432   0.716 -0.6600  0.3218  0.8144
   25MOL   C30112829   6.647   5.380   0.847 -0.0502 -0.0253  0.2396
   25MOL   C30212830   6.543   5.430   0.928  0.5959  0.2517  0.0703
   25MOL   H30312831   6.226   5.632   0.577 -1.2281  0.1712 -1.0038
   25MOL   H30412832   6.367   5.632   0.472 -1.6015 -0.7682  0.1544
   25MOL   H30512833   6.318   5.865   0.651  0.4229  0.1360 -0.4797
   25MOL   H30612834   6.361   5.590   1.182  0.0678  2.0592  0.4991
   25MOL   H30712835   6.217   5.768   1.238 -0.9840  2.2951 -0.9718
   25MOL   H30812836   6.140   5.924   1.064  0.3391  0.0134 -1.1772
   25MOL   H30912837   6.226   5.908   0.832 -0.6620 -2.5686 -2.2075
   25MOL   H31012838   6.570   5.552   0.563  0.2996 -1.3419  0.4211
   25MOL   H31112839   6.737   5.393   0.649  0.5264  0.9346  1.7590
   25MOL   H31212840   6.701   5.289   0.868  0.6863 -0.1051 -1.9127
   25MOL   H31312841   6.524   5.373   1.018 -0.5334 -1.4259 -1.1932
   25MOL   C31412842   6.506   5.862   0.556  0.4973  0.7463  0.2568
   25MOL   C31512843   6.600   5.932   0.656 -0.5712  0.3420 -0.2338
   25MOL   N31612844   6.740   5.933   0.613  0.4611  0.4188 -0.3695
   25MOL   C31712845   6.842   5.865   0.675 -0.7107 -0.0544 -0.3202
   25MOL   C31812846   6.964   5.890   0.607  0.1604  0.7258  0.6249
   25MOL   C31912847   7.080   5.822   0.652 -1.1497  0.9892  0.2570
   25MOL   C32012848   7.079   5.740   0.766 -0.7972 -0.0418 -0.2360
   25MOL   C32112849   6.963   5.716   0.832 -0.0198  0.1792  0.1085
   25MOL   C32212850   6.845   5.780   0.785  0.1071 -1.2185 -1.0866
   25MOL   C32312851   6.936   5.973   0.490 -0.3830  0.1165 -0.2468
   25MOL   C32412852   6.792   5.992   0.500  0.5024 -1.0682  1.0778
   25MOL   C32512853   6.732   6.075   0.405  0.8461 -0.5608  0.3467
   25MOL   C32612854   6.807   6.143   0.302  0.3761 -0.4747 -0.4890
   25MOL   C32712855   6.945   6.119   0.290 -0.2427  0.1672 -0.2917
   25MOL   C32812856   7.006   6.027   0.378  0.2581 -0.1511 -0.7925
   25MOL   H32912857   6.573   5.791   0.508  2.2962  1.6450  1.3808
   25MOL   H33012858   6.479   5.931   0.476  0.4274 -1.0486 -1.3172
   25MOL   H33112859   6.596   5.873   0.748  2.7432  0.2269 -0.1035
   25MOL   H33212860   7.163   5.833   0.583 -1.9256  1.2165 -0.6629
   25MOL   H33312861   7.160   5.683   0.808  0.9140  1.0256 -2.0002
   25MOL   H33412862   6.969   5.650   0.917  2.1125 -0.0189 -0.1549
   25MOL   H33512863   6.756   5.766   0.843  0.4792  1.2256  0.1544
   25MOL   H33612864   6.625   6.093   0.403  0.7359 -1.2206  0.2865
   25MOL   H33712865   6.759   6.216   0.238 -1.6197 -0.0359  1.4599
   25MOL   H33812866   6.991   6.179   0.212  0.1413  1.4765  0.9210
   25MOL   H33912867   7.112   6.007   0.367  0.3540 -0.1282  0.0916
   25MOL   C34012868   6.552   6.071   0.704  0.6579  1.0126  1.3860
   25MOL   C34112869   6.630   6.133   0.816  0.6248  0.0789  0.7511
   25MOL   N34212870   6.592   6.276   0.841 -0.4308  0.4317 -0.1369
   25MOL   C34312871   6.673   6.389   0.813  0.0275 -0.7316  0.1198
   25MOL   C34412872   6.606   6.507   0.849 -0.4424 -0.5048 -0.3706
   25MOL   C34512873   6.660   6.637   0.821  0.5969 -0.0796  0.5484
   25MOL   C34612874   6.792   6.640   0.778 -0.3407  0.2213 -0.1187
   25MOL   C34712875   6.859   6.524   0.747  0.2070 -0.2265  0.4486
   25MOL   C34812876   6.804   6.396   0.763 -0.7348  0.1006  1.0818
   25MOL   C34912877   6.480   6.464   0.904  0.4020 -0.3270  0.3387
   25MOL   C35012878   6.469   6.324   0.887 -1.1008  0.1952  0.3759
   25MOL   C35112879   6.349   6.258   0.913 -0.0614 -0.1006 -0.8307
   25MOL   C35212880   6.238   6.333   0.963  0.7686 -0.3697 -0.1946
   25MOL   C35312881   6.245   6.473   0.971 -0.1659 -0.4698 -0.3543
   25MOL   C35412882   6.364   6.541   0.953 -0.0588  0.2317  0.9834
   25MOL   H35512883   6.553   6.135   0.615 -1.6098 -3.9968 -2.5221
   25MOL   H35612884   6.447   6.047   0.721  0.5189  1.6518  1.4499
   25MOL   H35712885   6.734   6.141   0.784 -0.2008  1.0477 -1.7466
   25MOL   H35812886   6.603   6.725   0.849 -0.3760 -0.2120 -1.0002
   25MOL   H35912887   6.835   6.739   0.774 -1.1813  0.6567  1.0801
   25MOL   H36012888   6.961   6.530   0.713  0.0334 -1.8367 -0.3883
   25MOL   H36112889   6.851   6.307   0.723 -2.1685 -0.5328  0.7885
   25MOL   H36212890   6.330   6.154   0.890 -1.6674  0.3898 -1.7908
   25MOL   H36312891   6.142   6.286   0.978 -0.4122  1.8760 -0.4720
   25MOL   H36412892   6.154   6.524   0.999  0.4060  0.5446 -0.3095
   25MOL   H36512893   6.375   6.648   0.961  3.8053  0.0108 -0.4706
   25MOL   C36612894   6.617   6.044   0.942  0.1836 -0.3292 -0.4360
   25MOL   C36712895   6.657   6.101   1.080 -0.2820 -0.5872 -0.1060
   25MOL   N36812896   6.598   6.016   1.185  0.0523  0.2187  0.4613
   25MOL   C36912897   6.483   6.058   1.255  0.3653 -0.1920 -0.0657
   25MOL   C37012898   6.459   5.964   1.363 -0.2949 -0.3958 -0.1365
   25MOL   C37112899   6.358   5.990   1.459  0.0111  0.1560  0.3635
   25MOL   C37212900   6.278   6.104   1.445 -0.2017 -0.0171 -0.1842
   25MOL   C37312901   6.293   6.196   1.337  0.1248 -0.1670 -0.4762
   25MOL   C37412902   6.401   6.171   1.245 -0.3900  0.1986 -0.3359
   25MOL   C37512903   6.550   5.855   1.336 -0.6879 -0.4165  0.6898
   25MOL   C37612904   6.636   5.892   1.236  0.7577 -0.5922 -0.2097
   25MOL   C37712905   6.729   5.798   1.190 -0.3038 -0.8489 -0.4454
   25MOL   C37812906   6.746   5.672   1.247  0.0372  0.2613  0.7206
   25MOL   C37912907   6.663   5.635   1.351 -0.3113  0.0065  0.5573
   25MOL   C38012908   6.569   5.730   1.391  0.3945 -0.1614 -0.2014
   25MOL   H38112909   6.514   6.007   0.952  0.5537 -1.2323  0.0800
   25MOL   H38212910   6.674   5.952   0.933 -0.8893 -0.7637 -3.1349
   25MOL   H38312911   6.618   6.202   1.093  1.1664  0.1434 -1.2663
   25MOL   H38412912   6.365   5.924   1.544 -0.4288  0.6186  0.7628
   25MOL   H38512913   6.208   6.121   1.525  1.3252  1.8584  0.8161
   25MOL   H38612914   6.236   6.287   1.339  2.0531  1.0470  1.1761
   25MOL   H38712915   6.426   6.243   1.169  0.1881  0.2338 -0.1138
   25MOL   H38812916   6.802   5.836   1.120  0.3970  1.5592  1.4911
   25MOL   H38912917   6.815   5.596   1.214 -2.2259 -1.6444  0.2320
   25MOL   H39012918   6.668   5.537   1.397 -1.9016  0.2546  1.2738
   25MOL   H39112919   6.497   5.709   1.469  1.6110  0.1842  1.0453
   25MOL   C39212920   6.805   6.122   1.081 -0.3551 -0.2241 -0.8407
   25MOL   C39312921   6.867   6.126   1.221 -0.4157  0.5399 -0.1927
   25MOL   N39412922   7.013   6.129   1.208 -0.0177  0.2238 -0.3593
   25MOL   C39512923   7.092   6.029   1.258  0.2832  0.3970 -0.6757
   25MOL   C39612924   7.227   6.065   1.246 -0.0829  0.0141  0.3389
   25MOL   C39712925   7.329   5.978   1.305 -0.6233  0.5851  0.7739
   25MOL   C39812926   7.287   5.861   1.366  0.5323  1.0807  0.0023
   25MOL   C39912927   7.154   5.827   1.384  0.2710  0.7449 -0.4831
   25MOL   C40012928   7.055   5.913   1.331 -0.8863 -0.4915  0.2024
   25MOL   C40112929   7.229   6.186   1.169  0.8284 -0.6847 -0.6126
   25MOL   C40212930   7.095   6.223   1.147  0.2426  0.0022 -0.2966
   25MOL   C40312931   7.065   6.342   1.079 -0.1468  0.4384  0.2829
   25MOL   C40412932   7.173   6.418   1.033  0.7903 -0.1952  0.0328
   25MOL   C40512933   7.306   6.382   1.057 -0.5767 -0.2684  0.1882
   25MOL   C40612934   7.336   6.260   1.117  0.0857 -0.1993  0.3246
   25MOL   H40712935   6.856   6.044   1.023 -0.4819 -0.1536 -1.0518
   25MOL   H40812936   6.837   6.209   1.024  0.1576  0.6424  0.7540
   25MOL   H40912937   6.833   6.046   1.287  0.1633  0.7969  0.4307
   25MOL   H41012938   7.436   5.989   1.295 -0.9280  1.6882 -1.7340
   25MOL   H41112939   7.358   5.793   1.410 -1.8533 -2.0406 -0.7517
   25MOL   H41212940   7.119   5.737   1.433 -0.9286  0.3900 -1.9457
   25MOL   H41312941   6.950   5.891   1.329 -0.5635 -2.1513  1.1026
   25MOL   H41412942   6.961   6.364   1.059 -1.1378 -2.9554  1.3841
   25MOL   H41512943   7.161   6.501   0.965  1.9446  1.7433  2.1283
   25MOL   H41612944   7.377   6.444   1.004 -0.3625 -0.7745 -0.1223
   25MOL   H41712945   7.437   6.221   1.120 -0.8890 -3.0576 -1.7915
   25MOL   C41812946   6.825   6.252   1.303  0.4514  0.4005  0.0524
   25MOL   C41912947   6.886   6.261   1.448  0.7643 -0.2827  0.3832
   25MOL   N42012948   6.860   6.388   1.513 -0.0815 -0.9933 -0.4214
   25MOL   C42112949   6.948   6.500   1.526  0.1922  0.2007 -0.4797
   25MOL   C42212950   6.892   6.592   1.619 -0.1721 -0.1134 -0.7219
   25MOL   C42312951   6.969   6.695   1.675  0.6883  0.3406  0.1705
   25MOL   C42412952   7.107   6.702   1.639 -0.2434  0.6118 -0.2885
   25MOL   C42512953   7.163   6.610   1.549 -0.0157 -0.2656  0.3184
   25MOL   C42612954   7.082   6.522   1.479  0.4149 -0.7581  0.3391
   25MOL   C42712955   6.748   6.556   1.628 -0.7886  0.9955  0.3754
   25MOL   C42812956   6.734   6.429   1.563  0.1586  0.1354 -0.5221
   25MOL   C42912957   6.601   6.375   1.555  0.1683  0.3234 -0.8721
   25MOL   C43012958   6.495   6.443   1.619  0.9310 -0.3741 -0.4622
   25MOL   C43112959   6.515   6.565   1.678 -0.3028  0.5137 -0.3102
   25MOL   C43212960   6.644   6.617   1.687  0.2937 -0.3178  0.0589
   25MOL   H43312961   6.858   6.339   1.246 -2.0377  1.0188 -0.5257
   25MOL   H43412962   6.716   6.255   1.315  0.2117  0.4623 -1.9193
   25MOL   H43512963   6.993   6.257   1.432  0.7834 -0.0978  0.4604
   25MOL   H43612964   6.927   6.776   1.732  0.0432  0.5519 -0.5936
   25MOL   H43712965   7.173   6.775   1.683 -0.3793  0.6725 -0.1860
   25MOL   H43812966   7.269   6.605   1.528 -0.2288 -1.0292 -0.6251
   25MOL   H43912967   7.130   6.462   1.403  2.2893  0.3486  0.6113
   25MOL   H44012968   6.578   6.282   1.505 -1.7474 -0.5410  1.5090
   25MOL   H44112969   6.402   6.389   1.616  0.9367 -0.3692 -0.6975
   25MOL   H44212970   6.435   6.624   1.722  0.2493 -0.1485  1.6274
   25MOL   H44312971   6.659   6.709   1.741 -0.9824  0.1309 -0.3392
   25MOL   C44412972   6.843   6.140   1.533  0.2660 -0.0920 -0.4434
   25MOL   C44512973   6.894   6.141   1.674 -0.0835  0.3601  0.5484
   25MOL   N44612974   6.790   6.095   1.759  0.5463  0.3395  0.5983
   25MOL   C44712975   6.732   6.180   1.852 -0.1497 -0.0814  0.4443
   25MOL   C44812976   6.617   6.118   1.910 -0.5488  0.3107 -0.4628
   25MOL   C44912977   6.549   6.191   2.009 -1.4055 -0.8734 -0.5416
   25MOL   C45012978   6.589   6.319   2.044  0.1482 -0.1927  0.0417
   25MOL   C45112979   6.702   6.378   1.991  0.5438 -0.9597 -0.3558
   25MOL   C45212980   6.780   6.310   1.898 -0.3857 -0.0534 -0.2859
   25MOL   C45312981   6.612   5.990   1.864  0.0038  0.2335  0.4728
   25MOL   C45412982   6.718   5.975   1.767 -0.0506 -0.3942  0.2055
   25MOL   C45512983   6.736   5.854   1.698  0.5238  0.5755 -0.0532
   25MOL   C45612984   6.652   5.744   1.728  0.2914  0.3219  0.0079
   25MOL   C45712985   6.546   5.761   1.816 -0.4140  0.1845 -0.9617
   25MOL   C45812986   6.523   5.876   1.885 -0.7704  0.2695 -0.6241
   25MOL   H45912987   6.734   6.132   1.532  0.3454 -1.3879  0.0103
   25MOL   H46012988   6.872   6.048   1.481 -0.5582  0.0409 -1.1607
   25MOL   H46112989   6.928   6.240   1.702  0.5640  0.0332  0.9273
   25MOL   H46212990   6.461   6.148   2.055 -2.1787  0.4944 -0.7235
   25MOL   H46312991   6.532   6.377   2.116  1.0069 -1.0832  1.4439
   25MOL   H46412992   6.737   6.475   2.025  0.8174 -1.1130 -0.1946
   25MOL   H46512993   6.878   6.345   1.869 -0.2922 -0.9086 -1.0305
   25MOL   H46612994   6.813   5.845   1.623  0.1647 -1.0358 -0.2550
   25MOL   H46712995   6.677   5.653   1.675 -0.3003  0.9959 -1.4436
   25MOL   H46812996   6.476   5.685   1.845 -0.2489  0.5148  0.3378
   25MOL   H46912997   6.437   5.889   1.949 -1.9573 -3.6107 -1.3192
   25MOL   C47012998   7.014   6.051   1.689  0.3285  0.1589  0.2562
   25MOL   C47112999   7.147   6.115   1.731  0.2375  0.3850 -0.5533
   25MOL   N47213000   7.145   6.195   1.857  0.2039  0.5616  0.5975
   25MOL   C47313001   7.210   6.317   1.873 -0.3703 -0.2438 -0.1795
   25MOL   C47413002   7.198   6.369   2.005  0.3816 -0.2977  0.1883
   25MOL   C47513003   7.262   6.492   2.039 -0.6899  0.8449  0.4161
   25MOL   C47613004   7.344   6.556   1.947  0.6755 -0.1259  0.1136
   25MOL   C47713005   7.357   6.506   1.816 -0.0875 -0.3327  0.0309
   25MOL   C47813006   7.285   6.392   1.782  0.5561  0.3180 -0.4408
   25MOL   C47913007   7.112   6.275   2.077 -0.2171  0.0990 -0.2895
   25MOL   C48013008   7.093   6.166   1.987 -1.1206  0.4636 -0.1072
   25MOL   C48113009   7.023   6.055   2.029  0.4722  0.2180 -0.7145
   25MOL   C48213010   6.967   6.055   2.160 -0.7349 -0.3392 -0.8157
   25MOL   C48313011   6.980   6.164   2.246 -0.0227  0.2821 -0.4628
   25MOL   C48413012   7.052   6.277   2.201 -0.6241  0.1294  0.8397
   25MOL   H48513013   7.003   5.965   1.754 -0.8142  0.6810  0.7761
   25MOL   H48613014   7.034   6.006   1.592 -1.5692 -0.7142  0.2519
   25MOL   H48713015   7.173   6.182   1.650 -0.0385  1.6199  0.3715
   25MOL   H48813016   7.258   6.523   2.143  1.1680  2.4799  0.0492
   25MOL   H48913017   7.393   6.648   1.973 -1.7500  0.6729  2.0443
   25MOL   H49013018   7.418   6.557   1.743  0.6516 -1.8650 -0.4394
   25MOL   H49113019   7.304   6.358   1.681  0.3573 -0.5055 -0.2014
   25MOL   H49213020   7.000   5.968   1.969 -1.3959  0.3843 -0.2642
   25MOL   H49313021   6.905   5.975   2.198  0.2279 -0.2448  1.0304
   25MOL   H49413022   6.931   6.171   2.342 -1.9685 -1.8288 -1.2469
   25MOL   H49513023   7.071   6.364   2.262  0.8877  1.1971 -1.0647
   25MOL   C49613024   7.271   6.014   1.737  0.2981  0.5548  0.0179
   25MOL   C49713025   7.410   6.082   1.763 -0.8128  0.0254  0.9321
   25MOL   N49813026   7.521   5.985   1.773 -0.2425 -0.2450  0.7246
   25MOL   C49913027   7.619   5.959   1.677  0.2451  0.0059  0.0956
   25MOL   C50013028   7.720   5.869   1.731  0.0313 -0.4207  0.6799
   25MOL   C50113029   7.841   5.854   1.654  0.0504  0.5272 -0.2638
   25MOL   C50213030   7.835   5.889   1.514 -0.0036 -0.1935  0.3843
   25MOL   C50313031   7.726   5.962   1.460 -0.1128  0.0717  0.7177
   25MOL   C50413032   7.624   5.999   1.544  0.5509  0.2446  0.0847
   25MOL   C50513033   7.674   5.829   1.858 -0.3063  0.5687 -0.0591
   25MOL   C50613034   7.547   5.896   1.878  0.4832 -0.7484 -0.5195
   25MOL   C50713035   7.469   5.875   1.994 -0.1907 -0.2542 -0.4439
   25MOL   C50813036   7.507   5.778   2.091  0.7896  0.5903 -0.0257
   25MOL   C50913037   7.635   5.718   2.073 -0.0294 -0.5035 -0.7644
   25MOL   C51013038   7.721   5.746   1.960 -0.1927  0.4486  0.1424
   25MOL   H51113039   7.258   5.942   1.818  0.1232  0.1403 -0.3795
   25MOL   H51213040   7.272   5.957   1.644  0.4814  0.8887 -0.1851
   25MOL   H51313041   7.410   6.134   1.858  0.7026  0.9009  0.4696
   25MOL   H51413042   7.923   5.799   1.698 -0.2918  1.1128  1.1332
   25MOL   H51513043   7.914   5.863   1.445  0.8748 -1.7227  1.9250
   25MOL   H51613044   7.725   5.993   1.357 -0.7823 -0.4081  0.5741
   25MOL   H51713045   7.544   6.053   1.497 -0.3371 -2.5134 -1.6900
   25MOL   H51813046   7.380   5.932   2.017  0.3741 -0.7999  3.4107
   25MOL   H51913047   7.450   5.755   2.180  1.4522 -0.6225  0.1006
   25MOL   H52013048   7.677   5.644   2.139  0.3463  0.4412  0.0719
   25MOL   H52113049   7.817   5.701   1.938 -0.3560 -0.5046  1.3442
   25MOL   H52213050   7.427   6.157   1.686 -0.3548 -0.4879  0.5249
   26MOL     C113051   5.014   5.881   5.554  0.5276  0.0956  0.1600
   26MOL     C213052   5.128   5.969   5.603 -0.1602 -0.7134 -0.6063
   26MOL     N313053   5.129   6.079   5.508  0.6021 -0.6208 -0.0518
   26MOL     C413054   5.242   6.122   5.438 -0.7025 -0.2496  0.5599
   26MOL     C513055   5.208   6.239   5.360  0.1062  0.2067  0.5202
   26MOL     C613056   5.316   6.292   5.279  0.1843 -0.2575  0.0250
   26MOL     C713057   5.445   6.229   5.269  0.0623  0.5491  0.0823
   26MOL     C813058   5.470   6.114   5.349 -0.3858  0.7706 -0.0286
   26MOL     C913059   5.367   6.059   5.437 -1.4233 -1.2367  0.2575
   26MOL    C1013060   5.076   6.274   5.390 -0.1223  0.7089 -0.0300
   26MOL    C1113061   5.027   6.179   5.487  0.2021  0.2180  0.2331
   26MOL    C1213062   4.897   6.198   5.540  0.2782 -0.2710 -0.1465
   26MOL    C1313063   4.822   6.313   5.507  0.0198  0.4227 -0.3347
   26MOL    C1413064   4.873   6.408   5.417 -0.5117  0.5264 -0.0749
   26MOL    C1513065   4.996   6.388   5.356 -0.5274 -0.6056  0.0816
   26MOL    H1613066   5.038   5.843   5.455 -2.9227  0.6672 -0.9534
   26MOL    H1713067   4.925   5.944   5.554  1.7051  1.8025 -2.3483
   26MOL    H1813068   5.224   5.917   5.600 -0.0304 -0.4447 -1.5317
   26MOL    H1913069   5.282   6.374   5.217  1.0758  1.9569  2.4022
   26MOL    H2013070   5.526   6.267   5.209  1.6940 -0.3119  1.7010
   26MOL    H2113071   5.572   6.078   5.342 -0.8030 -0.5560  0.4893
   26MOL    H2213072   5.395   5.971   5.493  0.0524 -1.2302 -0.4481
   26MOL    H2313073   4.860   6.133   5.618  0.5179  1.6495  1.5929
   26MOL    H2413074   4.732   6.324   5.565 -0.7886 -1.5990 -1.1557
   26MOL    H2513075   4.819   6.500   5.399 -0.0861  1.5167  3.3077
   26MOL    H2613076   5.044   6.462   5.294  1.8522 -0.8671  1.5637
   26MOL    H2713077   4.997   5.785   5.604  0.1476 -0.2663 -0.6534
   26MOL    C2813078   5.114   6.018   5.739  0.8150  0.4403  0.4491
   26MOL    C2913079   5.155   5.915   5.844 -0.4584  0.0967 -0.1230
   26MOL    N3013080   5.306   5.894   5.843 -0.1078  0.4582 -0.6690
   26MOL    C3113081   5.362   5.766   5.842 -0.5828  0.7420 -0.6468
   26MOL    C3213082   5.503   5.779   5.837 -0.5279 -0.4263 -0.0147
   26MOL    C3313083   5.581   5.658   5.827 -0.8290 -0.1960  0.1366
   26MOL    C3413084   5.521   5.528   5.835  0.3046 -0.5783  0.1648
   26MOL    C3513085   5.381   5.520   5.839 -0.4536 -0.2560 -0.0800
   26MOL    C3613086   5.302   5.638   5.852 -0.0380 -0.6676  0.4138
   26MOL    C3713087   5.534   5.920   5.843 -0.1059  0.2450  0.3070
   26MOL    C3813088   5.413   5.987   5.863 -1.2333 -0.2374 -0.5901
   26MOL    C3913089   5.406   6.127   5.880  0.5216 -0.2312  0.6911
   26MOL    C4013090   5.522   6.203   5.869  0.3045  0.2178  0.6271
   26MOL    C4113091   5.644   6.137   5.861  0.7982  0.3810 -0.3747
   26MOL    C4213092   5.651   6.001   5.844  0.1222  0.9621 -1.1269
   26MOL    H4313093   5.149   6.119   5.757  1.4847  0.5584 -1.4190
   26MOL    H4413094   5.008   6.044   5.745  0.5780  0.4896 -3.1196
   26MOL    H4513095   5.102   5.829   5.803 -2.1797 -0.1103  2.4337
   26MOL    H4613096   5.688   5.659   5.812 -0.9952  0.0185 -1.0416
   26MOL    H4713097   5.586   5.443   5.840 -1.1496 -1.7195  0.1334
   26MOL    H4813098   5.334   5.423   5.847 -0.7463 -0.0956  0.1566
   26MOL    H4913099   5.196   5.620   5.850  0.0483 -1.1354 -0.1921
   26MOL    H5013100   5.310   6.176   5.890  0.4703 -0.5670  1.9863
   26MOL    H5113101   5.517   6.311   5.875  1.0505  0.2622  0.5728
   26MOL    H5213102   5.735   6.195   5.865  1.7530 -1.0221 -1.3347
   26MOL    H5313103   5.745   5.948   5.841 -0.9366 -1.0605  0.0049
   26MOL    C5413104   5.106   5.942   5.984  0.1989  0.6891 -0.0426
   26MOL    C5513105   4.948   5.937   6.000 -0.1181 -0.1972 -0.6048
   26MOL    N5613106   4.880   5.828   5.927 -0.9893  0.0597 -0.1042
   26MOL    C5713107   4.772   5.851   5.834 -0.2968  0.4374 -0.7887
   26MOL    C5813108   4.722   5.726   5.790  0.8072  0.0446  0.0041
   26MOL    C5913109   4.617   5.722   5.699 -0.1474 -0.2778  0.1298
   26MOL    C6013110   4.558   5.847   5.658  0.2871 -0.9171 -0.2554
   26MOL    C6113111   4.599   5.973   5.701 -0.1532  0.3480 -0.3092
   26MOL    C6213112   4.716   5.970   5.779 -0.0718  0.6253 -0.3581
   26MOL    C6313113   4.799   5.623   5.854 -0.2566  0.7102  0.4720
   26MOL    C6413114   4.900   5.691   5.932 -0.4278  0.4298  0.0540
   26MOL    C6513115   4.994   5.618   6.015 -0.1241  0.0883  0.3546
   26MOL    C6613116   4.985   5.474   6.012 -0.1057  0.4166 -0.2891
   26MOL    C6713117   4.898   5.408   5.922  0.3329  0.0885 -0.1684
   26MOL    C6813118   4.807   5.480   5.842 -1.0691  0.2585  0.1883
   26MOL    H6913119   5.146   5.866   6.051 -0.3422  0.7680  0.3807
   26MOL    H7013120   5.154   6.033   6.019  1.5584 -0.1288  0.2649
   26MOL    H7113121   4.905   6.027   5.956 -0.8401 -0.2028  0.0849
   26MOL    H7213122   4.597   5.623   5.662  0.2624 -1.5121  3.0673
   26MOL    H7313123   4.474   5.838   5.592 -0.4037 -4.1393  0.9935
   26MOL    H7413124   4.561   6.068   5.668  0.7087  0.7653 -0.1246
   26MOL    H7513125   4.755   6.068   5.803  2.5667  0.0578 -2.1516
   26MOL    H7613126   5.064   5.677   6.072 -0.6792  1.2642 -0.1591
   26MOL    H7713127   5.052   5.411   6.067 -1.8053 -1.2936 -0.1059
   26MOL    H7813128   4.902   5.301   5.915  0.2350  0.1155 -0.6162
   26MOL    H7913129   4.747   5.422   5.774  0.0284 -0.9401  0.2283
   26MOL    C8013130   4.898   5.943   6.138 -0.2909 -0.2591 -0.3980
   26MOL    C8113131   4.942   6.070   6.215  0.4156 -0.9040  0.2678
   26MOL    N8213132   4.916   6.198   6.146 -0.0980  0.2459  0.8949
   26MOL    C8313133   5.017   6.284   6.103  0.2261 -0.2280  0.1111
   26MOL    C8413134   4.957   6.377   6.010  0.3055 -1.0232  0.1102
   26MOL    C8513135   5.034   6.475   5.934  0.2525 -0.2221  0.7194
   26MOL    C8613136   5.174   6.483   5.965  0.2254  0.3538 -0.2940
   26MOL    C8713137   5.229   6.391   6.059 -0.2911  0.2883  0.3248
   26MOL    C8813138   5.149   6.301   6.132 -0.7378  0.0256 -0.1209
   26MOL    C8913139   4.825   6.344   6.001  0.6492  0.5150 -0.8777
   26MOL    C9013140   4.798   6.247   6.097  0.4441 -0.1220 -1.2423
   26MOL    C9113141   4.670   6.203   6.123 -0.6709 -0.0617  0.3784
   26MOL    C9213142   4.563   6.249   6.043 -0.5232 -0.3837 -0.0583
   26MOL    C9313143   4.585   6.344   5.948 -0.2229  0.2209 -0.1708
   26MOL    C9413144   4.714   6.394   5.925 -0.3193  0.4190 -0.8728
   26MOL    H9513145   4.790   5.938   6.124 -0.2559  2.3882 -1.9553
   26MOL    H9613146   4.928   5.853   6.192  0.5953 -0.8328 -1.8262
   26MOL    H9713147   5.051   6.068   6.219  0.5643  0.2738 -2.2906
   26MOL    H9813148   4.991   6.535   5.855  1.6774 -1.0451 -0.7172
   26MOL    H9913149   5.250   6.547   5.923  1.5999 -0.4664  0.8797
   26MOL   H10013150   5.333   6.403   6.085 -0.0410 -0.2805 -0.3750
   26MOL   H10113151   5.194   6.228   6.198 -0.5681 -0.3924 -0.6849
   26MOL   H10213152   4.651   6.124   6.194  2.5143  0.7212  2.1884
   26MOL   H10313153   4.462   6.214   6.058 -0.1384 -0.4902  2.4976
   26MOL   H10413154   4.506   6.390   5.890  0.3031 -1.5935 -2.4171
   26MOL   H10513155   4.735   6.460   5.842 -1.8369  1.1270 -0.7121
   26MOL   C10613156   4.904   6.089   6.367  0.5761 -0.4297  0.2126
   26MOL   C10713157   4.944   5.967   6.460  0.4428 -0.5549 -0.1801
   26MOL   N10813158   5.056   5.884   6.413 -0.5036  1.1720 -0.0356
   26MOL   C10913159   5.062   5.743   6.387  0.1625 -0.2258  0.3570
   26MOL   C11013160   5.182   5.705   6.326  0.1157  0.3699  0.1749
   26MOL   C11113161   5.202   5.572   6.281 -1.2253 -0.9420 -0.2991
   26MOL   C11213162   5.106   5.476   6.311  0.8355 -0.0728 -0.3302
   26MOL   C11313163   4.982   5.511   6.374 -0.1783 -0.4249 -0.9142
   26MOL   C11413164   4.963   5.641   6.409 -0.3122  0.2873 -0.2255
   26MOL   C11513165   5.252   5.832   6.312  0.3857 -0.6244  0.4021
   26MOL   C11613166   5.182   5.932   6.386  0.1832  1.0390  0.3709
   26MOL   C11713167   5.247   6.060   6.413 -0.9812 -0.1347  0.0243
   26MOL   C11813168   5.376   6.088   6.355 -0.2982  0.3684 -0.8773
   26MOL   C11913169   5.435   5.993   6.270 -0.6626 -0.2597  0.2029
   26MOL   C12013170   5.372   5.870   6.247 -0.4360  0.7185  0.0724
   26MOL   H12113171   4.954   6.182   6.396 -0.9018  0.5744 -0.3952
   26MOL   H12213172   4.796   6.098   6.369  0.6640  0.6564  0.1502
   26MOL   H12313173   4.864   5.896   6.442  1.6518 -1.6712 -1.3017
   26MOL   H12413174   5.293   5.545   6.230 -1.1879  0.2146 -0.8616
   26MOL   H12513175   5.129   5.373   6.289 -4.0146 -1.5846  1.1909
   26MOL   H12613176   4.902   5.441   6.394 -0.7177 -0.1316 -2.0015
   26MOL   H12713177   4.865   5.661   6.451 -0.2885 -0.7278  0.3309
   26MOL   H12813178   5.192   6.128   6.476  0.1760  0.4480  0.4240
   26MOL   H12913179   5.412   6.189   6.369 -3.1918  1.5743 -1.7234
   26MOL   H13013180   5.531   6.019   6.227 -0.3049  0.2702  1.3087
   26MOL   H13113181   5.418   5.790   6.190 -2.2768 -1.2423  1.2802
   26MOL   C13213182   4.950   6.003   6.612 -0.0454 -0.5935  0.0689
   26MOL   C13313183   4.812   6.019   6.675 -0.1962 -0.0787  0.4494
   26MOL   N13413184   4.729   5.897   6.652 -0.6917  0.3448 -0.3610
   26MOL   C13513185   4.627   5.900   6.566 -0.5717 -0.1850  0.2980
   26MOL   C13613186   4.583   5.763   6.538  0.0093 -0.4109 -0.4318
   26MOL   C13713187   4.470   5.750   6.452  0.6714  0.3687  1.1519
   26MOL   C13813188   4.418   5.861   6.382 -0.3200  0.3510  0.2308
   26MOL   C13913189   4.463   5.988   6.404  0.3270 -1.0200 -0.1086
   26MOL   C14013190   4.566   6.012   6.494  0.5607 -0.1383 -0.0492
   26MOL   C14113191   4.658   5.682   6.623 -0.3974 -1.0094 -0.0871
   26MOL   C14213192   4.749   5.763   6.698 -0.2656 -0.3944 -0.7033
   26MOL   C14313193   4.840   5.712   6.798 -0.6452 -0.0538  0.1289
   26MOL   C14413194   4.833   5.573   6.828  0.7730  0.0788  0.2878
   26MOL   C14513195   4.742   5.495   6.755  0.2729 -0.0653  0.4556
   26MOL   C14613196   4.658   5.548   6.656 -0.0185  0.5989  0.1316
   26MOL   H14713197   4.995   5.925   6.674 -0.5631 -0.5844  0.4683
   26MOL   H14813198   5.009   6.093   6.623  0.0521 -0.7529  0.8747
   26MOL   H14913199   4.771   6.101   6.616  2.0184 -0.5363 -1.8485
   26MOL   H15013200   4.424   5.654   6.435 -3.3907  2.4374 -0.1015
   26MOL   H15113201   4.338   5.840   6.312  1.5736 -0.5818 -1.7245
   26MOL   H15213202   4.429   6.083   6.364 -1.2007 -1.7458 -0.5579
   26MOL   H15313203   4.591   6.116   6.514 -0.0577  0.2616 -1.2948
   26MOL   H15413204   4.907   5.788   6.837 -0.1594 -0.5008  0.1601
   26MOL   H15513205   4.893   5.527   6.905  1.7120 -0.8460 -0.9934
   26MOL   H15613206   4.740   5.390   6.783  0.8934 -0.0634  0.5247
   26MOL   H15713207   4.595   5.475   6.609  0.3213  1.1179 -1.1474
   26MOL   C15813208   4.805   6.071   6.818  0.5689 -0.7252 -0.0040
   26MOL   C15913209   4.886   6.205   6.856  0.2670 -0.1856  0.2562
   26MOL   N16013210   4.872   6.305   6.746  0.3458  0.3784  0.5825
   26MOL   C16113211   4.974   6.360   6.670 -0.7464 -0.0466  0.4425
   26MOL   C16213212   4.919   6.415   6.549 -0.1194  0.4659 -0.3498
   26MOL   C16313213   5.008   6.455   6.445  0.1925  0.3942  0.4165
   26MOL   C16413214   5.147   6.446   6.459  0.3007 -0.3389 -0.7610
   26MOL   C16513215   5.203   6.394   6.580  0.6460 -0.6389 -0.3713
   26MOL   C16613216   5.112   6.342   6.683 -0.0826 -0.8322 -0.3173
   26MOL   C16713217   4.776   6.418   6.569 -0.4110 -0.2175  0.2349
   26MOL   C16813218   4.750   6.352   6.692 -0.6966  0.7971 -0.5810
   26MOL   C16913219   4.614   6.322   6.730 -0.1213 -0.1591 -0.5518
   26MOL   C17013220   4.508   6.365   6.647  0.2461  0.2287  0.4966
   26MOL   C17113221   4.536   6.424   6.520 -0.1221 -0.1538 -0.7078
   26MOL   C17213222   4.670   6.452   6.488  0.4918  0.3411  0.0962
   26MOL   H17313223   4.699   6.090   6.831  0.3838 -1.3982 -0.5075
   26MOL   H17413224   4.828   5.995   6.893  2.5707  1.0635  1.2499
   26MOL   H17513225   4.988   6.168   6.842 -0.2894 -1.4279 -0.5520
   26MOL   H17613226   4.973   6.494   6.351 -0.1302 -1.3474 -0.2013
   26MOL   H17713227   5.192   6.494   6.373 -2.1686 -0.1198 -1.9787
   26MOL   H17813228   5.310   6.381   6.585  0.5374 -1.3313  0.1839
   26MOL   H17913229   5.155   6.302   6.774  0.4675  1.2818  0.3787
   26MOL   H18013230   4.599   6.259   6.816  0.5302 -0.1973 -0.4604
   26MOL   H18113231   4.411   6.330   6.677  0.2101 -0.6009 -0.5340
   26MOL   H18213232   4.461   6.449   6.447  0.7575  1.2389 -1.1417
   26MOL   H18313233   4.680   6.504   6.394 -0.7597 -0.5260 -0.5271
   26MOL   C18413234   4.854   6.259   7.006 -0.3070  0.4304 -0.1006
   26MOL   C18513235   4.862   6.163   7.128  0.4022  1.0072  0.1104
   26MOL   N18613236   4.989   6.087   7.125 -0.3589 -0.6084  0.0282
   26MOL   C18713237   5.002   5.947   7.127  0.2266  0.1987  0.0587
   26MOL   C18813238   5.144   5.909   7.127 -0.5953 -0.2046  0.0167
   26MOL   C18913239   5.185   5.772   7.118  0.1055  0.0272  0.0400
   26MOL   C19013240   5.073   5.679   7.120 -0.7042  0.0859  0.0593
   26MOL   C19113241   4.938   5.711   7.132  0.0480 -0.4664 -0.0221
   26MOL   C19213242   4.900   5.848   7.129  0.1109  0.8295 -0.3411
   26MOL   C19313243   5.214   6.030   7.130 -0.1573 -0.1470 -0.1476
   26MOL   C19413244   5.116   6.141   7.134 -0.0821  0.8224 -0.2543
   26MOL   C19513245   5.162   6.271   7.144  0.4282 -0.4945  1.3218
   26MOL   C19613246   5.295   6.303   7.133 -0.7644 -0.5087 -0.6968
   26MOL   C19713247   5.392   6.195   7.137  0.2082 -0.7052 -0.2476
   26MOL   C19813248   5.351   6.061   7.136 -0.3483  0.1755 -0.2404
   26MOL   H19913249   4.922   6.341   7.029 -0.9050  0.2102  2.6574
   26MOL   H20013250   4.755   6.304   7.003 -0.7311 -0.5264 -0.8364
   26MOL   H20113251   4.782   6.091   7.112  1.1274  0.6452 -1.9678
   26MOL   H20213252   5.288   5.738   7.114  0.4669  1.0571  0.4178
   26MOL   H20313253   5.096   5.573   7.123  1.9438  0.6366  0.3022
   26MOL   H20413254   4.864   5.634   7.132  0.0902 -0.5058 -0.6305
   26MOL   H20513255   4.794   5.869   7.132  0.0578  0.4338  2.5563
   26MOL   H20613256   5.094   6.354   7.149 -0.1095 -0.7552 -0.8732
   26MOL   H20713257   5.338   6.400   7.151 -1.0610 -0.4625 -0.2363
   26MOL   H20813258   5.498   6.215   7.134 -0.1771  1.8236  1.1056
   26MOL   H20913259   5.428   5.985   7.138  1.4262  1.9161 -1.1012
   26MOL   C21013260   4.824   6.243   7.263 -0.7729 -0.5069  0.6844
   26MOL   C21113261   4.844   6.148   7.381  0.0617 -0.1254 -0.3379
   26MOL   N21213262   4.936   6.204   7.482 -0.7143  0.1669  0.2673
   26MOL   C21313263   5.062   6.163   7.514  0.4983 -0.3453  0.6655
   26MOL   C21413264   5.119   6.241   7.612  0.1662 -0.4833 -0.0104
   26MOL   C21513265   5.254   6.215   7.655  0.2558 -0.2299 -0.5292
   26MOL   C21613266   5.322   6.103   7.601 -0.3966  0.2174 -0.3402
   26MOL   C21713267   5.263   6.026   7.503 -0.7366 -0.1640  1.8125
   26MOL   C21813268   5.131   6.056   7.466  1.2651  0.5907 -0.2029
   26MOL   C21913269   5.019   6.332   7.658 -0.5348 -0.3047  0.4600
   26MOL   C22013270   4.908   6.309   7.570 -0.1517  0.2663 -0.3384
   26MOL   C22113271   4.794   6.383   7.582 -0.0382 -0.5179 -0.0838
   26MOL   C22213272   4.783   6.481   7.682 -0.1465 -0.2838  0.2683
   26MOL   C22313273   4.889   6.498   7.773 -0.2861  0.4140  0.2700
   26MOL   C22413274   5.010   6.428   7.757  0.3684  0.0331  0.2894
   26MOL   H22513275   4.894   6.326   7.265 -0.4341 -0.6667 -2.1362
   26MOL   H22613276   4.724   6.285   7.260 -0.6286 -0.2220 -0.4648
   26MOL   H22713277   4.902   6.060   7.352  2.0135  1.3258 -1.0294
   26MOL   H22813278   5.297   6.261   7.743  0.5843 -2.7855  0.7220
   26MOL   H22913279   5.424   6.083   7.632  0.3805 -1.1500 -3.4928
   26MOL   H23013280   5.309   5.939   7.457  0.6138  2.2252 -1.5933
   26MOL   H23113281   5.088   5.995   7.387 -0.7162  2.1813 -0.4013
   26MOL   H23213282   4.713   6.368   7.512  1.1671  0.5123 -1.7371
   26MOL   H23313283   4.692   6.538   7.693 -0.6766 -1.4729  2.5408
   26MOL   H23413284   4.876   6.577   7.846  1.1563 -0.4846  1.5140
   26MOL   H23513285   5.092   6.447   7.825  0.4766  2.5555 -0.4729
   26MOL   C23613286   4.706   6.086   7.429  0.1053  0.2260  0.5882
   26MOL   C23713287   4.713   5.946   7.493  0.2760  0.7469 -0.1731
   26MOL   N23813288   4.816   5.933   7.596  0.3559  0.2038 -0.2085
   26MOL   C23913289   4.918   5.837   7.592 -0.1372  0.9676 -0.2322
   26MOL   C24013290   4.977   5.824   7.719 -0.6206 -0.1551 -0.4530
   26MOL   C24113291   5.082   5.729   7.732  0.0287  0.3186 -0.7480
   26MOL   C24213292   5.123   5.656   7.622  0.3392  0.5888  0.9233
   26MOL   C24313293   5.060   5.664   7.499 -0.1753 -0.2981 -0.4713
   26MOL   C24413294   4.961   5.754   7.483  0.0019  0.6716 -0.5577
   26MOL   C24513295   4.921   5.932   7.796 -0.2180  0.0010 -0.6240
   26MOL   C24613296   4.824   5.996   7.718  0.6237 -0.2412 -0.5303
   26MOL   C24713297   4.743   6.100   7.777 -0.0915 -0.1412 -0.1460
   26MOL   C24813298   4.770   6.136   7.909  0.4411  0.3008  0.0006
   26MOL   C24913299   4.878   6.081   7.977 -0.7384 -1.4383 -0.6618
   26MOL   C25013300   4.951   5.971   7.932 -0.0989 -0.1402 -0.3329
   26MOL   H25113301   4.665   6.151   7.506 -2.9063  0.9401 -1.5039
   26MOL   H25213302   4.642   6.080   7.340  2.6106  1.8163 -1.4041
   26MOL   H25313303   4.733   5.877   7.411  1.0792 -0.8445  1.3175
   26MOL   H25413304   5.144   5.724   7.820 -1.0092 -2.9702 -0.1520
   26MOL   H25513305   5.202   5.583   7.634  1.0475  1.0909 -0.5206
   26MOL   H25613306   5.089   5.606   7.412  0.6573 -1.4667  0.5593
   26MOL   H25713307   4.918   5.773   7.386 -1.9903  1.4621  0.4502
   26MOL   H25813308   4.663   6.148   7.722 -1.3380 -1.7492  0.2309
   26MOL   H25913309   4.715   6.219   7.952 -1.4753 -0.2998 -1.2165
   26MOL   H26013310   4.900   6.118   8.076 -1.8640 -0.7496 -0.6544
   26MOL   H26113311   5.023   5.918   7.992  0.9269  0.5218 -0.9468
   26MOL   C26213312   4.579   5.900   7.545 -0.3528  0.2082 -0.4384
   26MOL   C26313313   4.457   5.908   7.463  0.3300 -0.4920  0.2807
   26MOL   N26413314   4.487   5.877   7.320 -0.2996 -0.0610 -0.1866
   26MOL   C26513315   4.462   5.958   7.205  0.8492  0.5673 -0.6841
   26MOL   C26613316   4.467   5.884   7.087  0.3622 -0.0907 -0.3211
   26MOL   C26713317   4.452   5.963   6.960  0.3838 -0.0035  0.1641
   26MOL   C26813318   4.426   6.102   6.954 -0.0971 -0.1507  0.0442
   26MOL   C26913319   4.405   6.165   7.081 -0.2108 -0.5436 -0.1410
   26MOL   C27013320   4.415   6.095   7.198 -0.8652  0.8489 -0.4989
   26MOL   C27113321   4.502   5.748   7.130 -0.1640  0.0657  0.1790
   26MOL   C27213322   4.516   5.748   7.272 -0.2756  0.2576  0.0074
   26MOL   C27313323   4.548   5.630   7.340  0.3043  0.6570 -0.4022
   26MOL   C27413324   4.573   5.511   7.268  0.3629 -0.1002  0.2711
   26MOL   C27513325   4.560   5.509   7.126 -0.2524  0.6943 -0.1574
   26MOL   C27613326   4.522   5.630   7.059  0.3643  0.1238  0.1593
   26MOL   H27713327   4.596   5.800   7.584 -0.6967  1.0197  1.9039
   26MOL   H27813328   4.548   5.958   7.633 -2.0607  0.5637 -1.2426
   26MOL   H27913329   4.418   6.009   7.460 -0.9388 -0.9626  0.7018
   26MOL   H28013330   4.445   5.918   6.862  1.5150 -0.7013  0.3853
   26MOL   H28113331   4.401   6.161   6.868 -2.3219 -0.6309  0.3418
   26MOL   H28213332   4.378   6.270   7.080  0.4502 -0.3793 -1.8774
   26MOL   H28313333   4.388   6.155   7.283 -0.8364  0.0672  0.0750
   26MOL   H28413334   4.552   5.628   7.448 -0.2393  0.1659 -0.3862
   26MOL   H28513335   4.591   5.419   7.321  2.9514 -0.0177 -0.3789
   26MOL   H28613336   4.558   5.417   7.069 -0.2368  1.7518 -1.8911
   26MOL   H28713337   4.520   5.643   6.952  0.0079  0.7769  0.2464
   26MOL   C28813338   4.334   5.839   7.525  0.1562 -0.0444 -0.3612
   26MOL   C28913339   4.201   5.814   7.445 -0.1085 -0.1542  0.2829
   26MOL   N29013340   4.121   5.714   7.515 -0.0721 -0.0842 -0.3389
   26MOL   C29113341   4.064   5.601   7.460  0.6018 -0.4536 -0.1080
   26MOL   C29213342   4.002   5.522   7.562 -0.0026  0.0883  0.5167
   26MOL   C29313343   3.951   5.389   7.527 -0.0088  0.1479  0.2852
   26MOL   C29413344   3.943   5.354   7.392  0.3230  0.2842  0.1356
   26MOL   C29513345   4.002   5.434   7.289  0.2986 -0.8292  0.2167
   26MOL   C29613346   4.067   5.552   7.328  1.1793 -0.1331  0.1153
   26MOL   C29713347   4.013   5.589   7.681 -0.0938  0.8428  0.6339
   26MOL   C29813348   4.079   5.717   7.649  0.2222  0.3395  0.1680
   26MOL   C29913349   4.106   5.805   7.754 -0.4299  0.5657  0.6261
   26MOL   C30013350   4.076   5.767   7.886 -0.0182  0.0823  0.5082
   26MOL   C30113351   4.008   5.650   7.921  0.1428 -0.2450  0.1282
   26MOL   C30213352   3.982   5.565   7.813 -0.5365 -0.6145  0.1825
   26MOL   H30313353   4.361   5.747   7.579 -1.5697  0.3061  1.1300
   26MOL   H30413354   4.312   5.911   7.604  2.4494 -0.7249  0.9687
   26MOL   H30513355   4.230   5.772   7.349 -1.2268  0.9090 -0.5352
   26MOL   H30613356   3.912   5.319   7.599  1.0026 -1.0695 -0.3244
   26MOL   H30713357   3.911   5.254   7.366  0.2237  0.6744 -1.2793
   26MOL   H30813358   3.999   5.394   7.189 -0.5725 -0.7263  0.1961
   26MOL   H30913359   4.125   5.609   7.256  1.8887 -0.4892  0.3981
   26MOL   H31013360   4.159   5.899   7.748  1.4364 -0.5125 -0.1277
   26MOL   H31113361   4.101   5.826   7.974  0.6355  1.3769 -0.5337
   26MOL   H31213362   3.974   5.621   8.019  1.1964 -2.5545 -0.1584
   26MOL   H31313363   3.931   5.471   7.831 -4.0134  1.4227  1.6040
   26MOL   C31413364   4.133   5.948   7.409  0.1319 -0.2756  0.3993
   26MOL   C31513365   4.003   5.929   7.326  0.3427  0.6132  0.3042
   26MOL   N31613366   3.921   6.052   7.336 -0.0603 -0.3229  0.5599
   26MOL   C31713367   3.791   6.059   7.394 -0.3134  0.9083 -0.6351
   26MOL   C31813368   3.743   6.189   7.378  0.0406 -0.0418  0.2528
   26MOL   C31913369   3.609   6.217   7.435 -0.0802  0.4159 -0.1628
   26MOL   C32013370   3.533   6.118   7.500 -0.1159 -0.0836  0.0443
   26MOL   C32113371   3.576   5.986   7.499 -0.5761 -0.2730  0.5846
   26MOL   C32213372   3.706   5.962   7.454  0.1819  1.0018  0.4508
   26MOL   C32313373   3.841   6.266   7.308 -1.0926  0.9354  0.0631
   26MOL   C32413374   3.951   6.176   7.278 -0.3309  0.2772  0.2713
   26MOL   C32513375   4.066   6.230   7.214 -0.0054  0.0123  0.7730
   26MOL   C32613376   4.072   6.360   7.162 -0.2551 -0.2538 -0.0739
   26MOL   C32713377   3.959   6.441   7.189 -1.2414  0.7698  0.2761
   26MOL   C32813378   3.848   6.402   7.265  0.8738 -0.0206 -0.0368
   26MOL   H32913379   4.098   5.986   7.505  0.5294  1.4425 -0.1094
   26MOL   H33013380   4.200   6.023   7.367 -0.0758  1.1016  2.4566
   26MOL   H33113381   3.945   5.841   7.351 -2.1001  2.4102  1.2049
   26MOL   H33213382   3.578   6.321   7.435  0.3270  0.5400 -0.2535
   26MOL   H33313383   3.440   6.136   7.552 -0.7846 -2.2303 -0.3775
   26MOL   H33413384   3.522   5.908   7.552  4.0438 -2.8296  1.8174
   26MOL   H33513385   3.752   5.866   7.469  1.9437  1.8582  0.6516
   26MOL   H33613386   4.154   6.170   7.191  1.1575  1.7380  0.6091
   26MOL   H33713387   4.165   6.397   7.124 -1.3770  0.9216 -1.7142
   26MOL   H33813388   3.956   6.541   7.149 -4.0472  0.9536  0.8291
   26MOL   H33913389   3.771   6.476   7.278 -0.5033 -1.6047  0.9679
   26MOL   C34013390   4.050   5.898   7.178 -0.2974  0.1314 -0.9534
   26MOL   C34113391   3.962   5.935   7.063 -0.0350 -0.0306  0.3967
   26MOL   N34213392   4.038   5.922   6.941  0.1348  0.0198  0.4756
   26MOL   C34313393   4.086   6.024   6.858  0.3112 -0.5026  0.2164
   26MOL   C34413394   4.158   5.965   6.750 -0.1368 -0.4867  0.0942
   26MOL   C34513395   4.208   6.051   6.654  0.2652  0.4814  0.7427
   26MOL   C34613396   4.202   6.192   6.663 -0.0748 -0.1325  0.4228
   26MOL   C34713397   4.137   6.246   6.771 -0.0913 -0.0583  0.0029
   26MOL   C34813398   4.079   6.160   6.866 -0.1738 -0.2464  0.4648
   26MOL   C34913399   4.154   5.823   6.763 -0.3880  0.2959  0.0275
   26MOL   C35013400   4.087   5.798   6.890  0.1099  0.0925  0.0179
   26MOL   C35113401   4.077   5.673   6.950 -0.1141 -0.3843 -0.6715
   26MOL   C35213402   4.148   5.565   6.897  0.5456  0.3070 -0.4824
   26MOL   C35313403   4.214   5.585   6.770  0.1206  0.4314 -0.1545
   26MOL   C35413404   4.217   5.713   6.703  0.2317  0.1654 -0.2467
   26MOL   H35513405   4.137   5.961   7.161  0.3510 -0.3904  0.3270
   26MOL   H35613406   4.094   5.798   7.175 -0.3137  0.0607  0.6612
   26MOL   H35713407   3.939   6.041   7.067  0.0715  0.1520 -2.9426
   26MOL   H35813408   4.266   6.005   6.575  0.0956 -2.0005  2.0229
   26MOL   H35913409   4.252   6.256   6.592 -0.2969  0.1023  0.4794
   26MOL   H36013410   4.121   6.352   6.780 -2.6468 -0.4415  0.0864
   26MOL   H36113411   4.030   6.198   6.954 -1.3919  1.4108 -0.8853
   26MOL   H36213412   4.027   5.657   7.044 -1.1606  2.1803 -0.7394
   26MOL   H36313413   4.147   5.464   6.936 -2.6366  0.5506  0.2171
   26MOL   H36413414   4.271   5.502   6.731  0.9732  1.3523 -0.9135
   26MOL   H36513415   4.268   5.718   6.608  1.5514 -0.6274  0.3861
   26MOL   C36613416   3.820   5.869   7.063 -0.1833 -0.4605 -0.4167
   26MOL   C36713417   3.743   5.922   6.941  0.0949 -0.6290  0.9271
   26MOL   N36813418   3.638   5.838   6.890 -0.3261 -0.3932 -0.1910
   26MOL   C36913419   3.624   5.786   6.759 -0.7235  0.6390  0.4584
   26MOL   C37013420   3.504   5.713   6.745 -0.4032  0.6113  0.2429
   26MOL   C37113421   3.464   5.653   6.622 -0.4615  0.1577 -0.4561
   26MOL   C37213422   3.546   5.670   6.509 -0.0980 -0.3764 -0.1325
   26MOL   C37313423   3.671   5.739   6.529  0.1759  0.0769  0.5180
   26MOL   C37413424   3.714   5.793   6.648 -0.0961 -0.4856 -0.5596
   26MOL   C37513425   3.439   5.724   6.873  0.2793  0.3324  0.0187
   26MOL   C37613426   3.520   5.807   6.958 -0.7358 -0.0833  0.0099
   26MOL   C37713427   3.474   5.844   7.085 -0.4117 -0.8343 -0.1037
   26MOL   C37813428   3.355   5.790   7.133 -0.2853  0.2181 -0.0505
   26MOL   C37913429   3.287   5.697   7.055  0.1793  0.1068  0.4650
   26MOL   C38013430   3.322   5.672   6.923 -0.3494  0.8663  0.1708
   26MOL   H38113431   3.818   5.761   7.055  1.8261 -0.5380 -0.1009
   26MOL   H38213432   3.765   5.895   7.154 -0.9940 -0.9009 -0.7818
   26MOL   H38313433   3.813   5.925   6.858 -0.1808  2.6932  0.7302
   26MOL   H38413434   3.367   5.607   6.619  0.1817 -1.1741 -3.3860
   26MOL   H38513435   3.519   5.625   6.414 -1.3309 -2.2329  1.0659
   26MOL   H38613436   3.739   5.732   6.446  0.8877 -1.6507  1.2194
   26MOL   H38713437   3.817   5.826   6.654  0.1170 -0.5230 -3.4492
   26MOL   H38813438   3.534   5.908   7.148 -1.0949 -1.7156  1.4872
   26MOL   H38913439   3.317   5.818   7.230 -0.5786 -1.0118  0.2082
   26MOL   H39013440   3.202   5.648   7.099 -0.0642 -0.7511 -0.9413
   26MOL   H39113441   3.252   5.611   6.868 -0.7700  2.4990 -1.1416
   26MOL   C39213442   3.687   6.066   6.952  0.0393  0.0772 -0.2992
   26MOL   C39313443   3.626   6.136   6.829 -0.0710  0.3799  0.1306
   26MOL   N39413444   3.548   6.254   6.869 -0.3877  0.0053  0.6827
   26MOL   C39513445   3.404   6.263   6.858  0.1851 -0.2170  0.0066
   26MOL   C39613446   3.362   6.401   6.881  0.0408 -0.2212 -0.9817
   26MOL   C39713447   3.224   6.421   6.880 -0.0101 -0.0516 -0.0489
   26MOL   C39813448   3.135   6.328   6.843 -0.3240  0.6645  0.5575
   26MOL   C39913449   3.171   6.190   6.837 -0.2458  0.4021 -0.2408
   26MOL   C40013450   3.309   6.155   6.834 -0.5710  0.2144  0.5742
   26MOL   C40113451   3.485   6.470   6.905 -0.2653  0.0147  0.1184
   26MOL   C40213452   3.596   6.378   6.906  0.3333 -0.1433 -0.4703
   26MOL   C40313453   3.732   6.422   6.936  0.3933  0.4458  0.1500
   26MOL   C40413454   3.745   6.559   6.967  0.2444 -0.1498 -0.3814
   26MOL   C40513455   3.636   6.652   6.959 -0.5789  0.2229  0.2544
   26MOL   C40613456   3.506   6.606   6.927 -0.0794 -1.0207 -0.8845
   26MOL   H40713457   3.621   6.075   7.038  2.6141  1.6423  1.5671
   26MOL   H40813458   3.765   6.136   6.982  0.7334 -1.6729  2.1685
   26MOL   H40913459   3.554   6.065   6.787 -1.0598  0.4688  1.6156
   26MOL   H41013460   3.184   6.518   6.906 -1.6749 -0.7222 -0.0576
   26MOL   H41113461   3.030   6.355   6.843 -0.7768 -1.0158  0.0165
   26MOL   H41213462   3.091   6.119   6.827 -0.4761  0.7299 -0.7675
   26MOL   H41313463   3.333   6.050   6.824 -4.0079 -0.6214  0.4803
   26MOL   H41413464   3.816   6.354   6.937  0.0267 -0.0110  1.2294
   26MOL   H41513465   3.845   6.596   6.982 -0.6358  1.0431  3.0873
   26MOL   H41613466   3.657   6.758   6.958  0.8564 -0.0577 -1.6238
   26MOL   H41713467   3.425   6.676   6.917  0.4915 -0.5850 -2.5364
   26MOL   C41813468   3.739   6.160   6.725 -0.1122  0.6006  1.0284
   26MOL   C41913469   3.691   6.225   6.594  0.4402  0.9346 -0.4503
   26MOL   N42013470   3.798   6.285   6.520  0.6203 -0.2333 -0.2450
   26MOL   C42113471   3.823   6.418   6.503  0.0659  0.0627 -0.2494
   26MOL   C42213472   3.933   6.435   6.412 -0.1837  0.4223  0.9315
   26MOL   C42313473   3.973   6.566   6.378 -0.2862 -0.2881  0.0995
   26MOL   C42413474   3.917   6.680   6.433 -0.0684  0.2967 -0.2737
   26MOL   C42513475   3.807   6.669   6.520  0.4973  0.3200  0.2283
   26MOL   C42613476   3.757   6.537   6.553 -0.2943  0.4263 -0.2722
   26MOL   C42713477   3.970   6.307   6.372  1.1159  0.5005 -1.0301
   26MOL   C42813478   3.893   6.217   6.447 -0.5463  0.6524  0.4184
   26MOL   C42913479   3.915   6.073   6.430  0.4475 -0.5829 -0.3440
   26MOL   C43013480   4.009   6.027   6.341 -0.3168 -0.2459  0.1861
   26MOL   C43113481   4.085   6.115   6.263  0.4765 -0.4527  0.4338
   26MOL   C43213482   4.068   6.256   6.277  0.2684  0.0308  0.0962
   26MOL   H43313483   3.825   6.220   6.755  0.1262  0.6855  0.1633
   26MOL   H43413484   3.783   6.062   6.703 -2.2625 -0.8237  2.8073
   26MOL   H43513485   3.624   6.309   6.611  1.3913  1.6499 -0.2070
   26MOL   H43613486   4.035   6.570   6.290  0.3072 -1.0656  0.4729
   26MOL   H43713487   3.944   6.772   6.385  0.1923  0.3310 -0.0589
   26MOL   H43813488   3.755   6.758   6.553  0.2220  1.2842 -2.6828
   26MOL   H43913489   3.679   6.538   6.628  0.8254 -0.0428  0.9167
   26MOL   H44013490   3.870   5.996   6.491 -0.7683 -0.8081 -1.5110
   26MOL   H44113491   4.032   5.922   6.333 -3.2568 -0.8546 -1.1126
   26MOL   H44213492   4.146   6.076   6.183 -0.1722  0.0260 -0.3072
   26MOL   H44313493   4.125   6.322   6.214 -1.2180 -1.1560 -2.6098
   26MOL   C44413494   3.601   6.128   6.513 -0.2100 -0.2047  0.6592
   26MOL   C44513495   3.557   6.189   6.373  0.2113  1.1058  0.4875
   26MOL   N44613496   3.541   6.077   6.282  0.2381  0.0971  0.8336
   26MOL   C44713497   3.623   6.064   6.167  0.0186  0.4026 -0.5678
   26MOL   C44813498   3.572   5.949   6.096  0.3611 -0.1322 -0.8713
   26MOL   C44913499   3.640   5.919   5.969  0.4761 -0.4255  0.5827
   26MOL   C45013500   3.744   6.002   5.917 -0.2737  0.7826  0.0247
   26MOL   C45113501   3.799   6.102   5.997  0.2974  0.6495  0.6749
   26MOL   C45213502   3.737   6.132   6.121 -0.1882 -0.1722 -0.2027
   26MOL   C45313503   3.465   5.896   6.159 -0.6766 -0.1403 -0.0965
   26MOL   C45413504   3.449   5.975   6.280 -0.5622 -0.3461  0.6406
   26MOL   C45513505   3.357   5.941   6.380 -0.5076  0.6064 -0.4443
   26MOL   C45613506   3.286   5.819   6.360  0.2562 -0.8196 -0.0661
   26MOL   C45713507   3.296   5.740   6.244  0.5154  0.4631 -0.2875
   26MOL   C45813508   3.388   5.778   6.142  0.1443 -0.0736  0.5296
   26MOL   H45913509   3.656   6.036   6.496  0.6386  0.5179 -0.6597
   26MOL   H46013510   3.516   6.100   6.576  0.3985  2.1777  2.6152
   26MOL   H46113511   3.638   6.250   6.334  1.6778  0.1313  1.9422
   26MOL   H46213512   3.599   5.835   5.916  0.0695  1.1009 -1.5925
   26MOL   H46313513   3.795   5.959   5.831 -2.2050 -1.6543  0.0497
   26MOL   H46413514   3.887   6.145   5.951  0.5051 -2.0421 -1.6380
   26MOL   H46513515   3.775   6.210   6.185  1.3415 -0.9390 -0.1544
   26MOL   H46613516   3.353   5.998   6.471 -0.7616  0.7323 -0.5319
   26MOL   H46713517   3.220   5.784   6.438 -2.3932  3.9861 -0.0110
   26MOL   H46813518   3.222   5.665   6.223 -1.0832  1.8978  0.0798
   26MOL   H46913519   3.402   5.711   6.059  1.3823 -1.6158  1.9304
   26MOL   C47013520   3.444   6.289   6.367  0.1236 -0.4404  0.3321
   26MOL   C47113521   3.454   6.393   6.255  0.3389  0.3056 -0.3941
   26MOL   N47213522   3.312   6.437   6.218 -0.5631 -0.5868 -0.1747
   26MOL   C47313523   3.227   6.359   6.137  0.4203  0.3670 -0.9308
   26MOL   C47413524   3.100   6.425   6.136 -0.3374  0.2559 -0.2339
   26MOL   C47513525   2.989   6.361   6.074  0.3206 -0.5613 -0.3873
   26MOL   C47613526   3.004   6.234   6.019  0.0432  0.1198  0.7904
   26MOL   C47713527   3.136   6.169   6.004  0.0071  0.0992 -0.3389
   26MOL   C47813528   3.243   6.232   6.071 -0.3429  0.0572  0.0618
   26MOL   C47913529   3.116   6.555   6.200 -0.1597  0.1671 -0.0970
   26MOL   C48013530   3.245   6.553   6.259  0.0046  0.4780  0.1201
   26MOL   C48113531   3.272   6.656   6.351 -0.3206 -0.4177  0.0162
   26MOL   C48213532   3.188   6.770   6.365 -0.3872 -0.2245 -0.0503
   26MOL   C48313533   3.067   6.772   6.291  0.1036 -0.2837  0.0526
   26MOL   C48413534   3.033   6.670   6.204 -0.4609  0.3664  0.8231
   26MOL   H48513535   3.355   6.227   6.355 -0.1387  0.2417 -1.3284
   26MOL   H48613536   3.442   6.348   6.460 -2.1492  1.7203 -1.0027
   26MOL   H48713537   3.489   6.331   6.173 -0.5001 -0.7993  0.0717
   26MOL   H48813538   2.896   6.415   6.066 -0.0157 -0.7218  2.0467
   26MOL   H48913539   2.918   6.184   5.977  1.3337  0.1113 -1.9399
   26MOL   H49013540   3.146   6.076   5.951  0.0443 -0.0023 -0.1545
   26MOL   H49113541   3.341   6.186   6.068 -1.0580 -1.3819 -2.3463
   26MOL   H49213542   3.364   6.648   6.407 -1.1010 -0.1512  1.3513
   26MOL   H49313543   3.218   6.861   6.414 -0.4581  0.3877 -1.1222
   26MOL   H49413544   3.004   6.858   6.306  0.4402  0.0491 -0.4105
   26MOL   H49513545   2.952   6.685   6.134 -0.7896  1.0216  1.3373
   26MOL   C49613546   3.563   6.502   6.277 -0.5394 -0.4649  0.8203
   26MOL   C49713547   3.566   6.597   6.149 -0.7202  0.7872 -0.1818
   26MOL   N49813548   3.690   6.666   6.135 -0.1710 -0.0985  0.4170
   26MOL   C49913549   3.705   6.800   6.160  0.1039 -0.2187  0.6223
   26MOL   C50013550   3.836   6.839   6.125 -0.5289 -0.2910  0.2281
   26MOL   C50113551   3.866   6.973   6.131  0.1007 -0.4237  0.1435
   26MOL   C50213552   3.774   7.064   6.185 -0.7771  0.6050  0.5398
   26MOL   C50313553   3.648   7.025   6.230  0.0041  0.7891 -0.8391
   26MOL   C50413554   3.609   6.893   6.203  0.3488 -0.2643 -0.2293
   26MOL   C50513555   3.906   6.724   6.081  0.0698 -1.0743  0.5160
   26MOL   C50613556   3.814   6.612   6.096 -0.2427 -0.3699  0.2163
   26MOL   C50713557   3.860   6.482   6.066  0.5516  0.3104 -0.8855
   26MOL   C50813558   3.986   6.458   6.017  0.5293  0.1470  1.0742
   26MOL   C50913559   4.074   6.561   5.991 -0.4513 -0.2577  0.0104
   26MOL   C51013560   4.027   6.697   6.018  0.0366 -0.5362  0.3759
   26MOL   H51113561   3.540   6.556   6.368 -1.0328  0.1190  0.3535
   26MOL   H51213562   3.663   6.458   6.287  0.1257  0.7896 -0.2461
   26MOL   H51313563   3.480   6.664   6.157 -1.4688 -0.0702 -0.9106
   26MOL   H51413564   3.967   7.007   6.110 -0.4061  1.1158  0.1311
   26MOL   H51513565   3.802   7.169   6.188  0.9709  0.1901 -0.7343
   26MOL   H51613566   3.572   7.097   6.257 -1.9310 -1.4159 -0.2143
   26MOL   H51713567   3.510   6.854   6.223  0.8992 -2.8668 -2.3472
   26MOL   H51813568   3.787   6.406   6.091 -0.8359  2.1448  0.9380
   26MOL   H51913569   4.013   6.354   6.016 -1.0525 -0.2862 -0.8745
   26MOL   H52013570   4.176   6.539   5.964  0.0522  0.0565  1.6202
   26MOL   H52113571   4.088   6.782   5.992 -2.5533  1.4477  0.5783
   26MOL   H52213572   3.551   6.540   6.058  1.8793  1.2176 -0.9166
   27MOL     C113573   7.721   0.896   1.941  0.9089  0.9006  0.0542
   27MOL     C213574   7.594   0.852   2.013  0.1524 -0.1207  0.9086
   27MOL     N313575   7.519   0.972   2.047 -0.3761 -0.1487  0.2928
   27MOL     C413576   7.486   1.009   2.176 -0.1990  0.0328  0.5827
   27MOL     C513577   7.404   1.128   2.184 -0.0355 -0.2761 -0.0969
   27MOL     C613578   7.348   1.172   2.307 -0.1037 -0.1167  0.0196
   27MOL     C713579   7.368   1.094   2.424 -0.3211 -0.0172 -0.7415
   27MOL     C813580   7.448   0.979   2.415 -0.4702 -0.6801 -0.2105
   27MOL     C913581   7.511   0.941   2.293 -0.1014 -0.1160  0.3566
   27MOL    C1013582   7.388   1.171   2.048 -0.7198 -0.4896 -0.5506
   27MOL    C1113583   7.459   1.075   1.967 -0.0800  0.2204  0.5816
   27MOL    C1213584   7.452   1.086   1.828 -0.0538 -0.5067 -0.6068
   27MOL    C1313585   7.384   1.189   1.764  0.4669  0.6535  0.3711
   27MOL    C1413586   7.314   1.284   1.840  0.2967  0.5696  0.3117
   27MOL    C1513587   7.326   1.279   1.984 -0.3096  0.2459  0.2665
   27MOL    H1613588   7.691   0.942   1.847 -1.0735  0.3790  0.3851
   27MOL    H1713589   7.779   0.813   1.900 -0.8455 -1.0601  1.3571
   27MOL    H1813590   7.629   0.818   2.111 -2.2717 -1.0288  1.4787
   27MOL    H1913591   7.290   1.263   2.318 -0.8579 -0.6070  0.1754
   27MOL    H2013592   7.319   1.116   2.517 -0.5244  2.0810 -1.3043
   27MOL    H2113593   7.461   0.926   2.509  0.4547  2.0050  1.2357
   27MOL    H2213594   7.554   0.842   2.303 -0.9284 -0.7551 -2.0879
   27MOL    H2313595   7.502   1.008   1.772 -0.1267 -1.7323  0.9885
   27MOL    H2413596   7.372   1.184   1.657  0.5093  0.6509  0.3665
   27MOL    H2513597   7.259   1.359   1.785  0.7032  0.8017  0.2237
   27MOL    H2613598   7.301   1.366   2.043 -1.1578  0.1579  0.0425
   27MOL    H2713599   7.781   0.958   2.006  1.5214 -1.0750  1.4389
   27MOL    C2813600   7.503   0.755   1.936 -0.1106  0.2980  0.1906
   27MOL    C2913601   7.552   0.607   1.916  0.0295  0.3327 -0.4100
   27MOL    N3013602   7.626   0.572   2.038 -0.0181  1.0530 -0.3896
   27MOL    C3113603   7.750   0.519   2.047 -0.6277  0.7043  0.2390
   27MOL    C3213604   7.785   0.486   2.180 -0.2733  0.3044  0.0378
   27MOL    C3313605   7.920   0.445   2.207 -0.4383  0.3491 -0.1637
   27MOL    C3413606   8.016   0.428   2.107 -0.2755 -0.3081  0.5093
   27MOL    C3513607   7.969   0.451   1.976  0.8564  0.3343  0.4063
   27MOL    C3613608   7.844   0.503   1.944  0.2906  0.7228 -0.7500
   27MOL    C3713609   7.671   0.521   2.259  0.0911  0.0843 -0.1888
   27MOL    C3813610   7.577   0.564   2.169  0.1975 -0.1930 -0.5742
   27MOL    C3913611   7.453   0.595   2.225 -0.1071 -0.0713  0.2373
   27MOL    C4013612   7.426   0.592   2.364  0.1168  0.1063 -0.1978
   27MOL    C4113613   7.523   0.547   2.452  0.2317 -0.0672 -0.1071
   27MOL    C4213614   7.643   0.501   2.396  0.6966  0.1201  0.5905
   27MOL    H4313615   7.408   0.761   1.989  0.2267  0.5282  0.7737
   27MOL    H4413616   7.467   0.799   1.843 -1.5726  0.6663  0.9103
   27MOL    H4513617   7.618   0.605   1.829 -0.4002 -2.2400 -0.7298
   27MOL    H4613618   7.950   0.418   2.308 -1.2264  4.4968  1.2711
   27MOL    H4713619   8.115   0.392   2.131  0.0403  0.0012 -0.3350
   27MOL    H4813620   8.045   0.458   1.900  0.8438  5.6959  0.6444
   27MOL    H4913621   7.823   0.526   1.841  1.9206 -0.5610 -1.3909
   27MOL    H5013622   7.378   0.640   2.162  0.6125  0.1209 -0.4993
   27MOL    H5113623   7.327   0.623   2.396  0.2702 -0.6809  1.0979
   27MOL    H5213624   7.515   0.537   2.560 -2.2747 -0.5622 -0.2947
   27MOL    H5313625   7.717   0.455   2.459  0.6069 -1.7008 -0.5861
   27MOL    C5413626   7.431   0.507   1.893  0.0184 -0.2180 -0.0084
   27MOL    C5513627   7.342   0.554   1.778 -0.5964  0.2373 -0.5130
   27MOL    N5613628   7.402   0.549   1.645  0.1836 -0.1498 -0.1301
   27MOL    C5713629   7.415   0.658   1.558  0.0783 -0.9024 -0.4586
   27MOL    C5813630   7.473   0.620   1.436 -0.5341  0.1006  0.0960
   27MOL    C5913631   7.498   0.718   1.334 -0.6599 -0.7437 -0.4662
   27MOL    C6013632   7.485   0.853   1.362  0.3053  0.1708 -0.6760
   27MOL    C6113633   7.427   0.889   1.488 -0.0905  0.2506  0.8468
   27MOL    C6213634   7.377   0.795   1.579  0.2241 -1.0400  0.0944
   27MOL    C6313635   7.507   0.486   1.454 -0.6315  0.7311  1.0775
   27MOL    C6413636   7.456   0.441   1.580  0.5595  0.3669 -0.4503
   27MOL    C6513637   7.470   0.303   1.622 -0.0785 -0.8094 -0.0173
   27MOL    C6613638   7.542   0.208   1.542  0.3361  1.1288 -0.4525
   27MOL    C6713639   7.573   0.250   1.414 -0.6431 -0.3356  0.3249
   27MOL    C6813640   7.556   0.385   1.370 -0.0918  0.4659  0.1796
   27MOL    H6913641   7.473   0.407   1.881  0.3122  0.0725 -1.4168
   27MOL    H7013642   7.369   0.509   1.983 -0.9958 -2.3474 -0.6258
   27MOL    H7113643   7.316   0.659   1.786 -1.0510  0.3351 -2.9046
   27MOL    H7213644   7.542   0.687   1.240  2.1508 -1.6282  1.0728
   27MOL    H7313645   7.494   0.934   1.291 -1.0564  2.1601  1.3694
   27MOL    H7413646   7.401   0.994   1.498  0.8181  0.6388 -0.7511
   27MOL    H7513647   7.315   0.839   1.656 -2.4371 -0.9558 -2.0061
   27MOL    H7613648   7.418   0.266   1.710 -0.2928 -1.0756 -0.2526
   27MOL    H7713649   7.547   0.106   1.576 -2.7216 -0.1511 -3.5050
   27MOL    H7813650   7.627   0.180   1.354 -0.2045  1.3191 -1.2559
   27MOL    H7913651   7.582   0.411   1.269 -1.5654  0.4424 -0.2148
   27MOL    C8013652   7.200   0.491   1.770  1.0152 -0.0115 -0.0589
   27MOL    C8113653   7.086   0.528   1.865 -0.2244  0.8128 -0.3186
   27MOL    N8213654   7.082   0.671   1.896  0.2722 -0.5500 -0.5215
   27MOL    C8313655   7.098   0.719   2.028 -0.4155  0.1897  0.1488
   27MOL    C8413656   7.102   0.859   2.030  0.0716 -0.7220  0.1105
   27MOL    C8513657   7.111   0.923   2.156 -1.0534  0.0848 -0.9971
   27MOL    C8613658   7.105   0.851   2.273  0.1891 -0.0759 -0.3578
   27MOL    C8713659   7.094   0.711   2.271  0.4277  0.7631  0.0653
   27MOL    C8813660   7.097   0.645   2.149 -0.0175  0.1721  0.1352
   27MOL    C8913661   7.086   0.901   1.891 -0.7259  0.7468 -0.4913
   27MOL    C9013662   7.081   0.783   1.815  1.1492  0.0689 -0.2317
   27MOL    C9113663   7.072   0.788   1.675  0.7187  0.3494  0.0429
   27MOL    C9213664   7.070   0.914   1.611  0.8482 -0.2973  0.5096
   27MOL    C9313665   7.084   1.034   1.687 -0.6249  0.4840 -0.0809
   27MOL    C9413666   7.088   1.023   1.826  0.3314  0.0916 -0.9148
   27MOL    H9513667   7.158   0.507   1.670  0.2117  0.7275  0.3912
   27MOL    H9613668   7.222   0.386   1.788 -2.1457 -0.6255  0.5158
   27MOL    H9713669   7.109   0.486   1.963 -1.0980 -1.4966 -1.0517
   27MOL    H9813670   7.121   1.030   2.165 -0.4528 -0.1462  1.2496
   27MOL    H9913671   7.113   0.900   2.369 -2.3528 -2.0331  0.9122
   27MOL   H10013672   7.084   0.654   2.362  0.9187  1.0063  0.2695
   27MOL   H10113673   7.081   0.538   2.156 -0.7185  0.2368 -0.4579
   27MOL   H10213674   7.047   0.708   1.607 -0.9991  2.1375 -1.5262
   27MOL   H10313675   7.039   0.908   1.508  0.3252  2.3223  0.4766
   27MOL   H10413676   7.097   1.130   1.639 -0.5669  0.9352  0.8292
   27MOL   H10513677   7.104   1.111   1.887  0.3499 -1.2438  1.0808
   27MOL   C10613678   6.938   0.487   1.810 -0.6827  0.1751  0.3936
   27MOL   C10713679   6.924   0.337   1.773 -0.1265 -0.6325 -0.1542
   27MOL   N10813680   6.970   0.248   1.876  0.1928  0.1026  0.2062
   27MOL   C10913681   7.079   0.155   1.863  0.2833 -0.4336  0.6573
   27MOL   C11013682   7.102   0.088   1.979 -0.1037  0.8501  0.2720
   27MOL   C11113683   7.215   8.223   1.979  0.6080  0.8416 -0.1651
   27MOL   C11213684   7.293   8.202   1.861 -0.5588 -0.6053 -0.2315
   27MOL   C11313685   7.264   0.041   1.743 -0.0432  0.3878  0.3904
   27MOL   C11413686   7.159   0.131   1.749 -0.2474 -0.1991  0.2870
   27MOL   C11513687   7.001   0.136   2.075 -0.5626  0.5351  0.0152
   27MOL   C11613688   6.926   0.241   2.011 -0.1210 -0.5580 -0.6783
   27MOL   C11713689   6.824   0.311   2.085  0.6373 -0.3600  0.5101
   27MOL   C11813690   6.809   0.297   2.223  0.5157  0.3921  0.1229
   27MOL   C11913691   6.880   0.197   2.286 -0.1743  0.3253 -0.2594
   27MOL   C12013692   6.975   0.116   2.215  0.2630 -0.4964 -0.5816
   27MOL   H12113693   6.873   0.510   1.895  1.4155 -0.8088  2.3272
   27MOL   H12213694   6.903   0.552   1.730  0.7867  0.1333 -0.2896
   27MOL   H12313695   6.981   0.314   1.683 -1.2684 -0.1008 -1.0294
   27MOL   H12413696   7.233   8.168   2.070  1.4874 -0.2887 -0.9984
   27MOL   H12513697   7.370   8.128   1.875  0.2800  0.0361 -1.3703
   27MOL   H12613698   7.318   0.026   1.651 -0.9031  0.9592 -0.2067
   27MOL   H12713699   7.132   0.181   1.657  3.0226 -0.5993 -0.9741
   27MOL   H12813700   6.776   0.389   2.027  1.0274 -1.4691 -1.3330
   27MOL   H12913701   6.735   0.349   2.283  0.7417 -0.0736  0.8158
   27MOL   H13013702   6.874   0.183   2.392 -0.0146  0.2371 -0.2601
   27MOL   H13113703   7.027   0.041   2.273  1.9658  1.5510  0.6127
   27MOL   C13213704   6.776   0.306   1.751  0.4276  0.5753  0.2993
   27MOL   C13313705   6.732   0.157   1.706  0.1014  0.4277 -0.0456
   27MOL   N13413706   6.717   0.067   1.816 -0.7871  0.9734 -0.4774
   27MOL   C13513707   6.791   8.177   1.824 -0.4943  0.9640  0.0104
   27MOL   C13613708   6.756   8.109   1.950 -0.8166  0.4343  0.0725
   27MOL   C13713709   6.811   7.979   1.972  0.4570 -0.3416  0.5733
   27MOL   C13813710   6.888   7.914   1.876 -0.0967 -0.4059 -0.1108
   27MOL   C13913711   6.928   7.985   1.762 -0.2453  0.0469 -0.5403
   27MOL   C14013712   6.885   8.118   1.738 -0.0189 -0.4677 -0.5877
   27MOL   C14113713   6.667   8.197   2.020 -1.2923 -0.4479  0.6228
   27MOL   C14213714   6.629   0.069   1.926  0.0034  0.0844  0.1063
   27MOL   C14313715   6.531   0.163   1.961  0.5813  0.1195 -0.1896
   27MOL   C14413716   6.475   0.160   2.090 -0.2283  0.1095  0.0232
   27MOL   C14513717   6.502   0.056   2.178  0.5205 -0.4966 -0.3786
   27MOL   C14613718   6.598   8.188   2.146 -0.4157  0.2344  0.2654
   27MOL   H14713719   6.717   0.322   1.842 -1.4501  1.5539 -1.0659
   27MOL   H14813720   6.755   0.386   1.680  1.9140  0.1201 -0.6668
   27MOL   H14913721   6.807   0.129   1.633 -0.8328  0.5011 -1.0348
   27MOL   H15013722   6.780   7.929   2.062 -0.4431  1.3508  1.2217
   27MOL   H15113723   6.923   7.814   1.898  1.2401 -0.0446 -0.5717
   27MOL   H15213724   7.003   7.952   1.692  0.7823  0.6830  0.2419
   27MOL   H15313725   6.918   8.168   1.649  2.6830  1.0136  1.1905
   27MOL   H15413726   6.506   0.234   1.883 -0.7782 -1.8434 -1.5695
   27MOL   H15513727   6.395   0.230   2.108  0.5143  0.5398  1.7262
   27MOL   H15613728   6.435   0.046   2.263 -0.1264  0.0406 -0.8203
   27MOL   H15713729   6.607   8.114   2.224 -0.6470  1.2606  1.2789
   27MOL   C15813730   6.608   0.151   1.622 -0.2730  0.5287  0.5306
   27MOL   C15913731   6.605   0.239   1.489 -0.6231  0.6770  0.2231
   27MOL   N16013732   6.672   0.171   1.379 -0.0936 -0.4403 -0.1448
   27MOL   C16113733   6.766   0.215   1.282  0.4030  0.4276 -1.1031
   27MOL   C16213734   6.794   0.109   1.184 -0.4554 -0.4795 -0.2864
   27MOL   C16313735   6.889   0.136   1.086 -0.1505  0.0840 -0.0690
   27MOL   C16413736   6.945   0.261   1.068 -0.4414  0.0809 -0.1339
   27MOL   C16513737   6.924   0.364   1.166 -0.4738 -0.7762  0.6232
   27MOL   C16613738   6.824   0.342   1.265  0.5203 -1.0642  0.7656
   27MOL   C16713739   6.713   8.225   1.215  0.1605 -1.0925 -0.2543
   27MOL   C16813740   6.644   0.034   1.335 -1.0323  0.0692  0.2522
   27MOL   C16913741   6.552   8.161   1.383  0.7881  0.0549  0.5316
   27MOL   C17013742   6.532   8.039   1.325  0.0778 -0.1256  0.5485
   27MOL   C17113743   6.604   8.007   1.205 -0.2062 -0.1555  0.5377
   27MOL   C17213744   6.689   8.102   1.144  0.1987  0.3782 -0.6112
   27MOL   H17313745   6.585   0.045   1.613 -0.8021  0.7285 -0.4266
   27MOL   H17413746   6.529   0.177   1.692 -0.9797 -1.4060  0.4814
   27MOL   H17513747   6.670   0.324   1.510 -1.9998  1.4923  1.2504
   27MOL   H17613748   6.926   0.061   1.017 -1.1244  1.0313 -1.6644
   27MOL   H17713749   7.021   0.265   0.992  0.9821  0.0613  1.2451
   27MOL   H17813750   6.972   0.460   1.155 -0.8940 -0.6195  0.1770
   27MOL   H17913751   6.793   0.419   1.334 -0.7972 -0.3459 -0.5945
   27MOL   H18013752   6.490   8.170   1.471 -0.1057  2.2101 -0.2879
   27MOL   H18113753   6.479   7.956   1.370 -0.2801 -0.7928 -1.0794
   27MOL   H18213754   6.598   7.906   1.167  0.0408 -0.1230  0.4053
   27MOL   H18313755   6.743   8.087   1.052  0.1239  1.4505 -0.8273
   27MOL   C18413756   6.466   0.288   1.457 -0.3023  0.0356  0.1192
   27MOL   C18513757   6.407   0.398   1.549  0.4855 -0.0464  0.7045
   27MOL   N18613758   6.501   0.507   1.575  0.1143 -0.5421  0.8665
   27MOL   C18713759   6.533   0.560   1.700  0.1380  0.6243 -0.2238
   27MOL   C18813760   6.633   0.665   1.688  0.2539  0.8746 -0.6803
   27MOL   C18913761   6.686   0.733   1.806 -0.8213  0.0280 -0.2242
   27MOL   C19013762   6.642   0.693   1.933 -0.0641 -0.2822  0.1030
   27MOL   C19113763   6.546   0.589   1.945  0.6609  0.6407  0.6043
   27MOL   C19213764   6.488   0.527   1.829 -0.0404 -0.3899 -0.1781
   27MOL   C19313765   6.662   0.672   1.548 -0.2829  0.1875  0.2274
   27MOL   C19413766   6.575   0.582   1.475 -0.0067 -0.0481 -0.1055
   27MOL   C19513767   6.573   0.576   1.338  0.2232  0.2822 -0.5909
   27MOL   C19613768   6.676   0.647   1.269  0.5301 -0.5183  0.7036
   27MOL   C19713769   6.766   0.734   1.335  1.0299  0.8881  0.1279
   27MOL   C19813770   6.760   0.745   1.476 -0.2598  0.5105  0.7069
   27MOL   H19913771   6.472   0.315   1.351 -0.1033 -0.9510 -0.1278
   27MOL   H20013772   6.406   0.198   1.440 -1.8751  0.9381  0.8200
   27MOL   H20113773   6.395   0.352   1.646  1.6460 -1.5566  0.1481
   27MOL   H20213774   6.766   0.805   1.801 -0.7856 -0.0143 -0.2695
   27MOL   H20313775   6.685   0.752   2.012  1.1967  0.5447 -1.1893
   27MOL   H20413776   6.500   0.562   2.040  2.5689 -2.2748  0.7864
   27MOL   H20513777   6.415   0.451   1.846 -2.4769  1.9269  0.0376
   27MOL   H20613778   6.504   0.508   1.291  0.6988 -0.5300 -0.1438
   27MOL   H20713779   6.679   0.639   1.161  0.3035  0.8462  0.5818
   27MOL   H20813780   6.835   0.798   1.284  0.1494  1.0271 -0.9052
   27MOL   H20913781   6.816   0.817   1.533  0.6634  0.4874 -0.1358
   27MOL   C21013782   6.271   0.452   1.512 -0.0285  0.0132  0.5380
   27MOL   C21113783   6.157   0.346   1.520 -0.7378  0.3133  0.6003
   27MOL   N21213784   6.142   0.305   1.660  0.2078  0.5033  0.1350
   27MOL   C21313785   6.176   0.178   1.711  0.1653 -0.6695  0.2243
   27MOL   C21413786   6.170   0.177   1.855  0.3325 -0.3198  0.3466
   27MOL   C21513787   6.221   0.066   1.923 -0.0718 -0.0482  0.1049
   27MOL   C21613788   6.260   8.180   1.856 -0.0918  0.1791  1.1212
   27MOL   C21713789   6.265   8.175   1.715 -0.8431  0.2141 -0.3392
   27MOL   C21813790   6.219   0.057   1.642  0.0306  0.0348 -0.5296
   27MOL   C21913791   6.115   0.305   1.891 -0.4383 -0.2691  0.9463
   27MOL   C22013792   6.087   0.379   1.767 -0.8818 -0.2222  0.1198
   27MOL   C22113793   6.030   0.509   1.774  0.2892 -0.2805 -0.1233
   27MOL   C22213794   5.994   0.561   1.900  0.3911 -0.0065 -0.1692
   27MOL   C22313795   6.021   0.492   2.020  0.0352 -0.2066  0.4633
   27MOL   C22413796   6.083   0.365   2.016 -0.3660  0.2601 -0.0951
   27MOL   H22513797   6.240   0.541   1.566  0.1578 -0.2204  1.0375
   27MOL   H22613798   6.271   0.489   1.410  1.6417  0.9452  0.8621
   27MOL   H22713799   6.195   0.257   1.469 -3.0562  0.4350 -1.4407
   27MOL   H22813800   6.229   0.066   2.030 -0.8308 -0.1120  0.1635
   27MOL   H22913801   6.305   8.100   1.912  2.0782 -0.1594 -1.0461
   27MOL   H23013802   6.299   8.080   1.675 -1.3492 -0.0618 -0.1117
   27MOL   H23113803   6.219   0.049   1.534 -1.6429 -0.0912 -0.5371
   27MOL   H23213804   6.010   0.570   1.687 -0.7661 -0.6416 -0.1467
   27MOL   H23313805   5.954   0.661   1.899  1.3970  0.4071  0.1971
   27MOL   H23413806   5.979   0.538   2.109 -1.4638 -1.5410  0.4692
   27MOL   H23513807   6.120   0.308   2.100  0.5901 -1.4782 -1.6632
   27MOL   C23613808   6.025   0.383   1.448  0.2429 -0.2618 -0.1909
   27MOL   C23713809   6.032   0.363   1.294  0.2288  0.0030  0.8548
   27MOL   N23813810   6.104   0.246   1.245  0.4520 -0.3767 -0.6916
   27MOL   C23913811   6.215   0.245   1.165  0.3622 -0.1752 -0.2059
   27MOL   C24013812   6.263   0.118   1.145  0.3163  0.2449 -0.1292
   27MOL   C24113813   6.380   0.096   1.071  0.1975 -0.0987 -0.2526
   27MOL   C24213814   6.456   0.206   1.027 -0.3881 -0.2835  0.7509
   27MOL   C24313815   6.411   0.336   1.057  0.1157  0.3473  0.5364
   27MOL   C24413816   6.292   0.354   1.123  0.2064  0.5802 -0.5066
   27MOL   C24513817   6.174   0.023   1.209 -0.3095 -0.1439  0.0079
   27MOL   C24613818   6.074   0.108   1.276  0.5487 -0.7577  0.0154
   27MOL   C24713819   5.976   0.041   1.354  0.8452  0.3096  0.0506
   27MOL   C24813820   5.964   8.130   1.371 -0.5854  0.0237 -0.9361
   27MOL   C24913821   6.057   8.059   1.298 -0.2860  0.3516 -0.0443
   27MOL   C25013822   6.161   8.115   1.222  0.2693  1.2368 -0.1210
   27MOL   H25113823   5.950   0.319   1.493  0.0443  0.7665  0.9747
   27MOL   H25213824   5.986   0.482   1.472  3.2557  1.6319 -2.5698
   27MOL   H25313825   6.081   0.450   1.251  0.8526 -1.4065 -1.3393
   27MOL   H25413826   6.405   8.219   1.078 -2.5625 -0.8915 -1.6469
   27MOL   H25513827   6.549   0.192   0.973 -0.8520 -0.6753  0.0436
   27MOL   H25613828   6.464   0.422   1.018 -0.5678  1.4910  2.0896
   27MOL   H25713829   6.252   0.451   1.147 -1.5501 -0.1946 -0.2066
   27MOL   H25813830   5.903   0.093   1.415  2.0076 -0.1234  1.8478
   27MOL   H25913831   5.891   8.074   1.426  0.5708 -1.7229 -1.1467
   27MOL   H26013832   6.068   7.953   1.319  0.8319 -0.0888 -2.6039
   27MOL   H26113833   6.238   8.049   1.186 -1.5497 -1.1678  0.2264
   27MOL   C26213834   5.885   0.363   1.234  0.0870  0.2838  0.3030
   27MOL   C26313835   5.873   0.387   1.074 -0.0798 -0.6322  0.9193
   27MOL   N26413836   5.827   0.255   1.008 -0.6712  0.1124  0.6490
   27MOL   C26513837   5.884   0.205   0.892 -0.1542  0.6411  0.1653
   27MOL   C26613838   5.809   0.094   0.854  0.4953  0.0279  0.3360
   27MOL   C26713839   5.837   0.028   0.728 -0.8601 -0.5502  0.5581
   27MOL   C26813840   5.934   0.088   0.641  1.1569  0.3051 -0.5759
   27MOL   C26913841   6.018   0.189   0.689 -0.3706  0.1687  0.2179
   27MOL   C27013842   5.991   0.251   0.812  0.4765  0.4169  0.5880
   27MOL   C27113843   5.705   0.073   0.949  0.2241 -0.5923  0.1160
   27MOL   C27213844   5.719   0.178   1.036  0.4138 -0.2227 -0.4917
   27MOL   C27313845   5.624   0.200   1.139  0.5773 -0.8858 -0.0595
   27MOL   C27413846   5.518   0.108   1.158  0.3134 -0.5634  0.7186
   27MOL   C27513847   5.503   0.001   1.071 -0.6775 -0.3798  0.4806
   27MOL   C27613848   5.598   8.213   0.965 -0.1694  0.2972  0.0701
   27MOL   H27713849   5.841   0.265   1.255  0.0402  0.3599  0.5591
   27MOL   H27813850   5.828   0.437   1.289  1.0232  1.3071 -0.0929
   27MOL   H27913851   5.973   0.412   1.036 -0.5304 -1.7444 -1.0920
   27MOL   H28013852   5.779   8.174   0.689 -1.6262  0.1036  0.3180
   27MOL   H28113853   5.938   0.046   0.541 -2.1290 -2.2209  0.2813
   27MOL   H28213854   6.090   0.239   0.626 -1.8764  0.0647 -1.6102
   27MOL   H28313855   6.047   0.339   0.840  1.7374 -0.6361  1.5049
   27MOL   H28413856   5.637   0.284   1.205 -2.3393 -0.8416  0.5294
   27MOL   H28513857   5.454   0.127   1.243  0.5876 -0.9680  1.0170
   27MOL   H28613858   5.431   8.152   1.096 -4.0101  2.2616 -0.8259
   27MOL   H28713859   5.603   8.124   0.905 -3.0108 -0.8900  1.5065
   27MOL   C28813860   5.770   0.499   1.044  0.0701  1.0078 -0.1443
   27MOL   C28913861   5.832   0.636   1.064 -0.1295  0.0578  0.5399
   27MOL   N29013862   5.947   0.663   0.977  0.0316  0.8300 -0.1050
   27MOL   C29113863   6.075   0.699   1.020  0.2029 -0.0210  0.1273
   27MOL   C29213864   6.165   0.678   0.912  0.1810  0.1682 -0.1687
   27MOL   C29313865   6.301   0.686   0.934 -0.2649 -0.5810 -0.1989
   27MOL   C29413866   6.347   0.713   1.064 -0.0048  0.5814  0.9210
   27MOL   C29513867   6.257   0.734   1.168  0.7120  0.0544 -0.0601
   27MOL   C29613868   6.124   0.738   1.142 -0.2147  0.2977  0.0614
   27MOL   C29713869   6.083   0.657   0.794  0.3384 -0.6164  0.0024
   27MOL   C29813870   5.944   0.656   0.837  0.3739 -0.8092  0.3309
   27MOL   C29913871   5.836   0.637   0.743 -0.3519 -0.2913 -0.5004
   27MOL   C30013872   5.868   0.636   0.604  0.4562  0.3768  0.1677
   27MOL   C30113873   6.002   0.663   0.563  0.2143  0.4871  0.6140
   27MOL   C30213874   6.108   0.664   0.655  0.3754 -0.5660 -0.4741
   27MOL   H30313875   5.728   0.486   0.944 -0.9243  0.3422  0.3575
   27MOL   H30413876   5.682   0.482   1.106  1.3445  0.9077  1.6682
   27MOL   H30513877   5.873   0.642   1.165 -1.4079 -0.6974  1.1169
   27MOL   H30613878   6.373   0.667   0.856  0.4756  0.3391  0.2507
   27MOL   H30713879   6.454   0.715   1.077  0.4264  0.0185 -2.1965
   27MOL   H30813880   6.296   0.765   1.264  1.5140  0.4524 -0.5103
   27MOL   H30913881   6.046   0.783   1.202  0.0193  2.4390 -1.1820
   27MOL   H31013882   5.734   0.618   0.774  0.2741 -0.7688  1.3325
   27MOL   H31113883   5.791   0.616   0.531 -0.2566 -1.6490  1.4223
   27MOL   H31213884   6.033   0.660   0.459  1.9431  1.6720  1.0811
   27MOL   H31313885   6.207   0.685   0.619  0.9429 -0.2706  1.2055
   27MOL   C31413886   5.734   0.752   1.049  0.1562 -0.2690 -0.4064
   27MOL   C31513887   5.613   0.751   1.147 -1.3668 -1.8027  0.4003
   27MOL   N31613888   5.641   0.689   1.277  0.6696  0.0920  0.3488
   27MOL   C31713889   5.569   0.592   1.347  0.0165  0.0988  0.1313
   27MOL   C31813890   5.618   0.576   1.483  0.2610 -0.5642  0.4854
   27MOL   C31913891   5.556   0.483   1.569  0.4369  0.1566  0.4282
   27MOL   C32013892   5.457   0.393   1.515 -0.2455  0.7456  0.3871
   27MOL   C32113893   5.412   0.415   1.384 -0.0763 -0.0902  0.7501
   27MOL   C32213894   5.463   0.513   1.302 -0.1371  0.1999  0.4241
   27MOL   C32313895   5.728   0.670   1.494  0.2215 -0.5080 -0.2796
   27MOL   C32413896   5.737   0.740   1.374  0.0274  0.0424  0.2831
   27MOL   C32513897   5.836   0.839   1.363  0.3765 -0.2059 -0.0035
   27MOL   C32613898   5.922   0.869   1.466  0.0816  0.8201  0.1157
   27MOL   C32713899   5.905   0.799   1.588 -0.2313  0.4852  0.2639
   27MOL   C32813900   5.814   0.697   1.602 -0.4406  0.6019  0.1575
   27MOL   H32913901   5.780   0.844   1.086 -0.9528  0.0571  0.1751
   27MOL   H33013902   5.707   0.761   0.944 -0.2877 -0.0280 -0.2704
   27MOL   H33113903   5.536   0.691   1.098 -1.4260 -2.1913  0.9736
   27MOL   H33213904   5.579   0.467   1.674 -0.7707  0.0101  0.6724
   27MOL   H33313905   5.411   0.314   1.572  0.0250 -0.2217 -0.7043
   27MOL   H33413906   5.340   0.350   1.337  1.4850 -1.1259 -0.2697
   27MOL   H33513907   5.421   0.524   1.204  1.0997 -0.0106 -0.1367
   27MOL   H33613908   5.850   0.891   1.269  0.3788  1.0283  0.6693
   27MOL   H33713909   6.003   0.939   1.452 -0.3375  1.7439  2.0286
   27MOL   H33813910   5.961   0.828   1.676 -1.2160 -1.8702  1.7487
   27MOL   H33913911   5.810   0.643   1.695 -3.8123  1.2860  0.4833
   27MOL   C34013912   5.547   0.893   1.159 -0.0723 -0.5648  0.0295
   27MOL   C34113913   5.445   0.921   1.269 -0.2017  0.7858  0.7859
   27MOL   N34213914   5.422   1.059   1.277 -0.5091 -0.0525 -0.2877
   27MOL   C34313915   5.484   1.144   1.375 -0.2947  0.4665  0.5945
   27MOL   C34413916   5.438   1.278   1.354 -0.3677 -0.7069 -0.4433
   27MOL   C34513917   5.484   1.376   1.450  0.0676  0.0174 -0.6221
   27MOL   C34613918   5.565   1.339   1.559  0.7990 -0.2587  0.2542
   27MOL   C34713919   5.615   1.207   1.569 -0.6557  0.8835  0.4596
   27MOL   C34813920   5.574   1.109   1.476 -0.6075 -0.1172  0.5037
   27MOL   C34913921   5.350   1.276   1.241 -0.1435 -0.2952  0.4230
   27MOL   C35013922   5.346   1.141   1.192  0.6453  0.3870  0.0969
   27MOL   C35113923   5.284   1.106   1.077 -0.2216 -0.0718 -0.1679
   27MOL   C35213924   5.224   1.208   0.996 -0.1234 -0.1617  0.2310
   27MOL   C35313925   5.219   1.341   1.038  0.0304  0.4582  0.3215
   27MOL   C35413926   5.278   1.372   1.163  0.2119  0.0576 -0.6795
   27MOL   H35513927   5.623   0.970   1.165  0.3541 -0.9700 -0.1456
   27MOL   H35613928   5.499   0.913   1.063  0.6907  0.9705 -0.0385
   27MOL   H35713929   5.495   0.896   1.363 -0.3110  0.9156  0.8777
   27MOL   H35813930   5.443   1.473   1.428  2.1234  0.9419 -0.5044
   27MOL   H35913931   5.589   1.416   1.631  1.1942 -0.5146  0.3948
   27MOL   H36013932   5.676   1.178   1.653 -1.8029 -1.0085  0.6633
   27MOL   H36113933   5.605   1.006   1.489  0.7336  0.1102 -0.7976
   27MOL   H36213934   5.278   1.000   1.053  0.7266  0.0256 -0.8724
   27MOL   H36313935   5.188   1.166   0.903  0.1522  0.5850 -0.2151
   27MOL   H36413936   5.188   1.415   0.967 -0.0023 -0.4219 -0.5894
   27MOL   H36513937   5.273   1.476   1.189  0.9133  0.1844 -1.0203
   27MOL   C36613938   5.315   0.834   1.264  0.5655  0.4532 -0.4600
   27MOL   C36713939   5.214   0.876   1.381 -0.1450  0.1843  1.0713
   27MOL   N36813940   5.076   0.857   1.335  0.3897  0.3095 -0.9288
   27MOL   C36913941   4.984   0.954   1.290  1.0725 -0.5205  0.3117
   27MOL   C37013942   4.867   0.892   1.247  0.6355  0.0036  0.4997
   27MOL   C37113943   4.757   0.964   1.208  0.3093 -0.4281  0.2205
   27MOL   C37213944   4.762   1.102   1.218 -0.2410 -1.0762 -1.0621
   27MOL   C37313945   4.881   1.171   1.256 -0.0314  0.2153  0.1229
   27MOL   C37413946   4.994   1.095   1.286  0.2564 -0.4125 -0.4787
   27MOL   C37513947   4.886   0.748   1.260 -0.1118  0.1566 -0.0308
   27MOL   C37613948   5.022   0.728   1.309 -0.0777 -0.3421  0.4769
   27MOL   C37713949   5.069   0.595   1.331 -0.4332 -0.2783 -0.6197
   27MOL   C37813950   4.980   0.486   1.312 -0.3858 -1.0959  0.4878
   27MOL   C37913951   4.848   0.502   1.267 -0.5244 -0.8596 -0.0740
   27MOL   C38013952   4.800   0.631   1.241 -0.6756  0.1700 -0.4025
   27MOL   H38113953   5.262   0.836   1.169  0.4361  0.5352 -0.3872
   27MOL   H38213954   5.340   0.728   1.256  0.7983  0.4393  0.4073
   27MOL   H38313955   5.230   0.982   1.398  1.4979  0.2110 -0.4920
   27MOL   H38413956   4.662   0.919   1.185  1.2976 -1.6785 -1.5222
   27MOL   H38513957   4.668   1.154   1.205 -0.4060 -1.5763 -1.9127
   27MOL   H38613958   4.886   1.277   1.276  1.6982  0.3967 -1.1634
   27MOL   H38713959   5.077   1.155   1.321 -0.6996  0.1357  0.8644
   27MOL   H38813960   5.173   0.589   1.359 -0.7086 -0.9545  0.2942
   27MOL   H38913961   5.008   0.384   1.331  0.5442 -1.1680 -1.1929
   27MOL   H39013962   4.765   0.432   1.257 -0.9498 -0.1462 -1.6408
   27MOL   H39113963   4.699   0.660   1.217 -0.6194  3.1088  2.4833
   27MOL   C39213964   5.247   0.813   1.515 -0.1513  0.1553 -0.0217
   27MOL   C39313965   5.165   0.868   1.632 -0.2317 -0.5937 -0.4385
   27MOL   N39413966   5.197   0.788   1.753 -0.8912 -0.5239  0.0812
   27MOL   C39513967   5.109   0.705   1.822 -0.0310 -0.7665  0.0181
   27MOL   C39613968   5.175   0.633   1.924  0.1545  0.1795 -0.5951
   27MOL   C39713969   5.113   0.530   1.996  0.3337  0.2977  0.2193
   27MOL   C39813970   4.979   0.499   1.972  0.1646 -0.4537  0.0295
   27MOL   C39913971   4.912   0.566   1.872 -0.0529 -1.0777 -0.3939
   27MOL   C40013972   4.971   0.673   1.799 -0.3743 -0.2749  0.3726
   27MOL   C40113973   5.314   0.680   1.917 -0.5903 -0.2089 -0.1860
   27MOL   C40213974   5.322   0.765   1.810  1.1283 -0.7449 -0.2107
   27MOL   C40313975   5.439   0.834   1.782 -0.0424 -0.2675  0.1073
   27MOL   C40413976   5.560   0.802   1.853  0.0330 -0.1037  0.1081
   27MOL   C40513977   5.559   0.714   1.958 -0.3078  0.6802  0.0749
   27MOL   C40613978   5.436   0.663   1.993  1.0916  0.2873 -0.2990
   27MOL   H40713979   5.236   0.704   1.519 -0.6962  0.0620 -2.9654
   27MOL   H40813980   5.351   0.822   1.544 -0.3702 -1.4216  1.3304
   27MOL   H40913981   5.058   0.863   1.616 -0.2355  1.4719 -1.1432
   27MOL   H41013982   5.171   0.478   2.071  0.4830  1.3611  0.8476
   27MOL   H41113983   4.931   0.417   2.024 -0.4586  0.5219  0.9960
   27MOL   H41213984   4.805   0.548   1.862 -0.2676 -1.3774  2.0202
   27MOL   H41313985   4.910   0.714   1.720 -0.4220  0.3081  0.7115
   27MOL   H41413986   5.447   0.898   1.696 -3.1634 -0.9589 -0.7419
   27MOL   H41513987   5.649   0.858   1.827 -1.9972  2.5852 -1.4025
   27MOL   H41613988   5.649   0.687   2.011  0.2113 -1.1640 -1.7171
   27MOL   H41713989   5.430   0.598   2.079  1.7680  0.7786  0.1205
   27MOL   C41813990   5.193   1.020   1.644  0.2266  1.1040 -0.3227
   27MOL   C41913991   5.176   1.088   1.780  0.0220  0.0158  0.2912
   27MOL   N42013992   5.256   1.204   1.783  0.1795 -0.4721  0.5400
   27MOL   C42113993   5.358   1.230   1.878  0.2939 -0.5507 -0.3914
   27MOL   C42213994   5.396   1.367   1.868  0.3448  0.9734  0.5572
   27MOL   C42313995   5.497   1.413   1.955 -0.3601  0.5287  0.0891
   27MOL   C42413996   5.559   1.335   2.053  0.1810  0.1451  0.6545
   27MOL   C42513997   5.512   1.200   2.065  0.1035 -0.5944 -0.1688
   27MOL   C42613998   5.417   1.147   1.977  0.3414 -0.1653 -0.3386
   27MOL   C42713999   5.317   1.423   1.764 -0.4839  0.7888 -0.1658
   27MOL   C42814000   5.236   1.323   1.706  0.3329  0.2026  0.0174
   27MOL   C42914001   5.144   1.364   1.603 -0.6259  0.3264 -0.0810
   27MOL   C43014002   5.143   1.492   1.548 -0.7708 -1.5557 -0.5104
   27MOL   C43114003   5.220   1.591   1.610  0.0341 -0.8669 -1.0265
   27MOL   C43214004   5.315   1.551   1.706  0.3866 -0.3734 -1.1202
   27MOL   H43314005   5.298   1.040   1.619  0.0161 -0.0121 -2.2014
   27MOL   H43414006   5.142   1.079   1.568  0.8075  1.9631 -0.0665
   27MOL   H43514007   5.208   1.018   1.858 -0.5972 -0.2566  0.3084
   27MOL   H43614008   5.520   1.518   1.949  0.0598  0.3872 -0.9443
   27MOL   H43714009   5.646   1.372   2.105  0.9767 -0.6789 -0.0572
   27MOL   H43814010   5.576   1.136   2.124  0.9935 -1.3041 -1.8823
   27MOL   H43914011   5.380   1.046   1.982 -0.7261  0.2649  0.6206
   27MOL   H44014012   5.062   1.303   1.568 -0.4536  0.1441 -0.1663
   27MOL   H44114013   5.062   1.518   1.482 -1.5593 -0.4558  0.8613
   27MOL   H44214014   5.213   1.695   1.583 -3.1787 -0.8836 -0.4441
   27MOL   H44314015   5.377   1.628   1.750 -1.9164  0.0746  1.4492
   27MOL   C44414016   5.025   1.113   1.817 -0.2417 -0.0212  0.8763
   27MOL   C44514017   5.013   1.159   1.967 -0.3451 -0.2354  0.7081
   27MOL   N44614018   4.916   1.270   1.989  0.3104  0.5351 -0.6781
   27MOL   C44714019   4.947   1.402   2.027 -0.2020  0.5995  0.0937
   27MOL   C44814020   4.828   1.482   2.036  0.2666 -0.6987 -0.2390
   27MOL   C44914021   4.840   1.613   2.087 -0.1393  0.3409  0.3067
   27MOL   C45014022   4.966   1.665   2.121  0.1869 -0.0289 -0.7243
   27MOL   C45114023   5.082   1.591   2.113  0.0717  0.5089 -0.2914
   27MOL   C45214024   5.074   1.458   2.064  0.1506 -0.5292 -0.2411
   27MOL   C45314025   4.726   1.395   1.995  0.0074  0.0681  0.2827
   27MOL   C45414026   4.781   1.269   1.964 -0.2967  0.5150  0.9202
   27MOL   C45514027   4.695   1.163   1.928 -0.2716  0.0653 -0.5377
   27MOL   C45614028   4.557   1.183   1.918 -0.3586 -0.3574  0.6238
   27MOL   C45714029   4.504   1.308   1.939 -0.0583  0.6572  0.2397
   27MOL   C45814030   4.591   1.413   1.979  0.1769  0.4412 -0.2984
   27MOL   H45914031   4.979   1.185   1.749  1.7688 -0.7783 -1.3446
   27MOL   H46014032   4.963   1.024   1.802  0.8431 -0.3895 -1.6566
   27MOL   H46114033   5.106   1.205   2.001 -0.4414  1.4475 -1.2398
   27MOL   H46214034   4.752   1.676   2.086 -0.7351 -0.4872 -0.6216
   27MOL   H46314035   4.979   1.768   2.150 -2.0431 -0.4366  1.9535
   27MOL   H46414036   5.177   1.631   2.147  0.2674  1.5468 -1.9996
   27MOL   H46514037   5.169   1.407   2.058 -0.3629 -1.2964 -2.0147
   27MOL   H46614038   4.733   1.066   1.899 -3.0637 -0.4284 -2.8346
   27MOL   H46714039   4.488   1.102   1.898 -2.0483  0.0975  4.1337
   27MOL   H46814040   4.399   1.322   1.916  0.0753 -0.5832 -1.2434
   27MOL   H46914041   4.551   1.506   2.017  1.0279  0.0739  1.5390
   27MOL   C47014042   5.006   1.042   2.065 -0.0058 -1.1156 -0.5029
   27MOL   C47114043   5.042   1.081   2.206  0.3506 -0.4104  0.8596
   27MOL   N47214044   4.975   0.999   2.302 -0.6929  0.0823  0.2770
   27MOL   C47314045   4.878   1.051   2.393 -0.7181  0.1711  0.1811
   27MOL   C47414046   4.822   0.946   2.470 -0.5236  0.9746 -0.0224
   27MOL   C47514047   4.712   0.968   2.559 -0.0299  0.1368  0.5482
   27MOL   C47614048   4.657   1.092   2.563  0.1932 -0.6599  0.6770
   27MOL   C47714049   4.715   1.201   2.493  0.6585 -0.2977  0.0388
   27MOL   C47814050   4.820   1.182   2.401  0.2748  0.2388 -1.0122
   27MOL   C47914051   4.895   0.829   2.435  0.6416  0.1035 -0.1608
   27MOL   C48014052   4.996   0.866   2.336  0.1016  0.2579  0.0776
   27MOL   C48114053   5.085   0.766   2.286 -0.7261  0.2813 -0.7692
   27MOL   C48214054   5.075   0.635   2.335 -0.0765  0.1939  0.3923
   27MOL   C48314055   4.976   0.600   2.433  0.6426  0.1127 -0.0969
   27MOL   C48414056   4.884   0.691   2.482  0.0367  0.2972 -0.1923
   27MOL   H48514057   4.899   1.020   2.075 -0.0421 -0.3291  0.8867
   27MOL   H48614058   5.060   0.955   2.027  3.4510 -0.1471  1.9602
   27MOL   H48714059   5.007   1.183   2.225  0.1317 -0.3748  0.2505
   27MOL   H48814060   4.674   0.881   2.609 -3.7395  1.3050 -0.0968
   27MOL   H48914061   4.572   1.104   2.628 -0.4580  0.7399 -0.4008
   27MOL   H49014062   4.673   1.300   2.509  0.5990 -0.3045 -0.0778
   27MOL   H49114063   4.845   1.265   2.336 -2.0414  2.3889  0.7799
   27MOL   H49214064   5.157   0.789   2.209 -0.9157  2.2353 -0.3812
   27MOL   H49314065   5.145   0.557   2.309 -0.4680 -0.1276  0.2959
   27MOL   H49414066   4.990   0.503   2.478  0.8271  0.4210  0.5239
   27MOL   H49514067   4.803   0.677   2.551  0.2708  0.6850  0.1616
   27MOL   C49614068   5.198   1.088   2.234  0.2138 -0.3672 -1.0022
   27MOL   C49714069   5.239   1.088   2.378 -0.2420  0.1513  0.5283
   27MOL   N49814070   5.384   1.101   2.389 -0.0806  0.1820 -0.1073
   27MOL   C49914071   5.451   1.229   2.401 -0.5874  0.1066 -0.8117
   27MOL   C50014072   5.593   1.209   2.389 -1.1886  0.2963  0.3318
   27MOL   C50114073   5.684   1.313   2.404  0.0469 -0.3546 -0.2856
   27MOL   C50214074   5.640   1.448   2.422  0.4589  0.3070 -0.4349
   27MOL   C50314075   5.504   1.469   2.430  0.3545 -0.0476  0.5784
   27MOL   C50414076   5.408   1.360   2.421  0.1062 -0.1628  0.5641
   27MOL   C50514077   5.610   1.067   2.355 -0.1994 -0.0101 -0.8781
   27MOL   C50614078   5.483   1.005   2.364  0.2148 -0.4107 -0.1163
   27MOL   C50714079   5.468   0.867   2.339  0.1942 -0.0722  0.1516
   27MOL   C50814080   5.582   0.787   2.313 -0.3915 -0.1831 -0.4242
   27MOL   C50914081   5.709   0.852   2.294 -0.4229  0.7606 -0.2562
   27MOL   C51014082   5.722   0.991   2.317 -0.0428  0.3820 -0.2953
   27MOL   H51114083   5.246   1.006   2.179 -0.3017 -1.3461 -0.0104
   27MOL   H51214084   5.236   1.181   2.191 -0.0397 -0.3573 -1.2038
   27MOL   H51314085   5.227   0.988   2.420 -2.1848 -0.5622 -1.6147
   27MOL   H51414086   5.789   1.296   2.386 -0.2290 -2.7608  0.2534
   27MOL   H51514087   5.720   1.520   2.419  1.2085 -0.5592 -1.6073
   27MOL   H51614088   5.465   1.569   2.444  3.0922  1.5829 -2.6326
   27MOL   H51714089   5.304   1.388   2.428  0.2044  0.9008 -1.7932
   27MOL   H51814090   5.370   0.822   2.348  0.1631  0.0886  0.6193
   27MOL   H51914091   5.582   0.680   2.300  0.1167  0.0173 -2.2326
   27MOL   H52014092   5.796   0.790   2.282 -0.0840  1.3443 -0.8516
   27MOL   H52114093   5.823   1.030   2.319  0.9511 -2.1385  0.2899
   27MOL   H52214094   5.183   1.157   2.441  0.0458  1.6832 -0.8663
   28MOL     C114095   1.963   3.042   0.555  0.4671 -0.2420  0.3916
   28MOL     C214096   1.958   3.192   0.580  0.0425  0.4878  0.5394
   28MOL     N314097   2.093   3.247   0.621 -0.0452  0.1715 -0.1781
   28MOL     C414098   2.117   3.320   0.738  0.2675  0.8267  0.2709
   28MOL     C514099   2.249   3.369   0.736  0.0631 -0.4083  0.8039
   28MOL     C614100   2.302   3.443   0.842 -0.1080 -1.1604  0.6975
   28MOL     C714101   2.217   3.477   0.949 -0.7646  0.0874 -0.5130
   28MOL     C814102   2.082   3.437   0.948  0.2937 -0.3310 -0.0671
   28MOL     C914103   2.031   3.350   0.848 -0.0503  0.0765  0.1469
   28MOL    C1014104   2.306   3.330   0.615  0.4661 -0.0273 -0.2100
   28MOL    C1114105   2.209   3.250   0.543  0.6029 -0.8408  0.1248
   28MOL    C1214106   2.241   3.192   0.417  0.3400  0.0255  0.3931
   28MOL    C1314107   2.364   3.211   0.359 -0.7336 -0.2667 -0.5269
   28MOL    C1414108   2.460   3.295   0.425  0.1999 -0.2405 -0.2693
   28MOL    C1514109   2.430   3.345   0.555  0.1905 -0.9682 -0.0185
   28MOL    H1614110   1.990   2.993   0.648  0.2920 -1.4083 -0.1664
   28MOL    H1714111   2.029   3.015   0.473  0.1906 -0.5847  0.2780
   28MOL    H1814112   1.885   3.208   0.659 -1.3323  0.8075 -0.7739
   28MOL    H1914113   2.406   3.471   0.836 -0.9530  2.4977  1.6575
   28MOL    H2014114   2.256   3.530   1.035  0.8055  0.1135 -1.2242
   28MOL    H2114115   2.020   3.468   1.031  0.4455  2.2281 -0.8941
   28MOL    H2214116   1.932   3.309   0.856 -0.3637  0.8682  0.3348
   28MOL    H2314117   2.167   3.138   0.360 -0.3016  0.7481  0.5265
   28MOL    H2414118   2.380   3.182   0.256 -0.5119  1.9720 -1.1486
   28MOL    H2514119   2.558   3.299   0.380  1.7938 -1.4072  2.9115
   28MOL    H2614120   2.511   3.392   0.609 -2.2626  2.0411  1.1519
   28MOL    H2714121   1.865   2.998   0.538 -0.1768  0.4636  2.1419
   28MOL    C2814122   1.902   3.276   0.461  0.1657  0.2460  0.4319
   28MOL    C2914123   1.748   3.274   0.437 -0.2114 -0.2677  0.2795
   28MOL    N3014124   1.663   3.277   0.561 -0.0189 -0.2933  0.2040
   28MOL    C3114125   1.551   3.194   0.578  0.2701 -0.0895  0.5048
   28MOL    C3214126   1.477   3.247   0.692 -0.4322  0.0378 -0.8889
   28MOL    C3314127   1.351   3.191   0.721 -0.0529  0.2049  0.2860
   28MOL    C3414128   1.301   3.083   0.644  0.7490 -0.4205  0.1521
   28MOL    C3514129   1.375   3.029   0.530 -0.6338 -0.3154 -0.5251
   28MOL    C3614130   1.501   3.082   0.499 -0.0749 -0.0545 -0.8088
   28MOL    C3714131   1.554   3.357   0.746 -0.2938 -0.1795  0.5564
   28MOL    C3814132   1.665   3.379   0.657 -0.1379  0.4179 -0.6878
   28MOL    C3914133   1.754   3.484   0.679  0.2896 -0.4753  0.4847
   28MOL    C4014134   1.730   3.571   0.794 -0.1583  0.8416  0.0682
   28MOL    C4114135   1.624   3.549   0.885 -0.0296  0.6084  0.4695
   28MOL    C4214136   1.533   3.441   0.856  0.5714  0.4265 -0.5337
   28MOL    H4314137   1.942   3.374   0.485  0.8409  0.6201 -2.1105
   28MOL    H4414138   1.966   3.255   0.375 -0.8052 -2.3307  0.2854
   28MOL    H4514139   1.733   3.173   0.399 -0.3152 -0.2802  0.3534
   28MOL    H4614140   1.291   3.232   0.800 -2.1451  0.1914 -1.2389
   28MOL    H4714141   1.206   3.038   0.668  0.3975 -0.7688 -1.8395
   28MOL    H4814142   1.322   2.954   0.475 -1.3924 -0.7970  0.8400
   28MOL    H4914143   1.557   3.059   0.409  0.2314  3.9224 -1.7596
   28MOL    H5014144   1.827   3.499   0.601 -0.1935  1.4879  0.3705
   28MOL    H5114145   1.793   3.658   0.809 -1.4681  1.8360 -0.0420
   28MOL    H5214146   1.605   3.613   0.969 -1.8547  1.5364 -0.6213
   28MOL    H5314147   1.449   3.438   0.924  0.7473 -0.0356 -0.3311
   28MOL    C5414148   1.698   3.392   0.348 -0.7579  0.2316  0.3508
   28MOL    C5514149   1.730   3.378   0.196  0.2515 -0.3029  0.4315
   28MOL    N5614150   1.671   3.253   0.147  0.4206 -0.0237  0.1257
   28MOL    C5714151   1.743   3.152   0.081  0.0513 -0.5481  0.1525
   28MOL    C5814152   1.655   3.047   0.048  0.2115  0.2788 -0.8406
   28MOL    C5914153   1.709   2.933   8.208 -0.1036  0.2468  0.8019
   28MOL    C6014154   1.845   2.927   8.172  0.0343 -0.1520  0.2953
   28MOL    C6114155   1.932   3.033   8.212 -0.2140  0.2541 -0.7567
   28MOL    C6214156   1.880   3.147   0.052  0.2369 -0.5847  0.0165
   28MOL    C6314157   1.522   3.079   0.087  0.3481 -0.0400  1.0007
   28MOL    C6414158   1.533   3.213   0.143 -0.1109  0.6253 -0.9805
   28MOL    C6514159   1.414   3.281   0.184 -0.6212 -0.2280  0.4921
   28MOL    C6614160   1.286   3.218   0.165  0.0354 -0.7748 -0.2112
   28MOL    C6714161   1.284   3.087   0.109  0.2072  0.8227  0.5255
   28MOL    C6814162   1.404   3.017   0.074 -0.9756 -0.0576 -0.1560
   28MOL    H6914163   1.592   3.410   0.367 -0.7612  0.8155 -0.2102
   28MOL    H7014164   1.741   3.481   0.393  2.2278 -0.6953 -0.5282
   28MOL    H7114165   1.838   3.385   0.184  0.2808 -2.0046 -0.5082
   28MOL    H7214166   1.637   2.860   8.175  1.0953 -0.6518  0.1705
   28MOL    H7314167   1.891   2.841   8.126  1.0346 -0.9538  2.7178
   28MOL    H7414168   2.038   3.029   8.191  0.1008 -0.4807  0.8648
   28MOL    H7514169   1.943   3.229   0.083  1.7480 -2.0737  0.9513
   28MOL    H7614170   1.403   3.374   0.238 -1.7355  1.1985 -2.0961
   28MOL    H7714171   1.194   3.267   0.191  0.7143 -0.6928  2.1589
   28MOL    H7814172   1.188   3.041   0.090  0.5789  0.3063 -0.1157
   28MOL    H7914173   1.400   2.919   0.030  0.0764 -0.2168  0.1005
   28MOL    C8014174   1.680   3.502   0.113  0.0308 -0.2836  0.0127
   28MOL    C8114175   1.764   3.634   0.147  0.0594 -0.4332  0.0853
   28MOL    N8214176   1.909   3.609   0.156  0.0778 -0.6979 -0.0356
   28MOL    C8314177   1.975   3.629   0.279  0.4987  0.1589 -0.1640
   28MOL    C8414178   2.100   3.574   0.274  0.2567  0.4046  0.2483
   28MOL    C8514179   2.167   3.572   0.398  0.5357  0.0406 -0.5305
   28MOL    C8614180   2.119   3.634   0.518  0.4023 -0.8664 -0.5336
   28MOL    C8714181   2.008   3.716   0.504 -0.2473 -0.0177 -0.0177
   28MOL    C8814182   1.930   3.708   0.386 -0.4298 -0.0594  0.0213
   28MOL    C8914183   2.115   3.526   0.138 -0.4341 -0.2395 -0.0621
   28MOL    C9014184   1.998   3.556   0.062  0.2100 -0.1731  0.0744
   28MOL    C9114185   1.987   3.516   8.153 -0.9166  0.3657 -1.1721
   28MOL    C9214186   2.093   3.447   8.094  0.0224 -0.1956 -0.3792
   28MOL    C9314187   2.206   3.411   8.168  0.0069 -0.2110 -0.0856
   28MOL    C9414188   2.214   3.448   0.079  0.4054  0.1627  0.2626
   28MOL    H9514189   1.706   3.488   0.008 -0.7663 -2.7771  0.1101
   28MOL    H9614190   1.572   3.511   0.109 -0.0467 -1.0040  0.3107
   28MOL    H9714191   1.725   3.664   0.244 -1.0377  0.2008 -0.5461
   28MOL    H9814192   2.255   3.510   0.410  0.1714 -0.6441 -1.3936
   28MOL    H9914193   2.167   3.626   0.614 -0.4543  0.8236  0.0355
   28MOL   H10014194   1.970   3.769   0.590  1.1421 -1.7830  1.7193
   28MOL   H10114195   1.834   3.757   0.381  0.4322  1.8386  1.5213
   28MOL   H10214196   1.895   3.542   8.101 -2.2914 -1.0466  0.4730
   28MOL   H10314197   2.074   3.412   7.993  0.4081 -1.3201 -0.0731
   28MOL   H10414198   2.281   3.344   8.126 -0.7320  0.2099 -2.1444
   28MOL   H10514199   2.292   3.416   0.147 -0.2126 -1.5364  0.2024
   28MOL   C10614200   1.729   3.752   0.054  0.9171  0.0267 -1.2429
   28MOL   C10714201   1.593   3.818   0.096 -0.2120 -0.2679 -0.5374
   28MOL   N10814202   1.596   3.874   0.231 -0.5976 -0.0112  0.4088
   28MOL   C10914203   1.541   3.820   0.345  0.1741 -0.0089 -0.1493
   28MOL   C11014204   1.565   3.909   0.455  0.8308 -0.2112 -0.0705
   28MOL   C11114205   1.522   3.869   0.582 -0.3438 -0.5024 -0.1736
   28MOL   C11214206   1.447   3.752   0.600 -1.1578  0.2667 -0.3610
   28MOL   C11314207   1.424   3.665   0.493  1.1150 -0.1296 -0.9518
   28MOL   C11414208   1.471   3.696   0.366 -0.5607  0.4495  0.5954
   28MOL   C11514209   1.647   4.013   0.404 -0.4179  0.3996 -0.0492
   28MOL   C11614210   1.661   3.993   0.264  0.2158 -0.5241 -0.0012
   28MOL   C11714211   1.730   4.080   0.183  0.2740  0.1777  0.2834
   28MOL   C11814212   1.796   4.185   0.238 -0.7299 -0.7175 -0.4308
   28MOL   C11914213   1.802   4.200   0.374  0.4891 -0.7029 -0.3318
   28MOL   C12014214   1.727   4.120   0.455  0.0428  0.4447 -0.2373
   28MOL   H12114215   1.806   3.829   0.048  0.1142  0.9611  0.0356
   28MOL   H12214216   1.729   3.713   8.180 -1.7595  0.2115 -1.3310
   28MOL   H12314217   1.525   3.734   0.102  0.0498 -0.5451 -1.3094
   28MOL   H12414218   1.535   3.944   0.658  0.0351 -1.2091  0.4641
   28MOL   H12514219   1.427   3.719   0.701 -0.3710 -3.5805 -1.3826
   28MOL   H12614220   1.375   3.570   0.509 -1.0327  0.9602 -0.9220
   28MOL   H12714221   1.468   3.627   0.283  0.5365  0.7393  0.3139
   28MOL   H12814222   1.749   4.067   0.077 -0.9337  2.7310 -0.2807
   28MOL   H12914223   1.857   4.245   0.171 -1.5217  1.4104  0.7111
   28MOL   H13014224   1.869   4.276   0.412  1.3704 -0.2725 -2.6123
   28MOL   H13114225   1.726   4.128   0.563 -0.5346 -1.3885 -0.0876
   28MOL   C13214226   1.520   3.908   8.219 -0.1944  0.0359  0.0191
   28MOL   C13314227   1.502   3.844   8.078  0.3157 -0.3386  0.4441
   28MOL   N13414228   1.466   3.703   8.085 -0.0657  0.3028 -0.0524
   28MOL   C13514229   1.529   3.594   8.032  0.2926  0.2631  0.0226
   28MOL   C13614230   1.456   3.475   8.065 -0.1662 -0.1213 -0.0233
   28MOL   C13714231   1.514   3.351   8.034 -0.6901  0.1009  0.3035
   28MOL   C13814232   1.632   3.344   7.969 -0.4497 -0.1010 -0.1802
   28MOL   C13914233   1.702   3.459   7.934  0.1880 -0.2830  0.2303
   28MOL   C14014234   1.649   3.591   7.961  0.1771  0.1848 -0.0157
   28MOL   C14114235   1.334   3.515   8.127  0.0497 -0.1253 -0.3726
   28MOL   C14214236   1.344   3.656   8.133  0.5421 -0.6001 -0.3191
   28MOL   C14314237   1.232   3.726   8.186  0.2517 -0.4713  0.0192
   28MOL   C14414238   1.115   3.658   8.225 -0.3493  0.2648  0.1848
   28MOL   C14514239   1.100   3.517   8.208 -0.2051 -0.0271 -0.2852
   28MOL   C14614240   1.212   3.448   8.164 -0.5752  0.4098  0.2749
   28MOL   H14714241   1.422   3.934   0.034 -0.7251 -0.3832 -0.9390
   28MOL   H14814242   1.581   3.997   8.206  0.8158 -0.5472  0.7472
   28MOL   H14914243   1.603   3.843   8.036 -0.0677  0.3307 -0.5245
   28MOL   H15014244   1.455   3.264   8.057 -1.9321  0.1853 -2.4723
   28MOL   H15114245   1.675   3.249   7.942 -0.7828 -0.1063 -0.7124
   28MOL   H15214246   1.790   3.430   7.879  0.2828  0.5434 -0.0685
   28MOL   H15314247   1.712   3.677   7.947 -1.1518  1.4689  1.6594
   28MOL   H15414248   1.240   3.833   8.195  2.0666 -0.7362  1.8408
   28MOL   H15514249   1.032   3.718   0.032  0.5310  0.3936  2.1627
   28MOL   H15614250   1.009   3.470   0.016 -0.4478 -0.1549 -1.0738
   28MOL   H15714251   1.209   3.340   8.162  3.1953  0.2376 -0.4582
   28MOL   C15814252   1.408   3.928   7.986  0.2578 -0.4977 -0.7339
   28MOL   C15914253   1.445   4.077   7.953  0.0636  0.7251  0.5632
   28MOL   N16014254   1.587   4.093   7.931 -0.5799 -0.1177  0.7389
   28MOL   C16114255   1.662   4.193   7.991  0.2888  0.1395  0.3642
   28MOL   C16214256   1.802   4.177   7.974  0.1535  0.2245 -0.0406
   28MOL   C16314257   1.891   4.252   8.056  0.2680 -1.0342  0.1314
   28MOL   C16414258   1.837   4.352   8.139  0.4733 -0.3234 -0.6222
   28MOL   C16514259   1.703   4.381   8.146  0.0903  0.2072 -0.8857
   28MOL   C16614260   1.615   4.306   8.067 -0.0550  0.0845  0.4904
   28MOL   C16714261   1.815   4.069   7.875 -0.0079  0.4287 -0.2468
   28MOL   C16814262   1.683   4.024   7.854  0.0121 -0.1676 -0.1445
   28MOL   C16914263   1.660   3.914   7.771  0.7267  0.9935 -0.0102
   28MOL   C17014264   1.768   3.849   7.712 -0.2452 -0.6391 -0.5528
   28MOL   C17114265   1.899   3.895   7.730  0.1064  0.3188 -0.1297
   28MOL   C17214266   1.919   4.007   7.808 -0.0180 -0.0971  0.0150
   28MOL   H17314267   1.382   3.867   7.899 -0.5243  2.0108 -2.3226
   28MOL   H17414268   1.308   3.946   8.026  0.8169  1.1269 -0.0374
   28MOL   H17514269   1.407   4.140   8.033 -0.8536  1.0912 -0.1450
   28MOL   H17614270   1.997   4.245   8.034 -0.2241 -0.1941 -2.7812
   28MOL   H17714271   1.904   4.415   8.196 -0.3769  0.9592 -1.0318
   28MOL   H17814272   1.670   4.450   8.222 -0.2815 -1.0093  0.0619
   28MOL   H17914273   1.509   4.330   8.073 -0.4439 -1.2023 -1.0807
   28MOL   H18014274   1.560   3.877   7.754  1.7640 -2.2834  0.6825
   28MOL   H18114275   1.747   3.756   7.662 -0.5259 -0.2559 -1.1440
   28MOL   H18214276   1.989   3.852   7.688  0.4610  1.0294 -0.1057
   28MOL   H18314277   2.020   4.046   7.812  0.4272 -1.1496 -0.5139
   28MOL   C18414278   1.380   4.126   7.821 -0.3624  0.4857 -0.0490
   28MOL   C18514279   1.230   4.115   7.824  0.2521  0.3985  0.6988
   28MOL   N18614280   1.177   4.211   7.917  0.3194  0.0873 -0.2590
   28MOL   C18714281   1.117   4.183   8.044  0.4229  0.1262 -0.0440
   28MOL   C18814282   1.090   4.308   8.107 -0.0474 -0.9023 -0.1988
   28MOL   C18914283   1.037   4.305   0.013  0.9806 -0.2948  0.3324
   28MOL   C19014284   1.005   4.185   0.078  0.7995 -0.3214  0.8382
   28MOL   C19114285   1.026   4.063   0.005 -0.7645 -0.2266  0.1380
   28MOL   C19214286   1.079   4.061   8.101 -0.3046  0.3105  0.2292
   28MOL   C19314287   1.124   4.417   8.021  0.2754  0.1227 -0.0871
   28MOL   C19414288   1.193   4.354   7.913  0.1192 -0.1688  0.5022
   28MOL   C19514289   1.254   4.437   7.817 -0.5014 -0.1726 -0.7940
   28MOL   C19614290   1.235   4.579   7.817 -0.2876  0.0722 -0.4098
   28MOL   C19714291   1.170   4.638   7.922  0.1886  0.0157  0.0551
   28MOL   C19814292   1.117   4.558   8.027 -0.2204 -0.3568 -0.2486
   28MOL   H19914293   1.423   4.225   7.805  1.5197  0.0167  1.8855
   28MOL   H20014294   1.427   4.062   7.746 -1.7537 -1.8032  0.9673
   28MOL   H20114295   1.202   4.013   7.851 -0.8798  0.3783 -0.4833
   28MOL   H20214296   1.021   4.392   0.074  0.9358 -0.8371  1.1079
   28MOL   H20314297   0.964   4.180   0.178  1.1850 -0.5189  0.9883
   28MOL   H20414298   1.003   3.966   0.046 -1.1533 -0.2247 -0.0781
   28MOL   H20514299   1.095   3.964   8.056  2.0534  0.6367  0.3124
   28MOL   H20614300   1.315   4.392   7.740 -1.6048  1.0348 -2.4278
   28MOL   H20714301   1.285   4.636   7.740  1.8414 -3.5092 -1.8038
   28MOL   H20814302   1.178   4.745   7.934 -0.8647  0.2195 -0.9478
   28MOL   H20914303   1.075   4.610   8.112  1.6069  1.0457 -0.1722
   28MOL   C21014304   1.163   4.137   7.688 -0.6629  0.6247  0.0597
   28MOL   C21114305   1.189   4.021   7.592  0.3608 -0.0498  0.1123
   28MOL   N21214306   1.157   3.887   7.650 -0.3210 -0.1915  0.2387
   28MOL   C21314307   1.244   3.777   7.662  0.6467  0.9944 -0.1721
   28MOL   C21414308   1.170   3.667   7.723 -0.5934 -0.0277 -0.0102
   28MOL   C21514309   1.240   3.546   7.744  0.5995 -0.3466  0.3493
   28MOL   C21614310   1.374   3.538   7.705  0.0278  0.0923 -0.4774
   28MOL   C21714311   1.445   3.638   7.642 -0.9049  0.6555 -0.1695
   28MOL   C21814312   1.380   3.760   7.621 -0.2147  0.4260  0.4715
   28MOL   C21914313   1.040   3.714   7.741 -0.4029  1.0832 -0.0974
   28MOL   C22014314   1.031   3.844   7.691 -0.0451  0.7770  0.0739
   28MOL   C22114315   0.907   3.907   7.691 -0.4651 -0.1939 -0.1188
   28MOL   C22214316   0.798   3.846   7.748  0.5223 -0.1579 -0.8454
   28MOL   C22314317   0.804   3.713   7.793  0.6697 -0.1057  0.2792
   28MOL   C22414318   0.926   3.646   7.788 -0.7044  0.0177  0.3070
   28MOL   H22514319   1.058   4.167   7.698 -0.2099  2.5869 -0.8736
   28MOL   H22614320   1.215   4.223   7.647 -1.9199  0.7879 -1.2120
   28MOL   H22714321   1.296   4.012   7.577  0.5234  0.6950  0.7999
   28MOL   H22814322   1.185   3.457   7.770  1.9547 -1.9196 -2.0428
   28MOL   H22914323   1.430   3.445   7.702 -0.0947  0.0303 -0.9495
   28MOL   H23014324   1.545   3.620   7.605 -0.8528  1.0988 -0.2405
   28MOL   H23114325   1.436   3.837   7.569  0.6647  0.3927  1.3486
   28MOL   H23214326   0.890   4.008   7.655 -2.9165  0.1705  1.8696
   28MOL   H23314327   0.706   3.902   7.745 -0.9317 -2.5245 -1.9126
   28MOL   H23414328   0.718   3.668   7.840  1.6383 -0.3039  1.9140
   28MOL   H23514329   0.922   3.545   7.827  1.0228  0.4459  1.6581
   28MOL   C23614330   1.136   4.049   7.446  0.4183 -0.1398  0.5004
   28MOL   C23714331   1.191   4.174   7.379  0.1271 -0.7346  0.4038
   28MOL   N23814332   1.337   4.172   7.381  0.2357 -0.1656 -0.5739
   28MOL   C23914333   1.422   4.272   7.438  0.5878  0.3646 -0.1291
   28MOL   C24014334   1.542   4.211   7.471  0.0828 -0.6097  0.0946
   28MOL   C24114335   1.633   4.286   7.557 -0.5822 -0.7470 -0.1723
   28MOL   C24214336   1.595   4.411   7.611 -0.3623  0.2123  0.2837
   28MOL   C24314337   1.476   4.469   7.575 -0.2357 -0.1987  0.5026
   28MOL   C24414338   1.393   4.399   7.483  0.2678  0.0575  0.1246
   28MOL   C24514339   1.551   4.091   7.389 -0.6316  0.2085  0.5275
   28MOL   C24614340   1.419   4.067   7.342 -0.3557  0.5600  0.3937
   28MOL   C24714341   1.396   3.942   7.278  0.4930 -0.3707  0.3253
   28MOL   C24814342   1.496   3.848   7.250 -0.0742  0.5322  0.3660
   28MOL   C24914343   1.624   3.873   7.294 -0.6376  0.1058 -0.5871
   28MOL   C25014344   1.651   3.996   7.358 -0.1517  0.2531 -0.3326
   28MOL   H25114345   1.147   3.957   7.389  0.9332  0.0761  0.2480
   28MOL   H25214346   1.028   4.051   7.462  0.1565  1.1013 -1.2959
   28MOL   H25314347   1.152   4.260   7.435 -1.9906 -0.4268 -1.5064
   28MOL   H25414348   1.732   4.258   7.591 -0.7336 -1.1812 -0.0868
   28MOL   H25514349   1.655   4.466   7.682 -1.5746  1.7094  0.1701
   28MOL   H25614350   1.454   4.573   7.593  2.2502  0.6624 -1.2354
   28MOL   H25714351   1.299   4.444   7.455  0.0462 -0.3494  0.2169
   28MOL   H25814352   1.298   3.920   7.237  0.3342 -0.2600  0.6408
   28MOL   H25914353   1.478   3.759   7.192 -0.7964 -0.2686  1.8002
   28MOL   H26014354   1.696   3.794   7.288 -1.6209 -0.7753 -0.8739
   28MOL   H26114355   1.752   4.014   7.392  0.0969 -1.1123 -0.3183
   28MOL   C26214356   1.137   4.191   7.236 -0.4518 -0.7752  0.5432
   28MOL   C26314357   0.982   4.212   7.225  0.6379  0.8754  0.6821
   28MOL   N26414358   0.921   4.299   7.332  0.3507  0.0801  0.0945
   28MOL   C26514359   0.824   4.260   7.417  0.2921 -0.2393 -0.0726
   28MOL   C26614360   0.787   4.371   7.504 -0.4884  0.3495  0.2297
   28MOL   C26714361   0.691   4.361   7.604  0.4260 -0.3696  0.4946
   28MOL   C26814362   0.625   4.243   7.623 -0.6118  0.4387  0.8025
   28MOL   C26914363   0.658   4.133   7.542  0.4608 -0.5727 -0.3128
   28MOL   C27014364   0.759   4.138   7.447 -0.0950 -0.3720 -0.2170
   28MOL   C27114365   0.865   4.482   7.462  0.3266  0.4580  0.2235
   28MOL   C27214366   0.943   4.438   7.348 -0.1400 -0.9026  0.3531
   28MOL   C27314367   1.027   4.532   7.287 -0.4611  0.3454 -0.4209
   28MOL   C27414368   1.034   4.671   7.328 -0.6393  0.5143 -0.5644
   28MOL   C27514369   0.960   4.705   7.433  0.2738  0.5127  0.3555
   28MOL   C27614370   0.883   4.617   7.505  0.5724 -0.0724  0.2235
   28MOL   H27714371   1.181   4.282   7.196  0.6655 -1.0087  1.2343
   28MOL   H27814372   1.174   4.115   7.168 -2.6454 -0.7204 -0.7620
   28MOL   H27914373   0.936   4.116   7.246  0.6289  1.0714  1.5751
   28MOL   H28014374   0.671   4.450   7.661  1.4530 -0.2192  0.6354
   28MOL   H28114375   0.555   4.225   7.703 -2.0834 -0.2005 -0.6040
   28MOL   H28214376   0.609   4.038   7.560  1.1759 -0.5550  1.8287
   28MOL   H28314377   0.788   4.053   7.386  2.1466  0.2922 -0.1082
   28MOL   H28414378   1.093   4.499   7.208  1.4458  0.2180  1.1699
   28MOL   H28514379   1.102   4.738   7.278  0.0937  0.2835  0.1059
   28MOL   H28614380   0.970   4.810   7.454  0.4235  0.5374  0.1705
   28MOL   H28714381   0.830   4.653   7.591  0.6882 -1.2657  0.7997
   28MOL   C28814382   0.941   4.253   7.085 -0.2468  0.4303  0.1109
   28MOL   C28914383   0.998   4.170   6.958 -0.1832  0.1263 -1.2319
   28MOL   N29014384   1.022   4.027   6.980  0.4187 -0.5979  0.4712
   28MOL   C29114385   1.142   3.962   6.973 -0.7192  0.2013 -0.4296
   28MOL   C29214386   1.124   3.818   6.984 -0.8289 -0.0080  1.0398
   28MOL   C29314387   1.233   3.736   6.955  0.0492 -0.4595 -0.0397
   28MOL   C29414388   1.351   3.793   6.900 -0.4500 -0.0686  0.0313
   28MOL   C29514389   1.373   3.928   6.898  0.2113 -0.0737  0.7211
   28MOL   C29614390   1.272   4.014   6.942  0.5976 -0.7270  0.1948
   28MOL   C29714391   0.984   3.797   7.014 -1.2150 -0.1918 -0.0628
   28MOL   C29814392   0.929   3.930   7.021 -0.2652 -0.5836 -0.6774
   28MOL   C29914393   0.788   3.948   7.050 -0.2106  0.9074  0.0210
   28MOL   C30014394   0.706   3.840   7.090 -0.0758  0.2122 -0.0046
   28MOL   C30114395   0.764   3.708   7.096 -0.4747  0.1518  0.2110
   28MOL   C30214396   0.899   3.688   7.045  0.2001 -0.3310 -0.2299
   28MOL   H30314397   0.833   4.244   7.080 -0.1341 -0.0685 -2.2056
   28MOL   H30414398   0.954   4.357   7.054  1.4042  0.0292 -0.6287
   28MOL   H30514399   1.095   4.216   6.936 -0.9255  1.5613 -1.5646
   28MOL   H30614400   1.227   3.629   6.970  2.0199 -0.4177  1.1361
   28MOL   H30714401   1.434   3.731   6.871 -2.4587 -1.8519 -2.1917
   28MOL   H30814402   1.458   3.983   6.861 -0.8689  0.2248 -1.3873
   28MOL   H30914403   1.278   4.121   6.927  1.9340 -1.2023 -2.8487
   28MOL   H31014404   0.738   4.044   7.052 -0.2847  0.8472  1.6876
   28MOL   H31114405   0.604   3.848   7.124 -0.0665  0.1297  0.0438
   28MOL   H31214406   0.705   3.625   7.132 -0.6866 -0.3888 -1.3471
   28MOL   H31314407   0.945   3.591   7.057  0.9549  0.1371  0.6515
   28MOL   C31414408   0.912   4.175   6.831 -0.1572 -0.0578  0.2324
   28MOL   C31514409   0.919   4.316   6.771 -0.2846  0.1002  0.2905
   28MOL   N31614410   1.052   4.349   6.724  0.6965  0.5745  0.1803
   28MOL   C31714411   1.133   4.447   6.786 -0.2159 -0.6071  0.0147
   28MOL   C31814412   1.261   4.443   6.726 -0.1950  0.2480 -0.1268
   28MOL   C31914413   1.364   4.516   6.784 -0.7767 -0.0052  0.1007
   28MOL   C32014414   1.337   4.588   6.909 -0.3334  1.2803 -0.0983
   28MOL   C32114415   1.206   4.602   6.950  0.2614  0.0895 -0.5450
   28MOL   C32214416   1.104   4.527   6.895 -0.2720 -0.4382 -0.0253
   28MOL   C32314417   1.249   4.366   6.607  0.1872 -0.3572 -0.1767
   28MOL   C32414418   1.124   4.301   6.616 -0.1962 -0.1711 -0.1304
   28MOL   C32514419   1.098   4.203   6.523  0.2725  0.6115  0.0997
   28MOL   C32614420   1.191   4.161   6.427 -0.5141  0.0876  0.4400
   28MOL   C32714421   1.311   4.233   6.409  0.3796  0.1366  1.4233
   28MOL   C32814422   1.341   4.336   6.501  1.1283  0.0588 -0.0911
   28MOL   H32914423   0.954   4.103   6.761 -0.7271  0.9360 -1.1543
   28MOL   H33014424   0.806   4.155   6.850 -0.7123  2.9791  0.5717
   28MOL   H33114425   0.892   4.389   6.848 -2.0888 -1.6244  1.3318
   28MOL   H33214426   1.458   4.515   6.732 -0.9713  2.1313 -0.3467
   28MOL   H33314427   1.418   4.634   6.963 -1.4063  1.2550  1.5458
   28MOL   H33414428   1.183   4.676   7.025 -1.5645 -1.4561  0.4632
   28MOL   H33514429   1.006   4.529   6.940  0.0951 -1.0328  0.8295
   28MOL   H33614430   1.006   4.147   6.520  1.1037 -0.7860 -0.2226
   28MOL   H33714431   1.170   4.083   6.354 -0.2130  1.1138 -0.7668
   28MOL   H33814432   1.378   4.207   6.328 -3.3277 -2.3562 -1.0160
   28MOL   H33914433   1.441   4.375   6.516  1.1347 -0.8038  2.2752
   28MOL   C34014434   0.817   4.332   6.656 -0.3668  0.0634  0.5087
   28MOL   C34114435   0.670   4.331   6.690 -0.0710 -0.3713  0.0352
   28MOL   N34214436   0.640   4.386   6.824 -0.2678 -0.2677 -0.4822
   28MOL   C34314437   0.585   4.321   6.934  0.3969  0.1660  0.2414
   28MOL   C34414438   0.578   4.403   7.042 -0.0136 -0.3281  0.7472
   28MOL   C34514439   0.532   4.354   7.168  0.0196  0.5308 -0.1097
   28MOL   C34614440   0.492   4.221   7.190 -0.5869 -0.5863 -0.0467
   28MOL   C34714441   0.496   4.140   7.079  0.2494 -0.5295 -0.1196
   28MOL   C34814442   0.545   4.187   6.955 -0.1595 -0.3449  0.1128
   28MOL   C34914443   0.628   4.537   7.003 -0.1355 -0.0856  0.2088
   28MOL   C35014444   0.666   4.515   6.868  0.0970 -0.5164  0.5976
   28MOL   C35114445   0.738   4.626   6.802  0.9811  0.9127 -0.0429
   28MOL   C35214446   0.761   4.744   6.873  0.5059  0.1576 -0.1136
   28MOL   C35314447   0.717   4.770   7.004  0.0064 -0.2907 -0.1495
   28MOL   C35414448   0.655   4.659   7.069  0.8690 -0.6108 -0.3714
   28MOL   H35514449   0.824   4.429   6.606  0.1538  0.0462  0.5397
   28MOL   H35614450   0.828   4.264   6.571 -0.3122 -2.2433  2.3329
   28MOL   H35714451   0.632   4.229   6.696 -1.9545  0.4204  2.9359
   28MOL   H35814452   0.538   4.427   7.247  2.3403 -0.5092  0.7191
   28MOL   H35914453   0.453   4.182   7.282 -2.4783 -1.8296 -1.3548
   28MOL   H36014454   0.470   4.036   7.091 -0.4971 -0.1552  1.5800
   28MOL   H36114455   0.544   4.118   6.872 -3.2783 -1.0337  0.6730
   28MOL   H36214456   0.762   4.615   6.697  1.1611 -1.5219  0.2158
   28MOL   H36314457   0.820   4.813   6.815 -0.9124  0.7226 -0.9108
   28MOL   H36414458   0.744   4.864   7.049  0.6904 -0.1620 -0.8047
   28MOL   H36514459   0.639   4.656   7.176 -3.2052 -2.5437 -0.9566
   28MOL   C36614460   0.585   4.378   6.564  0.3745  0.0729  1.2520
   28MOL   C36714461   0.431   4.377   6.582  0.6674 -0.2653 -0.3228
   28MOL   N36814462   0.362   4.472   6.493 -0.4479  0.3475 -0.1321
   28MOL   C36914463   0.256   4.554   6.535 -0.2070 -0.0916  0.7686
   28MOL   C37014464   0.201   4.631   6.431  0.0348 -0.0220 -0.2546
   28MOL   C37114465   0.099   4.723   6.470  0.3739  0.5213 -0.4886
   28MOL   C37214466   0.057   4.744   6.602  0.6959 -0.1127 -0.7030
   28MOL   C37314467   0.105   4.660   6.705  0.2464  0.2462  0.0674
   28MOL   C37414468   0.198   4.560   6.668 -0.0063  0.8832  0.9214
   28MOL   C37514469   0.280   4.605   6.316 -0.4217 -0.4214  0.2074
   28MOL   C37614470   0.383   4.513   6.357  0.4209 -0.2751 -0.1302
   28MOL   C37714471   0.486   4.470   6.272 -0.5751 -0.4198 -0.5343
   28MOL   C37814472   0.485   4.514   6.138  0.2764  0.1755  0.1124
   28MOL   C37914473   0.382   4.597   6.095 -0.1463 -0.4487 -0.6056
   28MOL   C38014474   0.289   4.648   6.184 -0.5445  0.7085  0.5546
   28MOL   H38114475   0.611   4.483   6.548  1.6033 -0.4603 -0.3674
   28MOL   H38214476   0.618   4.317   6.480  0.0433  1.7058 -0.0908
   28MOL   H38314477   0.424   4.431   6.676 -2.9328 -1.7433  0.3217
   28MOL   H38414478   0.059   4.782   6.389 -1.0036 -1.2377 -1.1352
   28MOL   H38514479   8.212   4.820   6.628  1.3349  1.4691 -3.3509
   28MOL   H38614480   0.066   4.664   6.806 -0.5653 -1.6978 -0.1505
   28MOL   H38714481   0.237   4.508   6.755  0.5156  2.6586  1.7766
   28MOL   H38814482   0.569   4.410   6.306 -1.4967 -2.2192 -1.4008
   28MOL   H38914483   0.543   4.461   6.064  0.6721  1.1253 -0.2616
   28MOL   H39014484   0.371   4.627   5.991 -0.4920 -2.8948 -1.2998
   28MOL   H39114485   0.220   4.719   6.141 -0.9019  1.0241  1.6086
   28MOL   C39214486   0.373   4.233   6.589  0.7202 -0.3206  0.2522
   28MOL   C39314487   0.384   4.145   6.455  0.5394 -0.4395 -0.2550
   28MOL   N39414488   0.515   4.080   6.449  0.1484 -0.0498  0.3212
   28MOL   C39514489   0.605   4.095   6.339  0.0472 -0.0829 -0.2745
   28MOL   C39614490   0.726   4.039   6.375 -0.2822  0.6333  0.2391
   28MOL   C39714491   0.833   4.051   6.287  0.4485 -0.3296 -0.0081
   28MOL   C39814492   0.817   4.111   6.160  0.4192 -0.4784  0.1291
   28MOL   C39914493   0.694   4.165   6.119  0.5957 -0.4372  0.0575
   28MOL   C40014494   0.588   4.156   6.211  0.2589 -0.4352  1.0440
   28MOL   C40114495   0.711   3.983   6.510 -0.5478 -0.8763 -0.2563
   28MOL   C40214496   0.575   3.996   6.548 -0.3388 -0.2351  0.5994
   28MOL   C40314497   0.523   3.933   6.663 -0.3323 -0.2838  0.1333
   28MOL   C40414498   0.608   3.860   6.745  0.0720 -0.0678 -0.4439
   28MOL   C40514499   0.747   3.854   6.715  0.0757  0.7566  0.3881
   28MOL   C40614500   0.799   3.914   6.598 -0.3178  0.1079  0.7094
   28MOL   H40714501   0.408   4.179   6.677  1.2561 -0.6142 -0.1424
   28MOL   H40814502   0.266   4.250   6.605  0.5307 -0.3029 -1.0105
   28MOL   H40914503   0.375   4.214   6.371  2.0037  1.0712  0.7925
   28MOL   H41014504   0.929   4.011   6.316  0.5712  1.2686  1.9187
   28MOL   H41114505   0.908   4.127   6.104  0.4991  2.6086  1.0224
   28MOL   H41214506   0.691   4.204   6.018  1.5096  0.2412  0.2874
   28MOL   H41314507   0.491   4.186   6.173  0.5437 -1.7274 -0.7947
   28MOL   H41414508   0.420   3.952   6.691  0.1031  3.6878 -0.6518
   28MOL   H41514509   0.564   3.826   6.837 -0.2032  0.1873 -0.4805
   28MOL   H41614510   0.819   3.803   6.777 -0.2756 -1.8198 -1.2552
   28MOL   H41714511   0.905   3.901   6.580 -0.4812  0.4073 -0.4902
   28MOL   C41814512   0.273   4.034   6.460 -0.3780  0.1281  0.4352
   28MOL   C41914513   0.135   4.068   6.392 -0.0486 -0.9956 -0.9301
   28MOL   N42014514   0.143   4.102   6.255 -0.8280  0.4160  0.2032
   28MOL   C42114515   0.095   4.223   6.203  0.1126 -0.3750 -0.5315
   28MOL   C42214516   0.136   4.237   6.067  0.3554  0.5277  0.2876
   28MOL   C42314517   0.121   4.358   6.000  0.5047 -0.0949  0.0784
   28MOL   C42414518   0.047   4.459   6.062 -0.5877  0.2918  0.4517
   28MOL   C42514519   0.005   4.447   6.196  0.1021 -0.2909 -0.1758
   28MOL   C42614520   0.026   4.324   6.270  0.1206 -0.1075 -0.3062
   28MOL   C42714521   0.187   4.113   6.030 -0.1781 -0.0652 -0.0493
   28MOL   C42814522   0.184   4.029   6.144 -0.0599 -0.1886  0.0032
   28MOL   C42914523   0.230   3.898   6.136 -0.1917  0.1437  0.2808
   28MOL   C43014524   0.272   3.839   6.016  0.2756 -0.2421 -0.3126
   28MOL   C43114525   0.286   3.925   5.910 -0.2623  0.2508 -0.0614
   28MOL   C43214526   0.242   4.060   5.914  0.6344 -0.0796  0.0790
   28MOL   H43314527   0.313   3.940   6.420 -1.0056 -0.5143  1.2992
   28MOL   H43414528   0.253   4.008   6.564  1.6541  1.5521  1.2066
   28MOL   H43514529   0.098   4.153   6.449  1.1516 -1.2812  0.2932
   28MOL   H43614530   0.153   4.366   5.897  0.3469  0.3033  0.0606
   28MOL   H43714531   0.035   4.550   6.006 -2.1571 -0.4422 -0.4535
   28MOL   H43814532   8.178   4.525   6.247  0.8260  0.1277 -0.0334
   28MOL   H43914533   8.219   4.316   6.372  3.2718  2.9066  1.1097
   28MOL   H44014534   0.236   3.840   6.227 -0.5410  1.2827  1.0363
   28MOL   H44114535   0.316   3.740   6.014  1.1927  0.1203  1.1358
   28MOL   H44214536   0.325   3.883   5.819 -2.3545  0.4928 -1.1102
   28MOL   H44314537   0.251   4.122   5.826  1.5018 -0.6597 -0.2461
   28MOL   C44414538   0.026   3.963   6.426 -0.6390 -0.2108 -0.2199
   28MOL   C44514539   8.204   3.950   6.574  0.3392  0.0727 -0.4713
   28MOL   N44614540   8.179   4.089   6.637 -0.5503 -0.0379 -0.2079
   28MOL   C44714541   0.013   4.148   6.758  0.7048 -0.5579 -0.8538
   28MOL   C44814542   8.190   4.279   6.775  0.3279 -1.0978 -0.5355
   28MOL   C44914543   0.009   4.357   6.883 -0.1226 -0.2142 -0.5070
   28MOL   C45014544   0.108   4.305   6.972 -0.5054 -0.0166 -0.8707
   28MOL   C45114545   0.156   4.171   6.961  0.2701  0.1940  0.0491
   28MOL   C45214546   0.109   4.091   6.852 -0.1099 -0.2302 -0.2631
   28MOL   C45314547   8.110   4.305   6.659  0.3294 -0.3340  0.8285
   28MOL   C45414548   8.089   4.187   6.589  0.1599  0.3767  0.3142
   28MOL   C45514549   8.003   4.181   6.481  0.3415  0.0582 -0.2605
   28MOL   C45614550   7.929   4.294   6.431 -0.6420  0.5318  0.4917
   28MOL   C45714551   7.950   4.415   6.501 -0.0793  0.2326  0.2074
   28MOL   C45814552   8.041   4.418   6.611  0.3422 -0.6772  0.0035
   28MOL   H45914553   8.163   3.988   6.370 -1.4406 -3.9003 -0.7440
   28MOL   H46014554   0.052   3.866   6.383  0.7508  0.5046 -1.0591
   28MOL   H46114555   0.064   3.918   6.631  0.4075 -2.3346 -1.8596
   28MOL   H46214556   8.206   4.461   6.890  1.4524  0.2202  0.2232
   28MOL   H46314557   0.140   4.360   7.059  0.3078  1.1469 -1.8806
   28MOL   H46414558   0.217   4.126   7.038 -1.9776  1.4004  2.6393
   28MOL   H46514559   0.155   3.994   6.848  2.1906  0.7001  2.0339
   28MOL   H46614560   7.986   4.086   6.434 -0.9986  0.0879  0.1239
   28MOL   H46714561   7.863   4.284   6.346  1.0201 -2.9027 -0.4680
   28MOL   H46814562   7.885   4.499   6.483  0.4934  0.8311  0.9233
   28MOL   H46914563   8.065   4.510   6.663 -1.4847 -0.3654  0.3124
   28MOL   C47014564   8.087   3.858   6.599 -0.3668  0.7224 -0.8215
   28MOL   C47114565   8.114   3.702   6.585  0.1153 -0.1445  0.0298
   28MOL   N47214566   0.028   3.662   6.618 -0.2484  0.6031  0.2963
   28MOL   C47314567   0.126   3.626   6.520  0.7329 -0.6808 -0.0928
   28MOL   C47414568   0.252   3.618   6.579  0.2772 -0.0238 -0.6905
   28MOL   C47514569   0.363   3.596   6.498  0.5581 -0.1109  0.3966
   28MOL   C47614570   0.349   3.570   6.358 -0.3279 -0.7027  0.1726
   28MOL   C47714571   0.221   3.571   6.303 -0.1319 -0.2670 -0.1542
   28MOL   C47814572   0.109   3.598   6.387 -0.3531 -0.2394  0.3658
   28MOL   C47914573   0.230   3.643   6.720  0.4743 -0.1954  0.3781
   28MOL   C48014574   0.090   3.664   6.743 -0.2503  0.6772 -1.0071
   28MOL   C48114575   0.046   3.704   6.876 -0.3736 -0.6675 -0.1969
   28MOL   C48214576   0.134   3.717   6.989 -0.2725 -0.0160 -0.4495
   28MOL   C48314577   0.274   3.694   6.964 -1.1331  0.3308  0.3150
   28MOL   C48414578   0.314   3.661   6.833 -0.4003 -0.8758 -0.2428
   28MOL   H48514579   8.070   3.880   6.704  1.8014  2.4886 -0.8198
   28MOL   H48614580   7.998   3.873   6.537 -2.7159  2.4963  2.7905
   28MOL   H48714581   8.107   3.691   6.477 -0.6457  0.4855  0.0052
   28MOL   H48814582   0.461   3.597   6.542 -0.2179  0.9645  2.1832
   28MOL   H48914583   0.434   3.551   6.293 -2.0193  0.1403 -2.3257
   28MOL   H49014584   0.207   3.556   6.197  0.9435 -1.6664 -0.1191
   28MOL   H49114585   0.014   3.613   6.338 -0.1677 -0.4152 -0.0482
   28MOL   H49214586   8.169   3.724   6.892 -1.1927 -3.0498 -2.1332
   28MOL   H49314587   0.093   3.743   7.085 -0.5348  0.6137 -0.7308
   28MOL   H49414588   0.356   3.704   7.033  0.3540 -1.4008 -1.1248
   28MOL   H49514589   0.420   3.640   6.824 -0.3516 -0.8306  0.2126
   28MOL   C49614590   8.013   3.612   6.658 -0.0421 -0.3421  0.3601
   28MOL   C49714591   7.989   3.476   6.592  0.1691  0.3726 -0.1034
   28MOL   N49814592   7.884   3.495   6.493 -0.3339  0.1764 -0.1555
   28MOL   C49914593   7.748   3.519   6.524  0.8425 -0.0568 -0.2535
   28MOL   C50014594   7.674   3.544   6.407 -0.2432 -0.3148  0.4232
   28MOL   C50114595   7.539   3.588   6.413  0.3433  0.4109 -0.0487
   28MOL   C50214596   7.472   3.597   6.539 -0.0863  0.3197  0.5534
   28MOL   C50314597   7.545   3.568   6.653 -0.3517  0.7030 -0.0568
   28MOL   C50414598   7.680   3.534   6.646 -0.0758 -0.1079  0.8432
   28MOL   C50514599   7.759   3.513   6.294 -0.2698  0.6348  0.2329
   28MOL   C50614600   7.887   3.478   6.351 -0.1785 -0.1034 -0.2624
   28MOL   C50714601   7.993   3.438   6.273  0.6715  0.4290 -0.2509
   28MOL   C50814602   7.978   3.426   6.134  1.3944  1.1243 -0.1185
   28MOL   C50914603   7.857   3.466   6.074 -0.1619 -0.9562 -0.0624
   28MOL   C51014604   7.752   3.509   6.157  0.1976 -0.0616 -0.2965
   28MOL   H51114605   8.043   3.577   6.757  0.0384  0.1851  0.5217
   28MOL   H51214606   7.924   3.674   6.654 -0.0355 -0.3752 -0.4830
   28MOL   H51314607   7.968   3.399   6.666  2.4660 -0.3148 -0.1406
   28MOL   H51414608   7.486   3.616   6.323  1.3127  2.6809  0.0552
   28MOL   H51514609   7.366   3.618   6.542 -0.9360 -3.1849 -1.6330
   28MOL   H51614610   7.484   3.581   6.741  0.2631 -0.1185  0.5032
   28MOL   H51714611   7.730   3.530   6.742 -1.0478  0.8647  1.4080
   28MOL   H51814612   8.091   3.430   6.317  3.0943  5.1956 -4.2996
   28MOL   H51914613   8.054   3.386   6.069  0.6450  2.1396 -1.6533
   28MOL   H52014614   7.839   3.465   5.968  1.7382  0.5009 -0.4326
   28MOL   H52114615   7.662   3.545   6.111  0.5389  0.3377 -0.6528
   28MOL   H52214616   8.086   3.445   6.553  0.7555  1.7611  0.2373
   29MOL     C114617   0.018   4.947   7.635  0.2836  0.0232  0.0650
   29MOL     C214618   0.015   4.792   7.655 -0.0173  0.1689  0.2755
   29MOL     N314619   0.045   4.751   7.796  0.4232  0.4837 -0.4777
   29MOL     C414620   0.155   4.679   7.844 -1.1576 -0.0545  0.0809
   29MOL     C514621   0.134   4.655   7.986  0.7400  0.1598  0.3393
   29MOL     C614622   0.227   4.588   8.062  0.7640 -0.2852  0.1215
   29MOL     C714623   0.339   4.533   8.001 -0.1291  0.1296 -0.1001
   29MOL     C814624   0.363   4.548   7.862  0.5239 -0.5209  0.1965
   29MOL     C914625   0.269   4.623   7.782 -0.0249  0.0386 -0.1268
   29MOL    C1014626   0.009   4.712   8.019  0.2486 -0.0270 -0.3084
   29MOL    C1114627   8.185   4.778   7.907  0.4733 -0.2661 -0.2586
   29MOL    C1214628   8.068   4.856   7.914 -0.1243 -0.9140 -0.1829
   29MOL    C1314629   7.995   4.847   8.037 -0.5460 -0.0966 -0.0462
   29MOL    C1414630   8.042   4.780   8.146 -0.6290 -0.1943 -0.1809
   29MOL    C1514631   8.168   4.722   8.144 -0.2457  0.2348 -0.0228
   29MOL    H1614632   0.008   4.994   7.537  2.6314  1.0715  0.2755
   29MOL    H1714633   0.113   4.990   7.668  1.3612 -1.3886 -1.1158
   29MOL    H1814634   0.089   4.752   7.586  0.5020 -1.5132  1.7853
   29MOL    H1914635   0.206   4.567   8.166  2.6527  0.7462  0.7366
   29MOL    H2014636   0.402   4.471   8.063 -0.9865  0.2232  0.8825
   29MOL    H2114637   0.442   4.494   7.813  0.1698  1.1678 -2.2948
   29MOL    H2214638   0.281   4.619   7.675 -2.4838 -1.3985 -0.3882
   29MOL    H2314639   8.035   4.908   7.826  0.6627 -1.0430 -0.5575
   29MOL    H2414640   7.897   4.891   8.030 -0.1518  0.6979 -0.6880
   29MOL    H2514641   7.980   4.777   0.007 -0.4849  2.0951  0.0389
   29MOL    H2614642   8.213   4.684   0.007  0.3132  0.9689  0.0104
   29MOL    H2714643   8.169   4.984   7.703 -1.4715  2.8455 -3.3064
   29MOL    C2814644   8.101   4.732   7.609 -0.2501  0.2723 -0.0475
   29MOL    C2914645   8.059   4.764   7.462 -0.1782 -0.1984 -0.3477
   29MOL    N3014646   8.169   4.736   7.361  0.6779 -0.4647 -0.0995
   29MOL    C3114647   8.199   4.824   7.256  0.4587  0.4843  0.0103
   29MOL    C3214648   0.082   4.771   7.187 -0.4779 -0.2011  0.6239
   29MOL    C3314649   0.127   4.834   7.074  0.3403 -0.6464  0.5663
   29MOL    C3414650   0.067   4.946   7.020  0.1900 -0.4554 -0.3875
   29MOL    C3514651   8.186   5.006   7.095  0.5049  0.5884 -0.2299
   29MOL    C3614652   8.137   4.944   7.207 -0.0017  0.0383 -0.1507
   29MOL    C3714653   0.123   4.650   7.251  0.6496  0.0668 -0.1593
   29MOL    C3814654   0.029   4.627   7.355  0.1944 -0.0100 -0.2246
   29MOL    C3914655   0.035   4.509   7.438  0.2732  0.4020 -0.6449
   29MOL    C4014656   0.134   4.410   7.415 -0.3709  0.0081  0.0935
   29MOL    C4114657   0.221   4.430   7.310 -0.4224 -0.0206 -0.6590
   29MOL    C4214658   0.220   4.554   7.237  0.2050 -0.3733  0.1849
   29MOL    H4314659   8.094   4.629   7.644  1.4090  0.1933  0.0863
   29MOL    H4414660   8.025   4.778   7.672  0.5831 -1.7066  2.4680
   29MOL    H4514661   8.046   4.872   7.461  1.7702  0.0414 -1.7476
   29MOL    H4614662   0.207   4.800   7.009 -1.4685 -2.5735 -0.7185
   29MOL    H4714663   0.110   4.992   6.933  0.0317  0.2662 -0.0896
   29MOL    H4814664   8.144   5.097   7.055 -0.2957  0.4956  0.3843
   29MOL    H4914665   8.053   4.989   7.258  0.7475  0.0296  1.0909
   29MOL    H5014666   8.198   4.501   7.524  2.8090  1.1528  1.3840
   29MOL    H5114667   0.146   4.323   7.479 -0.6084  0.0222  0.1586
   29MOL    H5214668   0.300   4.358   7.294  2.5149  2.7637  0.7444
   29MOL    H5314669   0.294   4.572   7.161  0.8274  3.3565  1.5597
   29MOL    C5414670   7.925   4.695   7.426  0.0803 -0.1675  0.5158
   29MOL    C5514671   7.794   4.753   7.495 -0.7616  0.2281  0.9233
   29MOL    N5614672   7.789   4.898   7.489 -0.5742  0.1271  0.2456
   29MOL    C5714673   7.780   4.979   7.604 -0.1286  0.4577 -0.0874
   29MOL    C5814674   7.774   5.109   7.565 -0.5070  0.0382 -0.8099
   29MOL    C5914675   7.762   5.205   7.668 -0.0013 -0.9958 -0.2252
   29MOL    C6014676   7.756   5.174   7.803  0.0461  0.1963 -0.5445
   29MOL    C6114677   7.749   5.034   7.838 -0.8732 -0.2338  1.0119
   29MOL    C6214678   7.770   4.935   7.739  0.1745  0.3636 -0.2204
   29MOL    C6314679   7.784   5.115   7.418  0.1642  0.4392 -0.6768
   29MOL    C6414680   7.781   4.983   7.372  0.0727  0.3485 -0.3999
   29MOL    C6514681   7.780   4.958   7.231 -0.1364  0.5626 -0.0345
   29MOL    C6614682   7.760   5.063   7.141  0.0087 -1.0458  0.1642
   29MOL    C6714683   7.755   5.195   7.189 -0.3344  0.4650  0.0667
   29MOL    C6814684   7.786   5.221   7.325 -0.3389  0.1075 -0.0145
   29MOL    H6914685   7.912   4.714   7.319  0.1893 -1.2342  0.3106
   29MOL    H7014686   7.924   4.588   7.448 -2.2831 -0.1706  0.5093
   29MOL    H7114687   7.810   4.727   7.600  1.3817 -0.5546  0.4270
   29MOL    H7214688   7.761   5.310   7.642  1.7300 -1.1658 -1.0856
   29MOL    H7314689   7.770   5.252   7.877 -2.4896  1.9135 -1.7890
   29MOL    H7414690   7.746   5.009   7.943  3.0007 -1.3229  0.9485
   29MOL    H7514691   7.773   4.832   7.770 -4.3026  0.3271  0.4362
   29MOL    H7614692   7.774   4.858   7.191 -0.0086  1.1056 -1.4201
   29MOL    H7714693   7.746   5.035   7.038  0.8141 -1.7850  0.2515
   29MOL    H7814694   7.750   5.279   7.121  1.9459  1.2191  0.7895
   29MOL    H7914695   7.790   5.325   7.354 -0.3276 -0.5299  2.3109
   29MOL    C8014696   7.664   4.689   7.433  0.2508  0.1209 -0.4456
   29MOL    C8114697   7.535   4.750   7.494  0.0250  0.1060  0.5829
   29MOL    N8214698   7.477   4.859   7.415 -0.4220 -0.0303 -0.5595
   29MOL    C8314699   7.451   4.985   7.461  0.5318  0.0552 -0.6795
   29MOL    C8414700   7.390   5.065   7.358 -0.0844  0.1649 -0.5380
   29MOL    C8514701   7.363   5.198   7.385  0.5488  0.4639  0.0833
   29MOL    C8614702   7.386   5.254   7.512 -0.1623  0.5155  0.4844
   29MOL    C8714703   7.438   5.174   7.612 -0.0522  0.6418  0.4967
   29MOL    C8814704   7.461   5.038   7.589 -0.6539  0.0617 -0.1488
   29MOL    C8914705   7.375   4.975   7.246  0.9268 -0.0274  0.0137
   29MOL    C9014706   7.426   4.850   7.288  0.5484  0.2412 -0.2738
   29MOL    C9114707   7.429   4.745   7.194 -0.2548  0.6672  0.0220
   29MOL    C9214708   7.379   4.755   7.064 -0.0344 -0.3354  0.1760
   29MOL    C9314709   7.317   4.873   7.030  0.1563 -0.6740  0.1759
   29MOL    C9414710   7.311   4.985   7.118 -0.4545  0.0121  0.7288
   29MOL    H9514711   7.662   4.702   7.325 -0.0152  0.1507 -0.4363
   29MOL    H9614712   7.662   4.581   7.444  2.0575 -0.1539 -2.4721
   29MOL    H9714713   7.564   4.792   7.590 -1.8804 -2.7129  2.4649
   29MOL    H9814714   7.329   5.264   7.306  0.9944  0.1109 -0.4012
   29MOL    H9914715   7.377   5.358   7.538  2.2583  1.3175 -1.6297
   29MOL   H10014716   7.454   5.213   7.712 -1.7503  1.5899  0.4226
   29MOL   H10114717   7.506   4.977   7.666  1.2368 -0.4060 -1.5804
   29MOL   H10214718   7.458   4.644   7.220  2.7449  0.6016 -3.2755
   29MOL   H10314719   7.380   4.673   6.993 -0.7533 -0.2050  0.0128
   29MOL   H10414720   7.277   4.882   6.930  0.2006 -1.3878  0.0866
   29MOL   H10514721   7.257   5.072   7.084  1.7610  1.0037 -0.3869
   29MOL   C10614722   7.424   4.651   7.524  0.1144 -0.3039 -0.2041
   29MOL   C10714723   7.450   4.543   7.629  0.2915 -0.3554  0.5596
   29MOL   N10814724   7.548   4.584   7.732 -0.2446 -0.4101 -0.4423
   29MOL   C10914725   7.679   4.535   7.751  0.2160 -0.2895  0.8803
   29MOL   C11014726   7.731   4.580   7.877 -0.1527 -0.2557  0.2523
   29MOL   C11114727   7.860   4.530   7.922 -0.5806 -0.5464  0.1338
   29MOL   C11214728   7.918   4.422   7.854 -0.0744 -0.1992 -0.1003
   29MOL   C11314729   7.861   4.383   7.729 -0.3018 -0.0583  0.5173
   29MOL   C11414730   7.745   4.437   7.676 -0.3949  0.6740  0.0914
   29MOL   C11514731   7.635   4.673   7.925  0.7768  0.4273 -0.5410
   29MOL   C11614732   7.529   4.682   7.828  0.2059 -0.3136 -0.9116
   29MOL   C11714733   7.436   4.786   7.845  0.7520 -0.1469  0.6249
   29MOL   C11814734   7.444   4.880   7.948  0.0892 -0.0435  0.2723
   29MOL   C11914735   7.536   4.861   8.055  0.2460  0.4178 -0.1195
   29MOL   C12014736   7.628   4.763   8.036  0.2601  0.1488 -0.1393
   29MOL   H12114737   7.338   4.713   7.546 -1.0688 -1.8632 -0.2863
   29MOL   H12214738   7.392   4.599   7.434  0.8510  0.9696 -1.2008
   29MOL   H12314739   7.485   4.456   7.574 -1.2627 -0.2084 -0.6964
   29MOL   H12414740   7.901   4.558   8.018 -1.0935 -0.8600  0.4491
   29MOL   H12514741   8.007   4.365   7.876  1.0354  1.3377 -0.4690
   29MOL   H12614742   7.910   4.302   7.676  1.1295  1.5226 -0.6523
   29MOL   H12714743   7.691   4.396   7.592  0.7848 -0.7831  0.0326
   29MOL   H12814744   7.357   4.800   7.773 -0.1580  2.5762  2.0581
   29MOL   H12914745   7.380   4.967   7.944  0.8351  0.4783 -0.2803
   29MOL   H13014746   7.543   4.913   8.149  0.3443  1.1049 -0.5104
   29MOL   H13114747   7.709   4.759   8.107  1.6079 -0.6205 -1.6867
   29MOL   C13214748   7.311   4.493   7.690 -0.0495  0.3009 -0.2911
   29MOL   C13314749   7.324   4.344   7.739  0.5246 -0.3100 -0.0320
   29MOL   N13414750   7.241   4.323   7.865 -0.3911  0.1473 -0.4140
   29MOL   C13514751   7.272   4.250   7.980 -0.2884 -0.3160  0.0852
   29MOL   C13614752   7.168   4.268   8.075  0.2606 -0.3536  0.5012
   29MOL   C13714753   7.174   4.209   8.205  0.6886  0.4253  0.4865
   29MOL   C13814754   7.286   4.132   0.010  0.3319 -0.2855 -0.0787
   29MOL   C13914755   7.382   4.109   8.139 -0.5934 -0.1955  0.5878
   29MOL   C14014756   7.377   4.171   8.008  0.4016  0.6255 -0.2573
   29MOL   C14114757   7.062   4.347   8.014 -0.0623  0.1480 -0.1277
   29MOL   C14214758   7.105   4.368   7.882  0.1941  0.0523 -0.5434
   29MOL   C14314759   7.010   4.411   7.786 -0.8629 -0.5866 -0.0821
   29MOL   C14414760   6.881   4.457   7.832 -0.7310  0.3162  0.3675
   29MOL   C14514761   6.847   4.452   7.968 -0.3876  0.3124 -0.2892
   29MOL   C14614762   6.932   4.390   8.057  0.0950  0.1176  0.0582
   29MOL   H14714763   7.292   4.560   7.774 -1.4397 -1.9604  1.2707
   29MOL   H14814764   7.235   4.505   7.612  1.2638  2.6483 -1.2508
   29MOL   H14914765   7.427   4.326   7.768  0.9890  0.1209 -1.3470
   29MOL   H15014766   7.091   4.229   0.043  0.0145 -2.0351  0.4280
   29MOL   H15114767   7.316   4.088   0.104  2.3905  2.6552  0.7400
   29MOL   H15214768   7.449   4.026   8.159 -1.8885 -1.9129 -1.9551
   29MOL   H15314769   7.447   4.136   7.934 -0.2687 -0.7751 -0.2578
   29MOL   H15414770   7.042   4.412   7.683 -2.3522 -2.8890 -0.5944
   29MOL   H15514771   6.812   4.502   7.762 -0.1443  0.8338  0.1245
   29MOL   H15614772   6.752   4.493   7.998 -0.3802 -0.7028  1.1896
   29MOL   H15714773   6.894   4.361   8.154  2.2329 -1.5274  0.4565
   29MOL   C15814774   7.279   4.242   7.634  1.0414  0.1327  0.0269
   29MOL   C15914775   7.337   4.229   7.491  0.2513  0.6672 -0.1409
   29MOL   N16014776   7.481   4.197   7.485  0.2433  0.1812  0.3290
   29MOL   C16114777   7.567   4.245   7.389  0.2315  0.2686 -1.1466
   29MOL   C16214778   7.694   4.184   7.408  0.0234  0.3831 -0.1387
   29MOL   C16314779   7.799   4.218   7.324 -0.4607  0.0057  0.2676
   29MOL   C16414780   7.789   4.311   7.221  0.4404 -0.0850  0.9210
   29MOL   C16514781   7.662   4.374   7.203 -0.0097 -0.0486  0.2062
   29MOL   C16614782   7.553   4.343   7.290 -0.1374  0.1069  0.0414
   29MOL   C16714783   7.688   4.093   7.517  0.3696 -0.2573 -0.8971
   29MOL   C16814784   7.547   4.096   7.562  0.4189 -0.6130  0.9643
   29MOL   C16914785   7.507   4.007   7.664 -0.4839 -0.3946 -0.2098
   29MOL   C17014786   7.602   3.927   7.734 -0.8171  0.6360  0.1664
   29MOL   C17114787   7.728   3.920   7.686 -0.1267  0.2978  0.2129
   29MOL   C17214788   7.775   3.997   7.573 -0.3785  0.2092 -0.3940
   29MOL   H17314789   7.270   4.147   7.685  3.4677  0.0882  0.4609
   29MOL   H17414790   7.175   4.272   7.626  1.1429  0.8955  1.4859
   29MOL   H17514791   7.325   4.324   7.438 -1.1082  0.8928  0.5758
   29MOL   H17614792   7.896   4.173   7.340 -0.7813 -1.1123 -0.7588
   29MOL   H17714793   7.881   4.320   7.166  0.1805 -0.5424  0.4025
   29MOL   H17814794   7.660   4.457   7.134 -1.1597  0.4413  0.8134
   29MOL   H17914795   7.461   4.397   7.278 -1.1845 -1.3453  1.2595
   29MOL   H18014796   7.406   3.998   7.700 -0.1375 -0.8088  0.6887
   29MOL   H18114797   7.565   3.853   7.803 -0.5819 -0.4494 -0.8664
   29MOL   H18214798   7.794   3.853   7.740 -0.3824  1.0474  1.4692
   29MOL   H18314799   7.879   3.993   7.544 -0.3951  2.2668 -0.7976
   29MOL   C18414800   7.267   4.124   7.409 -0.0595 -0.4896 -0.1734
   29MOL   C18514801   7.134   4.151   7.342  0.1734 -0.7344  0.7543
   29MOL   N18614802   7.136   4.263   7.248 -0.1631 -0.6871 -0.1142
   29MOL   C18714803   7.081   4.389   7.269  0.0252 -0.3661  0.3446
   29MOL   C18814804   7.117   4.474   7.163  0.5127 -0.1012  0.3253
   29MOL   C18914805   7.079   4.610   7.165  0.2566 -0.8292 -0.4802
   29MOL   C19014806   7.008   4.662   7.278  0.5168  0.6737  0.6835
   29MOL   C19114807   6.973   4.580   7.384 -0.0293  0.3086  1.0705
   29MOL   C19214808   7.011   4.437   7.380 -0.2929 -0.1596 -0.1076
   29MOL   C19314809   7.189   4.389   7.067 -0.0083 -0.7603  0.0304
   29MOL   C19414810   7.208   4.262   7.125  0.5547 -0.5353 -0.0976
   29MOL   C19514811   7.285   4.157   7.069  0.3232  0.0810  0.3839
   29MOL   C19614812   7.325   4.184   6.939  0.2112  0.1579  0.4973
   29MOL   C19714813   7.303   4.301   6.868  0.3120  0.7154  0.6316
   29MOL   C19814814   7.236   4.401   6.936  0.8725 -0.0436 -0.4885
   29MOL   H19914815   7.333   4.075   7.338  0.3654 -0.3072  0.0932
   29MOL   H20014816   7.250   4.034   7.468  1.2657 -0.5580  0.1155
   29MOL   H20114817   7.071   4.184   7.425 -0.1885  0.6121 -0.0364
   29MOL   H20214818   7.108   4.681   7.090  3.0297  0.8183  2.0509
   29MOL   H20314819   6.991   4.768   7.272  1.3247  0.7509 -0.2679
   29MOL   H20414820   6.930   4.623   7.473  1.7748  1.0567  1.6077
   29MOL   H20514821   6.991   4.374   7.465 -3.2832  1.6743  0.6077
   29MOL   H20614822   7.308   4.065   7.119 -0.8510  0.6192  1.9450
   29MOL   H20714823   7.382   4.105   6.892  1.7441  2.6833 -2.0652
   29MOL   H20814824   7.341   4.311   6.767 -0.1397 -0.1420  0.3713
   29MOL   H20914825   7.215   4.498   6.894  0.0832 -0.4477 -1.0326
   29MOL   C21014826   7.065   4.025   7.295  0.2876  0.6173  0.0715
   29MOL   C21114827   7.029   3.911   7.394  0.1409 -0.2550 -1.0531
   29MOL   N21214828   6.988   3.966   7.525 -0.8983  0.5500  0.0065
   29MOL   C21314829   7.058   3.943   7.655 -0.7885  0.2011  0.0847
   29MOL   C21414830   6.979   4.007   7.757 -0.5411 -0.2894 -0.0127
   29MOL   C21514831   7.010   3.988   7.891 -0.4567 -0.1417 -0.3904
   29MOL   C21614832   7.127   3.913   7.926  0.0843  0.4396 -0.6424
   29MOL   C21714833   7.218   3.863   7.824  0.4396 -0.5257 -0.4695
   29MOL   C21814834   7.176   3.876   7.691 -0.0905 -0.1357  0.3467
   29MOL   C21914835   6.875   4.076   7.688 -0.0380 -0.0402  0.0739
   29MOL   C22014836   6.874   4.041   7.548  0.0191 -0.1570 -0.4691
   29MOL   C22114837   6.771   4.088   7.467  0.0480  0.0514  0.2996
   29MOL   C22214838   6.677   4.178   7.512 -0.1702 -0.1820 -0.4197
   29MOL   C22314839   6.674   4.213   7.642 -0.0539 -0.3550 -0.1508
   29MOL   C22414840   6.765   4.159   7.734  0.0052 -0.5968 -0.0698
   29MOL   H22514841   6.972   4.040   7.241  0.8274  1.8459 -0.5242
   29MOL   H22614842   7.129   3.986   7.216  1.8482  1.1396  1.0431
   29MOL   H22714843   7.120   3.853   7.410  0.1679 -0.0736 -0.5304
   29MOL   H22814844   6.941   4.025   7.966 -0.6598  1.9424 -1.5715
   29MOL   H22914845   7.160   3.882   8.024  1.1552  1.9022 -0.5302
   29MOL   H23014846   7.307   3.810   7.855 -0.1142 -1.2645 -0.1112
   29MOL   H23114847   7.238   3.822   7.621 -0.4757 -1.0298  0.6813
   29MOL   H23214848   6.767   4.064   7.362  3.2719 -2.8140  0.7493
   29MOL   H23314849   6.600   4.208   7.442  0.1770 -0.1580 -0.7921
   29MOL   H23414850   6.601   4.288   7.670  0.7126 -0.2072  1.5240
   29MOL   H23514851   6.752   4.190   7.836 -1.2933 -1.4805  0.0500
   29MOL   C23614852   6.933   3.798   7.349 -0.3605  0.2412 -0.0131
   29MOL   C23714853   6.983   3.711   7.231 -0.1972  0.1622 -0.0328
   29MOL   N23814854   7.116   3.646   7.257  0.3402  0.0607  0.3502
   29MOL   C23914855   7.238   3.677   7.199  0.1225 -0.0748 -0.6685
   29MOL   C24014856   7.337   3.585   7.243 -0.0087 -0.1449  0.4602
   29MOL   C24114857   7.467   3.595   7.188  0.7684  0.4543  0.2763
   29MOL   C24214858   7.501   3.690   7.087 -0.3566  0.0304 -0.5936
   29MOL   C24314859   7.404   3.785   7.048  0.5947 -0.1349 -0.1605
   29MOL   C24414860   7.272   3.774   7.107 -0.3863 -0.0156  0.1857
   29MOL   C24514861   7.269   3.504   7.337  0.3252  0.1145 -0.7638
   29MOL   C24614862   7.135   3.538   7.337  0.0600  0.4010  0.1756
   29MOL   C24714863   7.043   3.463   7.422  0.1962  0.2172  0.2201
   29MOL   C24814864   7.094   3.359   7.506  0.5082 -0.4896  0.3424
   29MOL   C24914865   7.229   3.333   7.498 -0.5996 -0.3422  0.1783
   29MOL   C25014866   7.314   3.405   7.419  0.1934 -0.3183  0.6070
   29MOL   H25114867   6.916   3.721   7.425  3.3516  1.2545  1.9654
   29MOL   H25214868   6.834   3.837   7.323 -1.0602 -1.3331  0.1770
   29MOL   H25314869   7.003   3.785   7.152 -2.7534  1.3013  0.3299
   29MOL   H25414870   7.542   3.527   7.225 -1.4035 -0.5095  3.1076
   29MOL   H25514871   7.600   3.690   7.045  0.2569 -2.3847  0.7373
   29MOL   H25614872   7.428   3.864   6.979 -1.2383  0.3532 -0.2748
   29MOL   H25714873   7.200   3.843   7.066 -1.0358  0.2735  1.7846
   29MOL   H25814874   6.938   3.489   7.420  0.4375  1.1765 -1.6539
   29MOL   H25914875   7.032   3.286   7.555  0.9906 -2.0073 -1.2931
   29MOL   H26014876   7.277   3.256   7.557  1.9025  0.7817 -0.3217
   29MOL   H26114877   7.420   3.385   7.411  0.2718  0.5072 -0.5065
   29MOL   C26214878   6.876   3.609   7.182 -0.3384  0.1477  0.7228
   29MOL   C26314879   6.775   3.662   7.073  0.2661 -0.0835 -0.4650
   29MOL   N26414880   6.840   3.734   6.965 -0.1900  0.0695  0.3349
   29MOL   C26514881   6.851   3.872   6.948 -0.8957 -0.1683 -0.0729
   29MOL   C26614882   6.940   3.898   6.838 -0.1750  0.2138 -0.1450
   29MOL   C26714883   6.977   4.031   6.814  0.0726 -0.0635  0.1739
   29MOL   C26814884   6.925   4.138   6.881  0.3211 -0.3037 -0.0265
   29MOL   C26914885   6.835   4.110   6.987  0.1473  0.1063  0.3018
   29MOL   C27014886   6.792   3.976   7.019 -0.4596 -0.1969  0.1951
   29MOL   C27114887   6.981   3.772   6.785  0.1734 -0.3816 -0.2253
   29MOL   C27214888   6.919   3.673   6.863  0.2275  0.6266  0.6929
   29MOL   C27314889   6.949   3.539   6.837  0.2747 -0.4612 -0.4258
   29MOL   C27414890   7.019   3.502   6.724 -0.6171 -0.3665  0.5118
   29MOL   C27514891   7.072   3.604   6.643 -0.4056 -0.2905 -0.5314
   29MOL   C27614892   7.061   3.739   6.677 -0.8382  0.0830 -0.1395
   29MOL   H27714893   6.934   3.541   7.119  1.8507  1.7606  0.9031
   29MOL   H27814894   6.831   3.544   7.256 -2.9978  1.0012 -0.1120
   29MOL   H27914895   6.715   3.741   7.118  0.7906 -0.3938  0.7853
   29MOL   H28014896   7.050   4.062   6.741 -2.3769  2.1785 -1.4121
   29MOL   H28114897   6.951   4.239   6.853  0.5973  0.1299  1.7027
   29MOL   H28214898   6.798   4.190   7.050  2.4512  1.6354 -0.2462
   29MOL   H28314899   6.718   3.967   7.096  0.8649 -2.6567  1.2320
   29MOL   H28414900   6.918   3.457   6.900 -0.6614  0.3733  0.2268
   29MOL   H28514901   7.032   3.396   6.712  1.7644 -0.3522  2.5802
   29MOL   H28614902   7.120   3.584   6.548  0.0934 -2.0054  0.0600
   29MOL   H28714903   7.102   3.819   6.617  0.6336 -0.8231 -0.3599
   29MOL   C28814904   6.680   3.547   7.021  0.5687  0.5674  0.4074
   29MOL   C28914905   6.529   3.597   7.041  0.2522  0.1119 -0.4284
   29MOL   N29014906   6.496   3.726   6.988  0.2960 -0.4159  0.1075
   29MOL   C29114907   6.465   3.843   7.060  0.7199 -0.6948 -0.2302
   29MOL   C29214908   6.456   3.955   6.968 -0.3205  0.6808  0.9763
   29MOL   C29314909   6.432   4.085   7.021  0.3748  0.2186 -0.2747
   29MOL   C29414910   6.417   4.102   7.159  0.5077  0.1587  0.5380
   29MOL   C29514911   6.443   4.000   7.247  0.2661  0.2550 -0.1169
   29MOL   C29614912   6.461   3.870   7.199  1.6419  0.8861  0.1633
   29MOL   C29714913   6.467   3.901   6.837  0.0034 -0.4559  0.4498
   29MOL   C29814914   6.494   3.762   6.851 -0.2077 -0.3432 -0.1755
   29MOL   C29914915   6.522   3.687   6.734 -0.8382 -0.3438  0.1732
   29MOL   C30014916   6.539   3.752   6.611  0.0561  0.6532 -0.1745
   29MOL   C30114917   6.499   3.891   6.600 -0.5995  0.8465 -0.4184
   29MOL   C30214918   6.466   3.966   6.712 -0.5481 -0.2193 -0.3997
   29MOL   H30314919   6.686   3.530   6.913  0.3767  0.1679  0.4583
   29MOL   H30414920   6.691   3.445   7.057  1.5527  0.3178 -0.5910
   29MOL   H30514921   6.520   3.605   7.150  1.1641  0.5987 -0.3864
   29MOL   H30614922   6.407   4.160   6.948 -0.1517 -0.0583 -0.3882
   29MOL   H30714923   6.373   4.194   7.196 -1.0484 -0.4338  0.1944
   29MOL   H30814924   6.425   4.014   7.353  0.3780 -0.2899 -0.0257
   29MOL   H30914925   6.481   3.796   7.275  2.5714  2.0463  1.0711
   29MOL   H31014926   6.554   3.584   6.748  1.2010  0.3085  0.5693
   29MOL   H31114927   6.581   3.704   6.524 -0.9893 -0.9903  0.1966
   29MOL   H31214928   6.505   3.936   6.502  0.3696 -2.0433 -1.7482
   29MOL   H31314929   6.437   4.070   6.708 -1.4344 -0.5027 -1.4825
   29MOL   C31414930   6.416   3.494   7.000 -0.2328 -0.2509  0.1591
   29MOL   C31514931   6.275   3.520   7.050  0.1867  0.4752  0.3766
   29MOL   N31614932   6.179   3.421   7.005  0.1338  0.1853  0.6970
   29MOL   C31714933   6.075   3.435   6.912  0.4007 -0.0347 -0.3571
   29MOL   C31814934   6.012   3.309   6.898 -0.3976 -0.5644 -0.1460
   29MOL   C31914935   5.904   3.292   6.803  0.5054 -0.5123 -0.1271
   29MOL   C32014936   5.880   3.399   6.717 -0.3060  0.0625  0.9308
   29MOL   C32114937   5.941   3.522   6.734 -0.1470 -0.6695  0.2460
   29MOL   C32214938   6.037   3.542   6.834 -0.4520  0.1837 -0.9225
   29MOL   C32314939   6.063   3.226   7.001  0.0758 -0.2997 -0.1734
   29MOL   C32414940   6.177   3.293   7.056 -0.2702  0.4133  0.5411
   29MOL   C32514941   6.257   3.223   7.151  0.1976 -0.1807  0.4382
   29MOL   C32614942   6.219   3.096   7.193  0.0988  0.4125  0.2770
   29MOL   C32714943   6.106   3.028   7.147 -0.5638 -0.6244  0.1698
   29MOL   C32814944   6.032   3.098   7.047  0.2005 -0.7320 -0.0576
   29MOL   H32914945   6.412   3.488   6.891 -0.0568 -0.5120  0.1660
   29MOL   H33014946   6.449   3.405   7.054 -1.7522  0.1718  1.7961
   29MOL   H33114947   6.240   3.615   7.008  2.8647  0.1205 -2.8852
   29MOL   H33214948   5.850   3.199   6.800  0.2891 -0.4691  1.9044
   29MOL   H33314949   5.811   3.385   6.635  0.7521  3.0949 -0.5462
   29MOL   H33414950   5.912   3.599   6.664 -1.4141 -1.5858 -0.2460
   29MOL   H33514951   6.069   3.644   6.851 -2.5331  0.9534 -1.4708
   29MOL   H33614952   6.343   3.275   7.190  0.2210  0.5756 -0.5978
   29MOL   H33714953   6.278   3.042   7.265  0.4916 -0.4151 -0.6580
   29MOL   H33814954   6.073   2.930   7.178 -0.2795 -0.1853  1.8850
   29MOL   H33914955   5.948   3.053   6.997  0.2955 -1.1701  0.1779
   29MOL   C34014956   6.257   3.547   7.203 -0.4675  0.8991 -0.5759
   29MOL   C34114957   6.116   3.538   7.262  0.2501 -0.2719 -0.1770
   29MOL   N34214958   6.122   3.521   7.406 -0.2834  0.1535  0.0741
   29MOL   C34314959   6.073   3.407   7.474 -1.0547  0.0310 -0.1421
   29MOL   C34414960   6.090   3.428   7.615  0.7000  0.8415  0.5611
   29MOL   C34514961   6.034   3.332   7.706 -0.6066  0.4639 -0.8500
   29MOL   C34614962   5.972   3.212   7.656  0.5387 -0.7270  0.2648
   29MOL   C34714963   5.968   3.189   7.510 -1.1455 -0.6107 -0.1554
   29MOL   C34814964   6.016   3.290   7.425 -0.2025 -0.1198 -0.3735
   29MOL   C34914965   6.169   3.547   7.630 -0.6380  0.1719  0.8545
   29MOL   C35014966   6.185   3.603   7.503  0.2935 -0.9010 -0.3512
   29MOL   C35114967   6.261   3.719   7.484 -1.0948 -0.1057 -0.9221
   29MOL   C35214968   6.321   3.780   7.598  0.2267  0.2694 -0.5711
   29MOL   C35314969   6.313   3.714   7.724  0.5620 -0.0500 -0.1618
   29MOL   C35414970   6.228   3.609   7.740  0.6685  0.3024 -0.2503
   29MOL   H35514971   6.327   3.483   7.257 -1.9596  0.0822  0.4439
   29MOL   H35614972   6.293   3.648   7.224 -0.4594  1.2066 -2.0335
   29MOL   H35714973   6.070   3.446   7.228  0.9593 -0.8490  0.4073
   29MOL   H35814974   6.047   3.350   7.812 -0.3722 -0.2407 -0.7527
   29MOL   H35914975   5.923   3.147   7.727 -2.1221  0.9938  0.0817
   29MOL   H36014976   5.910   3.108   7.468 -1.9224  0.6788 -1.5943
   29MOL   H36114977   6.009   3.272   7.319  1.5715  2.3581 -0.9339
   29MOL   H36214978   6.284   3.778   7.396  2.5901  0.9860  0.6508
   29MOL   H36314979   6.378   3.870   7.581 -0.4069  0.8474  0.2722
   29MOL   H36414980   6.381   3.738   7.804 -0.7544  0.0627  0.9556
   29MOL   H36514981   6.215   3.561   7.836  0.8548  1.1599  0.2040
   29MOL   C36614982   6.009   3.646   7.221 -0.2604 -0.9034 -0.8766
   29MOL   C36714983   5.859   3.624   7.255 -0.4555 -0.4151  0.4713
   29MOL   N36814984   5.789   3.746   7.223 -0.3648  0.3171 -0.1050
   29MOL   C36914985   5.736   3.824   7.325 -0.3928  0.1178  0.3967
   29MOL   C37014986   5.650   3.921   7.263 -0.5958  0.0895 -0.2260
   29MOL   C37114987   5.574   4.007   7.349 -0.7198  0.1498  0.3521
   29MOL   C37214988   5.587   4.002   7.488 -0.1769 -0.0324 -0.3885
   29MOL   C37314989   5.667   3.899   7.543  0.3373 -0.5825 -0.0371
   29MOL   C37414990   5.748   3.822   7.466  0.2151 -0.2692 -0.5841
   29MOL   C37514991   5.665   3.906   7.125 -0.6930 -0.4651 -0.1176
   29MOL   C37614992   5.758   3.806   7.100 -0.0727  0.4456  0.2512
   29MOL   C37714993   5.795   3.774   6.968  0.5723  0.6427  0.4709
   29MOL   C37814994   5.733   3.840   6.859  0.0692  0.0007  0.3807
   29MOL   C37914995   5.634   3.936   6.882  0.2733 -0.5544  0.1371
   29MOL   C38014996   5.601   3.974   7.016 -0.5003  0.2596  0.5313
   29MOL   H38114997   6.039   3.742   7.263  1.6666 -1.3568 -1.2011
   29MOL   H38214998   6.025   3.655   7.113  0.2448 -0.5164 -0.7683
   29MOL   H38314999   5.854   3.605   7.362 -0.0307  0.9924  0.7451
   29MOL   H38415000   5.509   4.083   7.309  0.5739 -0.1285 -2.3646
   29MOL   H38515001   5.533   4.067   7.555  1.1361 -0.3227  0.9876
   29MOL   H38615002   5.670   3.894   7.651 -0.9703  2.3313  0.1744
   29MOL   H38715003   5.817   3.753   7.512  1.3060 -1.0785 -3.3077
   29MOL   H38815004   5.870   3.697   6.956  0.3692  0.4031  0.7622
   29MOL   H38915005   5.758   3.818   6.756 -2.3636  2.3428 -0.7808
   29MOL   H39015006   5.594   3.994   6.799  0.9397  1.1721  1.0168
   29MOL   H39115007   5.523   4.046   7.035  0.0795  1.9245 -3.0312
   29MOL   C39215008   5.799   3.495   7.196  0.9037 -0.4040 -0.0425
   29MOL   C39315009   5.644   3.480   7.194 -0.6389 -0.0509  0.9191
   29MOL   N39415010   5.610   3.360   7.117 -0.0357  0.3840  0.2909
   29MOL   C39515011   5.579   3.352   6.982 -0.5932 -0.3518 -0.0056
   29MOL   C39615012   5.558   3.213   6.944 -0.1223 -1.0284  0.5192
   29MOL   C39715013   5.513   3.180   6.818  0.5465  0.3074  0.1955
   29MOL   C39815014   5.487   3.276   6.723  0.0056 -0.3559 -0.3525
   29MOL   C39915015   5.511   3.412   6.754  0.3057  0.4567  0.1199
   29MOL   C40015016   5.549   3.451   6.883 -0.6428 -0.3058 -0.7125
   29MOL   C40115017   5.605   3.139   7.058 -0.8300  0.1968  0.5410
   29MOL   C40215018   5.642   3.227   7.160 -0.3422 -0.4799 -0.4871
   29MOL   C40315019   5.693   3.175   7.279  0.0854 -0.3523  0.0702
   29MOL   C40415020   5.702   3.031   7.301 -0.1958 -0.1926 -0.0630
   29MOL   C40515021   5.667   2.946   7.196 -0.3174 -0.1362 -0.0188
   29MOL   C40615022   5.623   3.001   7.077 -0.4675  0.0117  0.8644
   29MOL   H40715023   5.827   3.501   7.091 -0.6305 -0.3755 -0.4682
   29MOL   H40815024   5.841   3.405   7.239 -0.5469 -0.4970  1.2384
   29MOL   H40915025   5.600   3.565   7.141 -1.6402 -0.1227  1.6202
   29MOL   H41015026   5.501   3.082   6.774  3.0058 -0.4268  1.0671
   29MOL   H41115027   5.477   3.230   6.626  3.5667 -1.8597 -0.0553
   29MOL   H41215028   5.499   3.491   6.681 -1.5180  0.1611  0.0652
   29MOL   H41315029   5.558   3.557   6.904 -1.0812  0.2872 -3.4126
   29MOL   H41415030   5.737   3.240   7.353  1.2935 -0.5564 -0.4443
   29MOL   H41515031   5.744   2.993   7.393  0.3394 -1.9013 -0.9817
   29MOL   H41615032   5.674   2.838   7.204  1.1824  0.0228  0.9375
   29MOL   H41715033   5.588   2.941   6.993 -0.4808 -1.7419  2.0977
   29MOL   C41815034   5.576   3.484   7.335  0.2087  0.0069 -0.3497
   29MOL   C41915035   5.428   3.450   7.336  0.1762  0.5226 -0.0116
   29MOL   N42015036   5.392   3.393   7.471  0.0297  0.8545 -0.5313
   29MOL   C42115037   5.335   3.265   7.484 -0.2244  0.2998  0.0993
   29MOL   C42215038   5.308   3.244   7.625  0.5284  0.7106 -0.0514
   29MOL   C42315039   5.244   3.121   7.662 -0.3829  0.1818 -0.1571
   29MOL   C42415040   5.227   3.021   7.566 -0.6948  0.5529  1.2069
   29MOL   C42515041   5.243   3.049   7.426  0.4690  0.3167 -0.2871
   29MOL   C42615042   5.305   3.167   7.389  0.3559  0.1477 -0.0606
   29MOL   C42715043   5.357   3.358   7.694  0.6085  0.1319 -0.1369
   29MOL   C42815044   5.405   3.454   7.595 -0.2009  0.1367  1.0170
   29MOL   C42915045   5.456   3.578   7.628  0.6067 -0.6001 -0.0935
   29MOL   C43015046   5.467   3.605   7.765  0.3730 -0.5214 -0.0575
   29MOL   C43115047   5.418   3.521   7.867 -0.1829 -0.2113 -0.3243
   29MOL   C43215048   5.362   3.399   7.829  0.3065  0.1148  0.3612
   29MOL   H43315049   5.633   3.410   7.391 -1.7775 -0.1486  1.5215
   29MOL   H43415050   5.606   3.576   7.386 -1.6904  0.0251  0.7808
   29MOL   H43515051   5.391   3.375   7.266  0.2796 -0.6204  1.1433
   29MOL   H43615052   5.210   3.110   7.764 -2.0644  0.0302 -0.7221
   29MOL   H43715053   5.174   2.930   7.593 -2.3413  1.0595 -0.2159
   29MOL   H43815054   5.194   2.981   7.359  0.7662  0.3954 -0.5847
   29MOL   H43915055   5.322   3.181   7.283 -0.0770 -0.8131 -0.2608
   29MOL   H44015056   5.498   3.650   7.560 -1.4500 -0.9406 -1.8025
   29MOL   H44115057   5.510   3.700   7.796 -0.0663  0.0000 -0.9971
   29MOL   H44215058   5.408   3.560   7.968 -0.6110  0.2144 -0.5296
   29MOL   H44315059   5.326   3.330   7.905 -0.9664  1.1877  0.7381
   29MOL   C44415060   5.335   3.571   7.293  0.8964  0.2086 -0.8810
   29MOL   C44515061   5.205   3.601   7.376  0.8178 -0.0807  0.1188
   29MOL   N44615062   5.152   3.730   7.354 -0.3561 -0.2757 -0.6427
   29MOL   C44715063   5.136   3.835   7.449  0.2351 -0.4701  0.4013
   29MOL   C44815064   5.089   3.952   7.386  0.3923  0.9995  1.1075
   29MOL   C44915065   5.068   4.067   7.466  0.0066 -0.2927 -0.2423
   29MOL   C45015066   5.093   4.070   7.601  0.2104 -0.3998  0.3094
   29MOL   C45115067   5.132   3.951   7.663  0.1215 -0.7096 -0.5780
   29MOL   C45215068   5.147   3.832   7.588  0.3095 -0.7842 -0.2265
   29MOL   C45315069   5.071   3.920   7.246 -0.2172 -0.1725 -0.1214
   29MOL   C45415070   5.114   3.788   7.231  0.3122 -0.2177 -0.2127
   29MOL   C45515071   5.090   3.724   7.102  0.2734 -0.3396 -0.4940
   29MOL   C45615072   5.033   3.794   6.993 -0.0839  0.4967 -0.4134
   29MOL   C45715073   5.008   3.932   7.005 -0.6293 -0.1452  0.2505
   29MOL   C45815074   5.017   3.991   7.134  0.3729  0.9378  0.2852
   29MOL   H45915075   5.393   3.661   7.314  0.0918  0.7106 -0.7875
   29MOL   H46015076   5.305   3.555   7.189 -0.0086  0.3980 -0.6551
   29MOL   H46115077   5.250   3.601   7.476  1.1507 -2.4758  0.0052
   29MOL   H46215078   5.034   4.160   7.423  1.4801  1.8025  2.9082
   29MOL   H46315079   5.072   4.161   7.655 -0.2396  0.8804 -1.9603
   29MOL   H46415080   5.137   3.942   7.771 -0.0123  1.9564 -0.3176
   29MOL   H46515081   5.175   3.741   7.639 -0.6959 -0.0318  1.6948
   29MOL   H46615082   5.123   3.622   7.094  0.6394 -0.2480 -0.1813
   29MOL   H46715083   5.025   3.753   6.893  2.4813  0.0375 -0.4827
   29MOL   H46815084   4.972   3.981   6.916 -0.2573  1.9312  1.2006
   29MOL   H46915085   4.979   4.091   7.143 -1.9827  0.0867  0.0793
   29MOL   C47015086   5.092   3.491   7.372 -0.1359 -1.1212  0.5834
   29MOL   C47115087   4.975   3.519   7.469  0.5780 -0.2340 -0.6836
   29MOL   N47215088   4.840   3.496   7.409  0.2914  0.0966  0.0951
   29MOL   C47315089   4.740   3.592   7.401 -0.2472 -0.3452  0.6873
   29MOL   C47415090   4.620   3.528   7.370  0.0453  1.1730  0.3267
   29MOL   C47515091   4.506   3.607   7.375 -0.6371  0.3231  0.6711
   29MOL   C47615092   4.509   3.740   7.408 -0.2853  0.0961 -0.0224
   29MOL   C47715093   4.627   3.804   7.442 -0.0862 -0.3571  0.2684
   29MOL   C47815094   4.745   3.726   7.428  0.2169 -0.0515 -0.2483
   29MOL   C47915095   4.647   3.388   7.343 -0.3758 -0.0907 -0.2155
   29MOL   C48015096   4.783   3.370   7.376 -0.4943 -0.8410  0.2801
   29MOL   C48115097   4.841   3.241   7.365 -0.3470 -0.3615 -0.1004
   29MOL   C48215098   4.773   3.129   7.316  0.5493 -0.1979 -0.0673
   29MOL   C48315099   4.637   3.150   7.278 -0.3337  0.0920  0.1694
   29MOL   C48415100   4.574   3.275   7.302  0.3353 -1.0424  0.5835
   29MOL   H48515101   5.062   3.492   7.267  3.5814  2.7186 -0.6063
   29MOL   H48615102   5.130   3.390   7.388  1.6552 -0.6919 -0.8179
   29MOL   H48715103   4.981   3.623   7.500  0.8003 -0.4875  0.1137
   29MOL   H48815104   4.409   3.564   7.351  0.2677  0.4436 -3.5046
   29MOL   H48915105   4.417   3.796   7.409 -0.6930 -0.5344 -1.6483
   29MOL   H49015106   4.637   3.906   7.475 -3.3021  0.5496 -1.3868
   29MOL   H49115107   4.840   3.776   7.439 -0.4785  1.4361 -0.9430
   29MOL   H49215108   4.945   3.224   7.391 -1.1404 -3.9811  0.9941
   29MOL   H49315109   4.814   3.029   7.319 -0.4191 -0.5686  2.2381
   29MOL   H49415110   4.577   3.062   7.264 -0.5196  0.1690  0.4794
   29MOL   H49515111   4.468   3.278   7.278  0.4878  0.8305  0.0396
   29MOL   C49615112   4.998   3.441   7.596 -0.4577  0.3153 -0.9305
   29MOL   C49715113   4.889   3.449   7.709  0.0899  0.2561  0.0881
   29MOL   N49815114   4.923   3.364   7.821 -0.7167 -0.4419  0.1791
   29MOL   C49915115   5.004   3.397   7.934 -0.2670 -0.1073 -0.2278
   29MOL   C50015116   5.003   3.293   8.026 -0.4980  0.0164  0.0817
   29MOL   C50115117   5.075   3.318   8.146  0.1134  0.1022 -0.5137
   29MOL   C50215118   5.131   3.443   8.180  0.8042  0.3303 -0.1975
   29MOL   C50315119   5.129   3.546   8.090  0.1289  0.0194  0.3604
   29MOL   C50415120   5.066   3.520   7.964  0.0836 -0.2524  0.1565
   29MOL   C50515121   4.935   3.182   7.963  0.0866 -0.4845  0.0187
   29MOL   C50615122   4.880   3.232   7.842 -0.2037 -0.2160  0.2687
   29MOL   C50715123   4.799   3.149   7.765  0.4864 -0.1508 -0.4893
   29MOL   C50815124   4.773   3.013   7.805  0.5449  0.4907  0.2190
   29MOL   C50915125   4.824   2.964   7.925  0.7421 -0.2614 -0.0562
   29MOL   C51015126   4.911   3.052   8.001  0.7300  0.0182 -0.8528
   29MOL   H51115127   5.004   3.337   7.563 -0.4227  0.1301 -0.3435
   29MOL   H51215128   5.094   3.472   7.638 -1.0423 -0.7596  1.2183
   29MOL   H51315129   4.785   3.438   7.677  0.4888  0.3301 -1.2289
   29MOL   H51415130   5.065   3.246   8.227 -1.6437 -0.4961 -1.2496
   29MOL   H51515131   5.173   3.462   0.050 -0.3467  0.7340  0.2268
   29MOL   H51615132   5.168   3.644   8.114 -3.3083  1.5326  0.0303
   29MOL   H51715133   5.063   3.594   7.885 -0.0861 -0.3269  0.0911
   29MOL   H51815134   4.752   3.177   7.672  1.3474  0.3175 -0.7844
   29MOL   H51915135   4.707   2.951   7.745  1.4712  0.9516 -1.2900
   29MOL   H52015136   4.809   2.864   7.964  0.5149 -1.1259 -2.2910
   29MOL   H52115137   4.963   3.013   8.088 -2.0543  1.6863  1.6344
   29MOL   H52215138   4.899   3.553   7.741 -0.9114  0.3243  0.2145
   30MOL     C115139   7.619   7.834   7.877  0.1511 -0.3127  0.1189
   30MOL     C215140   7.612   7.971   7.948 -0.1278 -0.0088 -0.0091
   30MOL     N315141   7.749   8.013   7.990 -0.2496  0.3150 -0.3725
   30MOL     C415142   7.865   8.035   7.912  0.2453 -0.6079 -0.0630
   30MOL     C515143   7.971   8.076   7.996 -0.7870 -0.9364 -0.2484
   30MOL     C615144   8.099   8.089   7.941  0.1035  0.4064  0.7773
   30MOL     C715145   8.125   8.072   7.803  0.1575 -0.6526  0.5719
   30MOL     C815146   8.023   8.024   7.724 -0.3865  0.0029  0.0271
   30MOL     C915147   7.894   8.015   7.771 -0.3430 -0.0422 -0.0169
   30MOL    C1015148   7.918   8.083   8.129  0.2019 -0.7343  0.7391
   30MOL    C1115149   7.782   8.039   8.127  0.5356 -0.4997 -0.0507
   30MOL    C1215150   7.699   8.038   0.017 -0.1643 -0.3433 -0.2217
   30MOL    C1315151   7.758   8.060   0.143 -0.6770 -0.0968 -0.6707
   30MOL    C1415152   7.892   8.096   0.142 -0.1344  0.9281 -0.0134
   30MOL    C1515153   7.973   8.104   0.026 -0.1219  0.2338  0.0950
   30MOL    H1615154   7.528   7.772   7.882 -0.6305  0.5405 -2.5121
   30MOL    H1715155   7.694   7.765   7.916  1.4278 -0.0193 -1.7951
   30MOL    H1815156   7.559   7.949   8.041 -1.1120  0.7883 -0.3816
   30MOL    H1915157   8.174   8.124   8.011 -1.0653  2.7475  0.9123
   30MOL    H2015158   8.225   8.067   7.764 -0.5744  1.1427 -1.6743
   30MOL    H2115159   8.038   7.988   7.623 -0.9459  0.6518 -0.2896
   30MOL    H2215160   7.827   8.002   7.688  2.5609 -1.5113 -2.2324
   30MOL    H2315161   7.601   7.993   0.018 -0.7022  0.6774 -2.6709
   30MOL    H2415162   7.710   8.070   0.239  0.3603 -0.0182 -0.1422
   30MOL    H2515163   7.947   8.114   0.233  1.1918 -2.1470 -0.1218
   30MOL    H2615164   8.079   8.125   0.032  0.8550 -4.3654  1.4349
   30MOL    H2715165   7.641   7.831   7.770 -0.9128 -1.5315 -0.0826
   30MOL    C2815166   7.524   8.086   7.893  0.4585  0.0459 -0.0950
   30MOL    C2915167   7.385   8.050   7.833 -0.3930 -0.2243 -0.1295
   30MOL    N3015168   7.313   7.949   7.906 -0.3976  0.0647  0.4163
   30MOL    C3115169   7.262   7.838   7.840 -0.2288 -0.1662  0.0711
   30MOL    C3215170   7.221   7.743   7.944  0.1376 -0.3006  0.4686
   30MOL    C3315171   7.167   7.615   7.906  0.2838  0.2633 -0.1026
   30MOL    C3415172   7.159   7.574   7.777  0.2326 -0.3742 -0.3659
   30MOL    C3515173   7.192   7.665   7.679 -0.2396  0.5076  0.8716
   30MOL    C3615174   7.238   7.802   7.706 -0.5185  0.1875  0.3486
   30MOL    C3715175   7.233   7.813   8.071 -0.2957 -0.3004 -0.7583
   30MOL    C3815176   7.293   7.942   8.045 -0.1473  0.9881 -0.1330
   30MOL    C3915177   7.322   8.037   8.145  0.2305  0.0456 -0.0242
   30MOL    C4015178   7.292   7.997   0.049  0.2682  0.7740  0.2168
   30MOL    C4115179   7.226   7.878   0.068 -0.5290  1.0671 -0.4380
   30MOL    C4215180   7.197   7.786   8.200 -0.2318 -0.3877  0.1128
   30MOL    H4315181   7.522   8.166   7.966  0.6679  0.8513 -0.9570
   30MOL    H4415182   7.590   8.128   7.817  1.8045 -2.5945 -0.4362
   30MOL    H4515183   7.426   8.000   7.745  0.3224 -0.0320  0.0930
   30MOL    H4615184   7.138   7.549   7.986 -0.0044 -1.0914 -1.3116
   30MOL    H4715185   7.119   7.477   7.749  0.3631 -0.9377  1.3194
   30MOL    H4815186   7.178   7.642   7.575 -1.3089 -0.4866  1.2329
   30MOL    H4915187   7.272   7.872   7.631  0.2066 -0.9279 -0.3886
   30MOL    H5015188   7.368   8.129   8.112 -0.5313  0.6087  0.4630
   30MOL    H5115189   7.315   8.073   0.122  0.2854 -0.6721  1.7688
   30MOL    H5215190   7.195   7.864   0.171  2.6510 -1.2427  0.2697
   30MOL    H5315191   7.142   7.696   8.220 -2.3077  1.0141  0.9459
   30MOL    C5415192   7.298   8.171   7.798  0.7036 -0.0933 -0.3715
   30MOL    C5515193   7.346   0.006   7.661 -0.0927  0.6767 -1.0672
   30MOL    N5615194   7.260   8.182   7.554  0.6782 -0.4655 -0.0253
   30MOL    C5715195   7.293   8.083   7.464 -0.8972  0.6370 -0.4196
   30MOL    C5815196   7.194   8.071   7.362 -0.5009  0.9008  0.3511
   30MOL    C5915197   7.211   7.989   7.250  0.4976 -0.2173 -0.2886
   30MOL    C6015198   7.330   7.909   7.245 -0.2538  0.1841 -0.3329
   30MOL    C6115199   7.429   7.919   7.344 -0.0583  0.1144 -0.0432
   30MOL    C6215200   7.413   8.004   7.452 -0.3193  0.8802  0.3268
   30MOL    C6315201   7.085   8.152   7.414 -0.4095  0.6242  0.2658
   30MOL    C6415202   7.125   8.215   7.534 -0.1457  0.4545  0.3462
   30MOL    C6515203   7.038   0.078   7.599  0.0613  0.1828 -0.8430
   30MOL    C6615204   6.908   0.101   7.548 -0.0454  0.1739 -0.3646
   30MOL    C6715205   6.858   0.036   7.432  0.8117 -0.7495 -0.0160
   30MOL    C6815206   6.948   8.172   7.365 -0.1313 -0.3419 -0.9214
   30MOL    H6915207   7.192   8.146   7.798 -0.0736  3.0581 -0.1159
   30MOL    H7015208   7.313   0.008   7.885  1.9637  3.1531 -2.9176
   30MOL    H7115209   7.447   8.199   7.639  1.0989  1.5450  2.6418
   30MOL    H7215210   7.135   7.999   7.174  0.7775 -0.9468 -0.6698
   30MOL    H7315211   7.334   7.835   7.167  0.3476 -0.5481  0.3832
   30MOL    H7415212   7.522   7.864   7.335 -1.0574 -1.4932 -0.7831
   30MOL    H7515213   7.496   8.010   7.521  0.5727  1.4518 -0.7797
   30MOL    H7615214   7.070   0.121   7.693 -1.3301  1.1900 -0.8328
   30MOL    H7715215   6.833   0.154   7.604  1.4384  0.2570  1.6009
   30MOL    H7815216   6.759   0.058   7.396 -0.3018 -4.1673  0.7878
   30MOL    H7915217   6.914   8.140   7.268 -0.1541  1.2815 -1.4695
   30MOL    C8015218   7.361   0.161   7.650  0.5351 -0.0558 -0.1851
   30MOL    C8115219   7.493   0.214   7.592  0.0555 -0.1182  0.3056
   30MOL    N8215220   7.521   0.143   7.463 -0.7500 -0.2086 -0.5817
   30MOL    C8315221   7.634   0.066   7.441 -0.3546 -0.3942 -0.1103
   30MOL    C8415222   7.633   0.016   7.310  0.7646 -0.6120 -0.7543
   30MOL    C8515223   7.739   8.162   7.263 -0.1173  0.6645  0.8989
   30MOL    C8615224   7.853   8.147   7.341 -0.1661  0.1305 -0.3316
   30MOL    C8715225   7.858   8.203   7.467  0.3112  0.2850 -0.0211
   30MOL    C8815226   7.754   0.046   7.519  0.0738  0.4075  0.2722
   30MOL    C8915227   7.508   0.052   7.251 -0.5898  0.1113 -0.1444
   30MOL    C9015228   7.442   0.138   7.345  0.4937 -0.1558 -0.1054
   30MOL    C9115229   7.314   0.193   7.308 -0.8385 -0.3548 -0.0082
   30MOL    C9215230   7.253   0.154   7.193  0.3783  0.0440  0.2495
   30MOL    C9315231   7.319   0.074   7.097 -0.0935  0.5911 -0.5434
   30MOL    C9415232   7.447   0.027   7.126 -0.9148  0.1058 -0.5820
   30MOL    H9515233   7.270   0.202   7.607  0.5540 -0.3932 -0.5508
   30MOL    H9615234   7.353   0.193   7.754  0.0607 -1.8525  0.3520
   30MOL    H9715235   7.573   0.176   7.655  0.4629 -0.4454 -0.3920
   30MOL    H9815236   7.734   8.113   7.167  0.5723 -1.3861  1.8744
   30MOL    H9915237   7.933   8.099   7.287  0.3030 -0.6567  1.0370
   30MOL   H10015238   7.953   8.190   7.517 -0.5287 -0.1539  1.5050
   30MOL   H10115239   7.775   0.104   7.607  2.5505  1.2526 -0.8213
   30MOL   H10215240   7.259   0.244   7.385  1.0493 -0.6080  1.5378
   30MOL   H10315241   7.152   0.184   7.167  0.8419  0.1051 -1.5329
   30MOL   H10415242   7.266   0.044   7.007 -1.4985  1.9804 -0.2013
   30MOL   H10515243   7.498   8.193   7.053 -1.7486 -0.9255 -0.3047
   30MOL   C10615244   7.503   0.367   7.576  0.0995  0.1394  1.2433
   30MOL   C10715245   7.496   0.437   7.715 -0.6070  0.7990 -0.5379
   30MOL   N10815246   7.591   0.374   7.808 -0.0507 -0.2892 -0.3381
   30MOL   C10915247   7.560   0.309   7.933 -0.0506 -0.5471 -0.1973
   30MOL   C11015248   7.674   0.247   7.980  0.2353 -0.1153  0.1949
   30MOL   C11115249   7.670   0.182   8.109  0.0678  0.8185 -0.1469
   30MOL   C11215250   7.545   0.154   8.167 -0.7244  0.0850 -0.1762
   30MOL   C11315251   7.432   0.216   8.116 -0.6819  0.5580  1.2551
   30MOL   C11415252   7.443   0.307   8.008 -0.4090 -0.1933  0.7286
   30MOL   C11515253   7.777   0.276   7.890  0.0034 -0.0289 -0.2732
   30MOL   C11615254   7.730   0.359   7.788 -0.5168  0.0690 -0.2597
   30MOL   C11715255   7.821   0.413   7.689  0.3947 -0.3390 -1.0011
   30MOL   C11815256   7.957   0.372   7.689  0.4503  0.2506  0.2644
   30MOL   C11915257   8.002   0.295   7.795 -0.3312 -0.2269  0.2446
   30MOL   C12015258   7.913   0.233   7.885  0.7279 -0.4123 -0.4650
   30MOL   H12115259   7.586   0.403   7.516  0.1180 -1.1285  0.4806
   30MOL   H12215260   7.413   0.400   7.524  0.4017 -0.6492  0.1949
   30MOL   H12315261   7.398   0.415   7.758 -0.3105  1.6691  0.5875
   30MOL   H12415262   7.762   0.146   8.152 -1.6227 -1.1166  1.9714
   30MOL   H12515263   7.536   0.102   0.034  2.2102  2.7795  1.6854
   30MOL   H12615264   7.344   0.190   8.173 -0.3931 -1.2522  0.8992
   30MOL   H12715265   7.358   0.364   7.973  0.1466 -0.5014 -1.2351
   30MOL   H12815266   7.777   0.472   7.610 -0.5626  2.9792  1.8529
   30MOL   H12915267   8.023   0.414   7.614  0.4536 -1.1370 -0.5402
   30MOL   H13015268   8.107   0.274   7.810  0.0678  2.2002  1.0294
   30MOL   H13115269   7.955   0.172   7.964 -2.1172 -3.0343 -0.8681
   30MOL   C13215270   7.508   0.586   7.723  0.3953 -0.4388  0.2613
   30MOL   C13315271   7.421   0.677   7.624  0.0339 -0.1531  0.2750
   30MOL   N13415272   7.275   0.645   7.621  0.4344 -0.1167 -0.0285
   30MOL   C13515273   7.209   0.601   7.507 -0.4522  0.6316 -0.0839
   30MOL   C13615274   7.077   0.563   7.535  0.0803 -0.1115 -0.2349
   30MOL   C13715275   7.009   0.485   7.438 -0.2729  0.2683  0.4578
   30MOL   C13815276   7.054   0.475   7.312  0.0388  0.0949 -0.2234
   30MOL   C13915277   7.184   0.518   7.282  0.5586 -0.2092 -0.3619
   30MOL   C14015278   7.264   0.584   7.378 -0.2449 -0.1209 -0.0011
   30MOL   C14115279   7.060   0.600   7.672  0.3843  0.0885  0.4782
   30MOL   C14215280   7.180   0.653   7.725  0.5534  0.6784  0.2375
   30MOL   C14315281   7.183   0.693   7.862  0.2029 -1.1229 -0.5567
   30MOL   C14415282   7.067   0.682   7.943  0.1646 -0.2237 -0.3951
   30MOL   C14515283   6.950   0.633   7.893  0.5469 -0.1920  1.0735
   30MOL   C14615284   6.950   0.586   7.759 -0.1507 -0.4937  0.1160
   30MOL   H14715285   7.497   0.624   7.824  1.3294 -2.2463  1.0553
   30MOL   H14815286   7.614   0.611   7.712  0.0257  0.7534 -0.8078
   30MOL   H14915287   7.461   0.658   7.524 -1.2943  2.5141 -0.8031
   30MOL   H15015288   6.909   0.445   7.446  0.0721 -0.9792 -1.2221
   30MOL   H15115289   6.997   0.421   7.237 -0.2416 -0.4013  0.3459
   30MOL   H15215290   7.227   0.503   7.184 -1.9482  0.4828 -1.6191
   30MOL   H15315291   7.361   0.622   7.349 -0.7638 -0.1662 -1.8114
   30MOL   H15415292   7.280   0.720   7.901  0.8651 -0.0197 -2.8578
   30MOL   H15515293   7.077   0.702   8.048 -1.1996 -2.9877  0.3027
   30MOL   H15615294   6.861   0.615   7.951 -0.3453 -2.9102 -1.0095
   30MOL   H15715295   6.871   0.535   7.707 -0.5868  1.5616 -1.2886
   30MOL   C15815296   7.435   0.831   7.642 -0.2323 -0.0940 -0.0858
   30MOL   C15915297   7.575   0.893   7.599  0.1504  0.3565  0.5885
   30MOL   N16015298   7.603   0.847   7.463 -0.6590  0.2150  0.2278
   30MOL   C16115299   7.708   0.763   7.426  0.2632  0.2911  0.3381
   30MOL   C16215300   7.694   0.735   7.288  0.0600 -0.1750  0.4731
   30MOL   C16315301   7.789   0.654   7.226  0.0732  0.4108 -0.2050
   30MOL   C16415302   7.885   0.587   7.301  0.0046 -0.5315  0.0320
   30MOL   C16515303   7.904   0.620   7.435 -0.1997  0.7853  0.4868
   30MOL   C16615304   7.809   0.706   7.499 -0.1165  0.2409  0.0184
   30MOL   C16715305   7.582   0.804   7.233  0.8781  0.5402  0.1062
   30MOL   C16815306   7.529   0.873   7.345 -0.0563  0.2726 -0.2024
   30MOL   C16915307   7.411   0.950   7.327  0.3207  0.3285  1.3347
   30MOL   C17015308   7.348   0.968   7.195  0.1807  0.6234  0.3031
   30MOL   C17115309   7.406   0.893   7.090 -0.2942  0.2723 -0.5558
   30MOL   C17215310   7.517   0.808   7.107 -0.3099 -0.3580 -0.6649
   30MOL   H17315311   7.359   0.883   7.584 -0.7941 -0.5834  0.1950
   30MOL   H17415312   7.415   0.843   7.749  1.0467 -2.4391  0.4446
   30MOL   H17515313   7.647   0.858   7.673  0.5139 -1.1927 -0.4711
   30MOL   H17615314   7.774   0.632   7.121  2.9136 -0.6659 -0.4258
   30MOL   H17715315   7.962   0.533   7.247 -0.4399 -0.9471 -0.1904
   30MOL   H17815316   7.991   0.584   7.488  0.0305  1.9876  0.9510
   30MOL   H17915317   7.808   0.721   7.606  0.5565 -1.4825  0.2859
   30MOL   H18015318   7.369   0.998   7.414  0.8730  1.9873  0.6836
   30MOL   H18115319   7.278   1.049   7.182 -0.6524 -0.2467 -0.7396
   30MOL   H18215320   7.374   0.909   6.988  4.9946 -0.3562 -2.4770
   30MOL   H18315321   7.547   0.750   7.020 -1.4638 -0.5559 -0.9323
   30MOL   C18415322   7.583   1.043   7.605  0.0259  0.1318 -0.1261
   30MOL   C18515323   7.722   1.092   7.558  0.2436  0.3164 -0.4853
   30MOL   N18615324   7.728   1.135   7.418 -0.5279  0.1966  0.4278
   30MOL   C18715325   7.833   1.100   7.330 -0.1780 -0.4639  0.3479
   30MOL   C18815326   7.817   1.176   7.209 -0.3730 -0.2201 -0.4338
   30MOL   C18915327   7.924   1.168   7.116  0.0285 -0.1168 -0.0081
   30MOL   C19015328   8.034   1.087   7.146  0.0103 -0.3150 -0.1047
   30MOL   C19115329   8.046   1.022   7.269 -0.3920 -0.0830 -0.5254
   30MOL   C19215330   7.942   1.020   7.356  0.8379  0.3692  0.5084
   30MOL   C19315331   7.692   1.259   7.223  0.7198 -0.4513 -0.3640
   30MOL   C19415332   7.647   1.228   7.352  0.6171  0.2333  0.8181
   30MOL   C19515333   7.541   1.308   7.401  0.8414 -1.1399  0.1774
   30MOL   C19615334   7.465   1.393   7.321 -0.0936 -0.4467  0.3619
   30MOL   C19715335   7.514   1.418   7.192  0.2973 -0.1716  0.3289
   30MOL   C19815336   7.626   1.351   7.145  0.1344  0.0785 -0.1181
   30MOL   H19915337   7.508   1.091   7.542  0.1148  1.4946  0.7891
   30MOL   H20015338   7.565   1.077   7.706 -0.5910  2.0172 -0.8509
   30MOL   H20115339   7.784   1.002   7.565 -1.1079 -0.7819 -2.2436
   30MOL   H20215340   7.909   1.224   7.025 -0.0011 -0.8932 -0.4845
   30MOL   H20315341   8.118   1.089   7.077  0.7697  1.9063  0.8619
   30MOL   H20415342   8.136   0.964   7.274 -0.0441  0.3976 -1.2426
   30MOL   H20515343   7.955   0.941   7.428  2.4405 -1.5881 -1.8245
   30MOL   H20615344   7.517   1.294   7.505 -2.6381  0.0458 -0.3829
   30MOL   H20715345   7.377   1.443   7.360 -0.6739 -1.1379 -0.0438
   30MOL   H20815346   7.482   1.495   7.124  0.8994 -1.2942 -1.2702
   30MOL   H20915347   7.670   1.377   7.049 -1.1009 -0.5302 -0.8694
   30MOL   C21015348   7.793   1.191   7.656  0.1351  0.4408  1.5203
   30MOL   C21115349   7.824   1.146   7.804 -1.0516  0.5267  0.3388
   30MOL   N21215350   7.870   1.008   7.823 -0.5099  0.0052 -0.0644
   30MOL   C21315351   7.804   0.902   7.890  0.8399  0.3665  0.0649
   30MOL   C21415352   7.866   0.780   7.866 -0.5599  0.5813  0.0075
   30MOL   C21515353   7.817   0.663   7.929 -0.7026  0.5415  0.5062
   30MOL   C21615354   7.709   0.667   8.015  0.3046 -0.5692  0.6899
   30MOL   C21715355   7.638   0.785   8.032 -0.3070  0.4886 -0.7264
   30MOL   C21815356   7.682   0.902   7.966 -0.4133  0.4458  0.5762
   30MOL   C21915357   7.985   0.815   7.798  0.3955 -0.4617  0.8948
   30MOL   C22015358   7.989   0.957   7.769 -0.0638 -0.0866 -0.0357
   30MOL   C22115359   8.098   1.015   7.705  0.0499 -0.8533 -0.4291
   30MOL   C22215360   8.211   0.938   7.674  0.0145 -0.0328 -0.1454
   30MOL   C22315361   8.209   0.799   7.706 -0.6564 -0.3380  0.3742
   30MOL   C22415362   8.093   0.733   7.760 -0.0268  0.4383  0.5304
   30MOL   H22515363   7.893   1.207   7.616  0.2560 -1.8294  0.8580
   30MOL   H22615364   7.734   1.281   7.641  0.9315  0.4514 -1.8785
   30MOL   H22715365   7.725   1.145   7.848 -0.6724  1.9782  1.2504
   30MOL   H22815366   7.863   0.566   7.916 -1.1552  0.1238  1.9122
   30MOL   H22915367   7.683   0.577   8.069  1.8925 -1.1763  0.4640
   30MOL   H23015368   7.545   0.786   8.088 -1.0231  0.2705 -1.8856
   30MOL   H23115369   7.618   0.988   7.983 -0.4368  0.5633 -0.0839
   30MOL   H23215370   8.085   1.117   7.672 -0.0296 -1.4811 -2.3982
   30MOL   H23315371   0.069   0.986   7.629  0.5997  0.0429  1.0321
   30MOL   H23415372   0.071   0.745   7.681  0.5433  0.6557  2.3407
   30MOL   H23515373   8.085   0.626   7.770 -0.0254  0.3104 -0.7346
   30MOL   C23615374   7.904   1.244   7.890  0.3308 -0.2382 -0.3683
   30MOL   C23715375   7.847   1.388   7.904  0.4107  0.4767 -0.4676
   30MOL   N23815376   7.700   1.384   7.926 -0.4164 -0.3580  0.7837
   30MOL   C23915377   7.608   1.440   7.830 -0.8096 -0.1925 -0.4300
   30MOL   C24015378   7.475   1.408   7.872 -0.9082  0.1570 -0.5888
   30MOL   C24115379   7.367   1.431   7.789 -0.0462 -0.0278  0.3674
   30MOL   C24215380   7.382   1.506   7.672 -0.5140 -0.4381  0.5391
   30MOL   C24315381   7.514   1.540   7.634  0.9342 -0.6926  0.0381
   30MOL   C24415382   7.625   1.507   7.708  0.1458  0.0999 -0.2086
   30MOL   C24515383   7.483   1.344   8.002 -0.0908 -0.3303  0.3785
   30MOL   C24615384   7.624   1.329   8.032  0.0935 -0.6733 -0.3451
   30MOL   C24715385   7.674   1.264   8.147 -1.1755  0.3136  0.7151
   30MOL   C24815386   7.576   1.214   0.014 -0.0574  0.0726  0.4039
   30MOL   C24915387   7.434   1.231   8.217  0.8662 -0.5947  0.0978
   30MOL   C25015388   7.396   1.281   8.094 -0.5821 -0.5222 -0.2169
   30MOL   H25115389   7.919   1.203   7.990  0.4204 -1.4648 -0.8849
   30MOL   H25215390   8.005   1.256   7.849  0.3598 -0.7595 -0.4577
   30MOL   H25315391   7.869   1.432   7.807  1.2843 -3.5966 -2.2110
   30MOL   H25415392   7.269   1.403   7.823  0.2400  0.8134  1.9202
   30MOL   H25515393   7.303   1.533   7.604 -1.4074 -1.0341  1.3289
   30MOL   H25615394   7.525   1.590   7.540  2.3174 -1.1810 -0.0672
   30MOL   H25715395   7.720   1.539   7.668  0.5505  3.1381  2.9051
   30MOL   H25815396   7.776   1.235   8.163 -1.4244 -0.6244  0.6365
   30MOL   H25915397   7.614   1.165   0.102  1.9134 -1.5862 -1.3072
   30MOL   H26015398   7.359   1.187   0.053  0.9262  0.7139  1.1079
   30MOL   H26115399   7.291   1.283   8.068 -0.7379 -0.2396  0.4271
   30MOL   C26215400   7.910   1.461   8.024 -0.6677 -0.3348  0.8600
   30MOL   C26315401   8.064   1.481   8.009  0.6390 -0.2630  0.1728
   30MOL   N26415402   8.108   1.522   7.884 -0.3949 -0.5002  0.1125
   30MOL   C26515403   8.210   1.459   7.804  0.3170  0.4578 -0.0816
   30MOL   C26615404   0.012   1.538   7.684 -0.3361 -0.0464 -0.2515
   30MOL   C26715405   0.112   1.489   7.593 -0.0542 -0.6034  0.0877
   30MOL   C26815406   0.182   1.368   7.621  0.6198  0.7978  0.4704
   30MOL   C26915407   0.151   1.296   7.738  0.1478 -0.1000 -0.5763
   30MOL   C27015408   0.053   1.344   7.827 -0.6190  0.0038  0.4780
   30MOL   C27115409   8.158   1.650   7.694  0.1381 -0.7299 -0.3346
   30MOL   C27215410   8.075   1.639   7.812  0.0343  1.1606  0.3227
   30MOL   C27315411   7.982   1.740   7.845 -0.7801 -0.3743 -0.4444
   30MOL   C27415412   7.967   1.848   7.755 -0.2604 -0.6547 -0.0964
   30MOL   C27515413   8.050   1.864   7.643  0.5007 -0.2135  0.3621
   30MOL   C27615414   8.140   1.761   7.609 -0.0992 -0.2697 -0.7816
   30MOL   H27715415   7.855   1.553   8.043  0.4248 -0.0200  2.5559
   30MOL   H27815416   7.923   1.407   8.118  1.4492  0.8061  1.2558
   30MOL   H27915417   8.111   1.385   8.030  0.2640 -0.6742 -0.8416
   30MOL   H28015418   0.137   1.541   7.502  0.5616  1.4506  1.3964
   30MOL   H28115419   0.258   1.337   7.551  0.1064 -1.3197  0.8155
   30MOL   H28215420   0.198   1.203   7.768  1.7849  0.6480 -0.7501
   30MOL   H28315421   0.031   1.284   7.914  1.5088 -2.3608 -0.5616
   30MOL   H28415422   7.927   1.741   7.938 -0.3092  0.1747 -0.1701
   30MOL   H28515423   7.898   1.930   7.770  1.0387  0.0028  2.5092
   30MOL   H28615424   8.043   1.955   7.586  1.7222  0.9950  2.0734
   30MOL   H28715425   8.205   1.774   7.524 -0.0397 -3.0200 -1.1978
   30MOL   C28815426   8.109   1.579   8.118  0.4418  0.3475  0.5973
   30MOL   C28915427   0.041   1.600   8.131  0.2453 -0.1198  0.7379
   30MOL   N29015428   0.084   1.716   8.061 -0.3133 -0.1552 -0.8881
   30MOL   C29115429   0.190   1.730   7.964  0.1993  0.0709 -0.3929
   30MOL   C29215430   0.192   1.864   7.911  0.4646  0.5942 -0.8990
   30MOL   C29315431   0.285   1.894   7.804 -1.0011 -0.4406 -1.0236
   30MOL   C29415432   0.369   1.797   7.750 -0.2065 -0.2122  0.3364
   30MOL   C29515433   0.371   1.669   7.813 -0.6805 -0.2219  0.1072
   30MOL   C29615434   0.281   1.629   7.918  0.5537 -0.6628  0.0657
   30MOL   C29715435   0.097   1.936   7.989  0.0313 -0.6109 -0.9985
   30MOL   C29815436   0.036   1.848   8.088  0.8174 -0.3622 -0.8897
   30MOL   C29915437   8.149   1.896   8.166 -0.3187 -0.4968 -0.3485
   30MOL   C30015438   8.119   2.034   8.161  0.3179 -0.1581 -0.2665
   30MOL   C30115439   8.198   2.119   8.080 -0.6093  0.2795 -0.2603
   30MOL   C30215440   0.064   2.073   7.992 -0.3561  0.4749 -0.2450
   30MOL   H30315441   8.068   1.679   8.103  1.0492  0.6204  0.7271
   30MOL   H30415442   8.063   1.543   8.211 -1.7383  0.7616 -0.2997
   30MOL   H30515443   0.079   1.518   8.070 -0.0685  1.0056 -1.0072
   30MOL   H30615444   0.289   1.996   7.771 -0.7724 -0.5819 -1.4490
   30MOL   H30715445   0.435   1.809   7.665  0.8979 -0.1745  1.1891
   30MOL   H30815446   0.440   1.599   7.770 -0.2160 -0.2890  0.9411
   30MOL   H30915447   0.293   1.531   7.963  0.3705 -0.5485  0.3632
   30MOL   H31015448   8.106   1.833   0.015 -0.6840 -0.3182 -0.4070
   30MOL   H31115449   8.041   2.067   0.001  0.9093  1.1290 -0.2064
   30MOL   H31215450   8.168   2.223   8.084 -0.3101  0.3829 -0.6412
   30MOL   H31315451   0.110   2.141   7.921 -0.2121 -1.4309 -2.0099
   30MOL   C31415452   0.090   1.592   0.052  0.2058 -0.4023 -0.5231
   30MOL   C31515453   0.095   1.453   0.118  0.6399 -0.2908  0.3920
   30MOL   N31615454   0.168   1.352   0.029  0.1276  0.3105  0.6478
   30MOL   C31715455   0.116   1.231   8.199 -0.7841 -0.2170  0.1596
   30MOL   C31815456   0.219   1.171   8.122 -0.2147  0.5910  0.1794
   30MOL   C31915457   0.192   1.049   8.055  0.0299  0.4263  0.1437
   30MOL   C32015458   0.066   0.988   8.048  0.0649  0.3552  0.0575
   30MOL   C32115459   8.192   1.047   8.123  0.9992 -0.9807 -0.0309
   30MOL   C32215460   8.220   1.162   8.201  0.5733  0.9238 -0.6836
   30MOL   C32315461   0.336   1.249   8.137 -0.1692 -0.1630 -0.6326
   30MOL   C32415462   0.299   1.368   8.214 -0.2046  0.8852  0.5793
   30MOL   C32515463   0.398   1.470   0.009 -0.3914  0.3149  0.5782
   30MOL   C32615464   0.525   1.463   8.182 -0.3538  0.2739  0.1770
   30MOL   C32715465   0.563   1.349   8.113 -0.0608 -0.5510 -0.0755
   30MOL   C32815466   0.470   1.241   8.092 -0.5622 -0.4514  0.1038
   30MOL   H32915467   0.184   1.648   0.053 -0.4956  0.7708  0.4586
   30MOL   H33015468   0.026   1.653   0.115  0.5554  0.3111 -0.8608
   30MOL   H33115469   8.220   1.417   0.125  0.6638 -0.0493  2.2480
   30MOL   H33215470   0.268   0.985   8.012 -3.4080 -3.5664 -0.2929
   30MOL   H33315471   0.057   0.897   7.991  3.4124 -1.6358  2.5909
   30MOL   H33415472   8.101   0.993   8.144  0.3331  0.0185 -0.3547
   30MOL   H33515473   8.144   1.199   0.041 -0.8306 -2.0983 -0.5340
   30MOL   H33615474   0.372   1.550   0.077  0.3831 -1.1928  2.7183
   30MOL   H33715475   0.598   1.541   8.199 -0.3091  0.2723 -0.0118
   30MOL   H33815476   0.663   1.353   8.074  0.2837  0.4059  0.8805
   30MOL   H33915477   0.504   1.161   8.029 -0.0446 -0.6656  0.6476
   30MOL   C34015478   0.152   1.463   0.266  0.4630 -0.1310  0.5565
   30MOL   C34115479   0.217   1.336   0.334  0.6303 -0.6521 -0.6769
   30MOL   N34215480   0.258   1.357   0.473  0.3320 -0.5112 -0.6588
   30MOL   C34315481   0.392   1.365   0.523  0.5797 -0.5752 -0.0683
   30MOL   C34415482   0.389   1.387   0.666  0.4512 -0.0449  0.4438
   30MOL   C34515483   0.512   1.389   0.736  0.3203 -0.5202 -0.0094
   30MOL   C34615484   0.635   1.383   0.671 -0.3019 -0.3959 -0.1739
   30MOL   C34715485   0.647   1.371   0.532  1.0165 -0.2769 -0.4232
   30MOL   C34815486   0.525   1.360   0.458 -0.1915  0.7133  0.0134
   30MOL   C34915487   0.247   1.391   0.701 -0.0706 -0.5378  0.2186
   30MOL   C35015488   0.171   1.372   0.582  0.5240 -0.1338 -0.0426
   30MOL   C35115489   0.029   1.377   0.586 -0.2622 -0.5626  0.4557
   30MOL   C35215490   8.189   1.395   0.703  0.8887  0.3499 -0.1420
   30MOL   C35315491   0.036   1.394   0.828  0.0718 -0.2299 -0.3790
   30MOL   C35415492   0.178   1.396   0.822 -0.2384  0.3090 -0.2459
   30MOL   H35515493   0.233   1.535   0.255 -0.3092  0.6229 -0.3744
   30MOL   H35615494   0.077   1.509   0.331 -0.1113 -1.2290  0.6750
   30MOL   H35715495   0.303   1.317   0.271  2.0545  1.6372  0.5032
   30MOL   H35815496   0.508   1.396   0.844  0.9134 -2.4511  0.1718
   30MOL   H35915497   0.724   1.388   0.732 -1.3220 -0.4567  1.3455
   30MOL   H36015498   0.749   1.354   0.505  0.3802 -1.8048 -1.9331
   30MOL   H36115499   0.525   1.329   0.355 -0.0506 -0.5895  0.3972
   30MOL   H36215500   8.199   1.359   0.496 -1.6286  0.2771  1.1428
   30MOL   H36315501   8.081   1.396   0.704  0.8746  1.9750 -2.1299
   30MOL   H36415502   8.214   1.410   0.923 -0.9295 -0.1694 -0.9057
   30MOL   H36515503   0.233   1.412   0.914 -0.1667 -1.7858  0.0968
   30MOL   C36615504   0.132   1.212   0.322  0.9995 -0.7662  0.6464
   30MOL   C36715505   0.213   1.079   0.300 -0.3987  0.1629  0.0340
   30MOL   N36815506   0.312   1.047   0.396 -0.5392 -0.2111 -0.2274
   30MOL   C36915507   0.453   1.043   0.373  0.0525 -0.3259  0.4780
   30MOL   C37015508   0.525   1.014   0.494 -0.3240  0.7401 -0.1166
   30MOL   C37115509   0.672   1.009   0.486 -0.1406  0.5155 -0.3000
   30MOL   C37215510   0.744   1.018   0.362 -0.0405 -0.2559  0.0804
   30MOL   C37315511   0.666   1.033   0.246  0.1746 -1.1774  0.0460
   30MOL   C37415512   0.526   1.049   0.251 -0.6574  0.1216  0.5044
   30MOL   C37515513   0.428   1.023   0.594 -0.1420 -0.1873  0.3177
   30MOL   C37615514   0.298   1.042   0.541  0.5456 -0.6959  0.4812
   30MOL   C37715515   0.184   1.051   0.623 -0.6326  0.2756  0.4024
   30MOL   C37815516   0.202   1.071   0.759  0.9311  0.4364 -0.1088
   30MOL   C37915517   0.328   1.064   0.814  0.6335  0.2062 -0.0978
   30MOL   C38015518   0.438   1.040   0.734 -0.4975  0.2549 -0.0786
   30MOL   H38115519   0.067   1.191   0.407 -1.3730 -0.0691 -0.9247
   30MOL   H38215520   0.062   1.218   0.239 -1.2980 -0.8196  2.5335
   30MOL   H38315521   0.271   1.090   0.209 -0.6931  0.3876 -0.1276
   30MOL   H38415522   0.736   0.990   0.572 -0.9882 -0.2355  0.1765
   30MOL   H38515523   0.851   1.012   0.349 -0.2290 -0.8154 -1.3072
   30MOL   H38615524   0.720   1.022   0.154  0.4078  2.0847 -0.2506
   30MOL   H38715525   0.477   1.058   0.155  1.0276  0.9983 -0.2973
   30MOL   H38815526   0.082   1.048   0.588 -1.1468  0.5615  1.8463
   30MOL   H38915527   0.120   1.082   0.829 -0.4034 -2.0161 -1.1931
   30MOL   H39015528   0.345   1.083   0.919  0.5103  2.9564 -0.5442
   30MOL   H39115529   0.533   1.058   0.783 -1.1400 -1.5434  1.9065
   30MOL   C39215530   0.119   0.958   0.295  0.6040  0.2906  0.2694
   30MOL   C39315531   0.188   0.814   0.267  0.3440  0.2767  0.2823
   30MOL   N39415532   0.096   0.704   0.279 -0.3030 -0.1764 -0.1454
   30MOL   C39515533   0.096   0.607   0.379 -0.2500  0.3982  0.2853
   30MOL   C39615534   0.003   0.501   0.347 -0.2148 -0.3434 -0.2750
   30MOL   C39715535   0.001   0.390   0.429 -0.7296  0.1012 -0.0556
   30MOL   C39815536   0.082   0.381   0.538 -0.2934  0.5832 -1.1277
   30MOL   C39915537   0.174   0.480   0.569 -0.2132  0.0915  0.6760
   30MOL   C40015538   0.184   0.593   0.487  0.6211  0.3108 -0.7472
   30MOL   C40115539   8.168   0.537   0.223 -0.1311 -0.3666  0.6059
   30MOL   C40215540   8.220   0.668   0.185  0.1179 -0.2418  0.5149
   30MOL   C40315541   8.181   0.726   0.072  0.7362 -0.3627  0.4834
   30MOL   C40415542   8.093   0.656   8.212  0.0430  0.3324  0.2968
   30MOL   C40515543   8.052   0.525   0.006  0.5886  0.2734  0.1020
   30MOL   C40615544   8.080   0.472   0.132  0.0464 -0.7545  0.7134
   30MOL   H40715545   0.064   0.939   0.387  1.2644  0.8209  0.7736
   30MOL   H40815546   0.043   0.988   0.223  1.2024 -1.6968 -1.2659
   30MOL   H40915547   0.262   0.796   0.345  0.8365  0.2778 -0.1772
   30MOL   H41015548   8.167   0.304   0.406 -0.5312  0.0601 -0.4493
   30MOL   H41115549   0.090   0.293   0.600  0.2596  1.7380  0.4576
   30MOL   H41215550   0.241   0.479   0.654  1.3911  2.8184 -0.4940
   30MOL   H41315551   0.261   0.665   0.511  1.1096 -0.6973  0.7188
   30MOL   H41415552   8.203   0.830   0.050 -1.2111  0.0524  0.4300
   30MOL   H41515553   8.066   0.711   8.124  0.9944 -0.3586 -0.4425
   30MOL   H41615554   7.975   0.478   8.174  0.4940  1.2213 -0.5299
   30MOL   H41715555   8.048   0.371   0.153 -0.6696 -0.7514 -0.3206
   30MOL   C41815556   0.264   0.806   0.133 -0.4218  0.3511  0.2860
   30MOL   C41915557   0.304   0.667   0.068 -0.4037  0.7464 -0.1677
   30MOL   N42015558   0.359   0.678   8.159  0.0056  0.2327 -0.4467
   30MOL   C42115559   0.289   0.646   8.045  0.4323  0.6725  0.1302
   30MOL   C42215560   0.368   0.681   7.932 -0.1636  0.3372 -0.3624
   30MOL   C42315561   0.334   0.633   7.804 -0.3237  0.1588 -0.3306
   30MOL   C42415562   0.211   0.569   7.791  0.4313  0.1189 -0.2039
   30MOL   C42515563   0.121   0.544   7.895 -0.2383  0.6218 -0.0261
   30MOL   C42615564   0.168   0.574   8.024 -0.9048 -0.5744 -0.1637
   30MOL   C42715565   0.488   0.740   7.981  0.2006 -0.5045 -0.4938
   30MOL   C42815566   0.479   0.741   8.122 -0.0453  0.2700 -0.0637
   30MOL   C42915567   0.581   0.807   8.193  0.5494  0.8492  0.0237
   30MOL   C43015568   0.693   0.864   8.124  0.6912 -0.5966 -0.6355
   30MOL   C43115569   0.700   0.864   7.988  0.1711 -0.2182  0.5938
   30MOL   C43215570   0.605   0.794   7.918 -0.5208 -0.1744  0.0644
   30MOL   H43315571   0.191   0.853   0.066  0.0272  1.6598  0.7165
   30MOL   H43415572   0.350   0.872   0.131 -0.4353  0.3636  0.0046
   30MOL   H43515573   0.215   0.604   0.062 -0.9773  1.1873  2.9413
   30MOL   H43615574   0.403   0.642   7.721  0.4303  0.4097  0.3103
   30MOL   H43715575   0.189   0.543   7.688 -2.2758  1.3693  0.0198
   30MOL   H43815576   0.024   0.498   7.884 -0.9868  2.3016 -0.6102
   30MOL   H43915577   0.116   0.542   8.114 -0.3438  0.2516  0.4615
   30MOL   H44015578   0.593   0.809   0.073  1.5384  5.0824 -0.0609
   30MOL   H44115579   0.772   0.907   8.184  1.4707 -3.4112  0.4214
   30MOL   H44215580   0.778   0.922   7.939  0.6446 -0.7514  0.7145
   30MOL   H44315581   0.603   0.790   7.810  1.8441  1.0375 -0.0497
   30MOL   C44415582   0.393   0.584   0.164  0.1751 -0.7760  0.1760
   30MOL   C44515583   0.504   0.488   0.118 -0.1689  0.1708  0.4885
   30MOL   N44615584   0.586   0.451   0.230 -0.4109  0.0197 -0.0050
   30MOL   C44715585   0.707   0.515   0.253 -0.4430 -0.0743  0.0697
   30MOL   C44815586   0.764   0.459   0.370  0.0952 -0.1389  0.2500
   30MOL   C44915587   0.886   0.500   0.420  0.2544 -0.1001  0.2219
   30MOL   C45015588   0.950   0.612   0.356 -0.3202 -0.0121  0.0513
   30MOL   C45115589   0.891   0.677   0.249 -0.1654  0.2164 -0.7160
   30MOL   C45215590   0.773   0.622   0.193  0.2505  0.1531 -0.0086
   30MOL   C45315591   0.665   0.376   0.426 -0.2019 -0.1359 -0.1146
   30MOL   C45415592   0.549   0.380   0.349  0.0644  0.5165  0.2517
   30MOL   C45515593   0.430   0.312   0.389 -0.4288  0.5030 -0.0876
   30MOL   C45615594   0.430   0.247   0.508  0.2769  0.4316 -0.8079
   30MOL   C45715595   0.545   0.237   0.589 -0.2624 -0.0856  0.2901
   30MOL   C45815596   0.660   0.301   0.547  0.7510  0.1764  0.4566
   30MOL   H45915597   0.457   0.653   0.220  0.8462 -1.6575  0.5077
   30MOL   H46015598   0.334   0.525   0.233 -1.5964  0.8539  0.1051
   30MOL   H46115599   0.568   0.547   0.052  1.6420 -1.6267  0.6094
   30MOL   H46215600   0.939   0.440   0.492 -0.5796 -2.3914 -1.0058
   30MOL   H46315601   1.043   0.649   0.397 -0.1380 -0.9041  0.4432
   30MOL   H46415602   0.928   0.767   0.202  0.0318  1.0553  1.0153
   30MOL   H46515603   0.721   0.662   0.108  2.4259  0.2602 -1.3367
   30MOL   H46615604   0.340   0.312   0.328 -0.7915  1.6554  0.4179
   30MOL   H46715605   0.342   0.191   0.537  0.1329 -0.3315 -2.6517
   30MOL   H46815606   0.545   0.175   0.677  0.5997  0.3397  0.5933
   30MOL   H46915607   0.754   0.285   0.597  1.2061  0.4160 -0.3101
   30MOL   C47015608   0.447   0.372   0.042  0.2983 -0.0142  1.2306
   30MOL   C47115609   0.560   0.285   8.205 -1.0303 -0.1494 -0.3147
   30MOL   N47215610   0.510   0.161   8.143 -0.3985  0.0869 -0.2784
   30MOL   C47315611   0.547   0.030   8.187  0.5312  0.1931 -0.1464
   30MOL   C47415612   0.484   8.163   8.103  0.1316 -0.2803 -0.8958
   30MOL   C47515613   0.505   8.026   8.132 -0.4861 -1.1292 -0.2763
   30MOL   C47615614   0.596   7.981   0.008  0.0737  0.2647 -0.3065
   30MOL   C47715615   0.654   8.086   0.086  0.6314  0.1674 -0.2676
   30MOL   C47815616   0.630   8.220   0.062  0.3419 -0.2329  0.1477
   30MOL   C47915617   0.408   0.010   8.004  0.5584 -0.2284  0.3959
   30MOL   C48015618   0.419   0.148   8.034  0.1357 -0.3373 -0.3227
   30MOL   C48115619   0.350   0.244   7.959 -0.2125  0.1513  0.2751
   30MOL   C48215620   0.292   0.202   7.840 -0.4491 -0.1319 -0.1036
   30MOL   C48315621   0.282   0.069   7.805 -0.1080  0.5921  0.1101
   30MOL   C48415622   0.333   8.197   7.895 -0.2502 -0.4951 -0.0067
   30MOL   H48515623   0.381   0.313   0.105 -1.7793  1.5018  0.5432
   30MOL   H48615624   0.379   0.403   8.190  0.8833 -0.2564  0.6254
   30MOL   H48715625   0.623   0.256   0.061 -0.0491  4.1472  0.5740
   30MOL   H48815626   0.456   7.954   8.068  0.7712 -0.8095 -1.6164
   30MOL   H48915627   0.610   7.877   0.033 -0.1452  0.5783  1.1797
   30MOL   H49015628   0.707   8.055   0.176 -0.3729  0.3632  0.3930
   30MOL   H49115629   0.664   0.061   0.139  0.9963 -1.2936  0.8156
   30MOL   H49215630   0.354   0.350   7.976 -0.9463  0.4098 -1.0667
   30MOL   H49315631   0.232   0.270   7.781 -1.3661  0.0458  1.0063
   30MOL   H49415632   0.222   0.030   7.724  0.6190  0.3967 -0.3354
   30MOL   H49515633   0.346   8.091   7.877 -2.0803 -0.8769  0.7885
   30MOL   C49615634   0.632   0.368   8.096  0.2455 -0.4562 -0.4348
   30MOL   C49715635   0.746   0.302   8.019  0.0952 -0.9789  0.6286
   30MOL   N49815636   0.795   0.401   7.925  0.6410  0.1684 -0.2064
   30MOL   C49915637   0.730   0.435   7.808 -0.1578 -0.0017  0.5616
   30MOL   C50015638   0.811   0.538   7.737 -0.3361  1.1080 -0.1244
   30MOL   C50115639   0.772   0.585   7.615  0.0139  0.3426  0.0141
   30MOL   C50215640   0.650   0.546   7.562 -0.0973  0.4511  0.5609
   30MOL   C50315641   0.566   0.448   7.624  0.2874 -0.0075 -0.5469
   30MOL   C50415642   0.605   0.389   7.749  0.2593  0.2908 -0.2051
   30MOL   C50515643   0.925   0.572   7.822  0.0772  0.2178 -0.5858
   30MOL   C50615644   0.907   0.491   7.939 -0.7654 -0.1710 -0.0571
   30MOL   C50715645   0.999   0.503   8.051  0.1700  0.4747 -0.0211
   30MOL   C50815646   1.109   0.591   8.049 -0.5334 -0.0743  0.0807
   30MOL   C50915647   1.122   0.672   7.931  0.3832  0.5396  0.0457
   30MOL   C51015648   1.033   0.663   7.820 -0.0011 -0.6671 -0.5402
   30MOL   H51115649   0.563   0.416   8.027  1.5224  1.2609 -0.5543
   30MOL   H51215650   0.681   0.453   8.143 -1.3560  0.0798  0.2664
   30MOL   H51315651   0.702   0.226   7.955 -2.1588  1.5273 -0.9125
   30MOL   H51415652   0.831   0.659   7.562  2.3730 -2.4478 -1.3550
   30MOL   H51515653   0.631   0.579   7.461 -1.1784 -1.1462  0.2186
   30MOL   H51615654   0.482   0.403   7.574 -1.0224  1.5771  0.1794
   30MOL   H51715655   0.548   0.306   7.787  0.0533  0.8476  0.7206
   30MOL   H51815656   0.985   0.442   8.139 -0.3249  1.4257  0.5714
   30MOL   H51915657   1.185   0.589   8.127  0.0721 -1.4702 -0.5314
   30MOL   H52015658   1.202   0.745   7.921  1.7125 -1.1186 -1.8082
   30MOL   H52115659   1.060   0.712   7.728  0.2828 -2.4834 -1.4576
   30MOL   H52215660   0.829   0.274   8.083  0.4075 -0.1901  0.5748
   31MOL     C115661   6.404   8.091   8.093  0.6758 -0.4121  0.3221
   31MOL     C215662   6.524   8.082   8.190  0.6941  0.7535  0.3175
   31MOL     N315663   6.635   8.008   8.139  0.2128 -0.0922 -0.0171
   31MOL     C415664   6.721   8.037   8.028  0.5114  0.5172 -0.2609
   31MOL     C515665   6.817   7.936   8.009  0.1952 -0.3834 -0.2199
   31MOL     C615666   6.920   7.945   7.916  0.2294  0.4901 -0.1902
   31MOL     C715667   6.928   8.055   7.838 -0.4566  0.1068  0.6162
   31MOL     C815668   6.832   8.164   7.848  0.1574  0.4996  0.3640
   31MOL     C915669   6.724   8.150   7.937 -0.2911  0.4448  0.3353
   31MOL    C1015670   6.783   7.831   8.103 -0.4206 -0.2811  0.0863
   31MOL    C1115671   6.682   7.883   8.188  0.0313  0.3000 -0.0175
   31MOL    C1215672   6.627   7.807   0.068 -0.0320  0.5872  0.0949
   31MOL    C1315673   6.691   7.686   0.104 -0.0869 -0.5550  0.0671
   31MOL    C1415674   6.788   7.631   0.016 -0.9585  0.2856 -0.1829
   31MOL    C1515675   6.830   7.698   8.128 -0.0718 -0.0874  0.5071
   31MOL    H1615676   6.359   7.994   8.071  0.6477 -0.1940 -0.6000
   31MOL    H1715677   6.436   8.131   7.997  1.7330 -1.0875  0.3892
   31MOL    H1815678   6.472   8.024   0.039  0.3590  1.9838  1.0382
   31MOL    H1915679   6.984   7.859   7.901 -1.1089 -0.7830  1.2492
   31MOL    H2015680   7.010   8.059   7.768 -0.7003 -0.3438  0.3021
   31MOL    H2115681   6.836   0.026   7.788 -0.5898  0.8503  0.8246
   31MOL    H2215682   6.652   0.002   7.956  0.7449  0.6972  3.6065
   31MOL    H2315683   6.549   7.846   0.132 -1.4405  1.4845 -2.1094
   31MOL    H2415684   6.667   7.649   0.202  1.6477  0.2446  0.8115
   31MOL    H2515685   6.848   7.548   0.050  0.1286  2.3129  3.1879
   31MOL    H2615686   6.916   7.662   8.073 -0.4682  0.3399 -0.4192
   31MOL    H2715687   6.329   8.157   8.138 -1.0198 -1.0516 -1.5030
   31MOL    C2815688   6.568   8.210   0.028  0.7427 -0.3768  0.0701
   31MOL    C2915689   6.472   0.064   0.126 -0.1450 -0.4830 -0.0616
   31MOL    N3015690   6.385   8.217   0.214  0.5802 -0.2715 -0.5089
   31MOL    C3115691   6.243   0.001   0.223 -0.2643 -0.4404  0.2638
   31MOL    C3215692   6.197   8.135   0.323  0.5199 -0.9208 -0.3485
   31MOL    C3315693   6.061   8.131   0.347 -0.1124 -0.3770 -0.0967
   31MOL    C3415694   5.973   8.209   0.271 -0.1611 -0.0700 -0.1158
   31MOL    C3515695   6.019   0.074   0.172  0.6357  0.0080  0.1439
   31MOL    C3615696   6.155   0.096   0.161 -0.3760  0.4876 -0.0096
   31MOL    C3715697   6.310   8.068   0.377  0.7578  0.0371 -0.5169
   31MOL    C3815698   6.421   8.113   0.304  0.1541 -0.3083 -0.9179
   31MOL    C3915699   6.549   8.056   0.328 -0.1772 -0.5627  0.2601
   31MOL    C4015700   6.558   7.964   0.436  0.9373 -0.7206 -0.1677
   31MOL    C4115701   6.451   7.917   0.506  0.2553 -0.5831  0.9354
   31MOL    C4215702   6.327   7.971   0.480  0.4267  0.6556  0.7005
   31MOL    H4315703   6.657   8.190   0.089  0.3568 -0.9028  0.4676
   31MOL    H4415704   6.597   0.059   8.183  1.3008  1.4873  2.2011
   31MOL    H4515705   6.411   0.134   0.069  1.4112 -0.3165 -1.5823
   31MOL    H4615706   6.027   8.066   0.427  0.5694 -0.1747  0.3572
   31MOL    H4715707   5.868   8.193   0.288  0.4573 -1.4942  2.5718
   31MOL    H4815708   5.953   0.140   0.117 -1.0029  0.7437  2.8884
   31MOL    H4915709   6.201   0.168   0.095  1.6067  0.4015  1.2193
   31MOL    H5015710   6.634   8.079   0.266  0.0524 -0.6175  0.5517
   31MOL    H5115711   6.652   7.924   0.470  0.4218  0.0748  2.2542
   31MOL    H5215712   6.460   7.855   0.593 -2.5018 -0.8521  1.0742
   31MOL    H5315713   6.247   7.931   0.540  1.2412  0.2361  1.5174
   31MOL    C5415714   6.554   0.162   0.216  0.2998 -0.9546  0.0049
   31MOL    C5515715   6.638   0.268   0.149  0.1760  0.6478  0.4922
   31MOL    N5615716   6.552   0.354   0.072  0.2784 -0.2674  0.2073
   31MOL    C5715717   6.576   0.388   8.163  0.0424  0.2399 -0.1100
   31MOL    C5815718   6.471   0.466   8.116  0.5654  0.3065  0.3572
   31MOL    C5915719   6.470   0.508   7.978 -0.1361 -0.4836  0.1658
   31MOL    C6015720   6.580   0.477   7.898  0.4102 -0.1143  0.4379
   31MOL    C6115721   6.686   0.395   7.948 -0.0470  0.0419 -0.3179
   31MOL    C6215722   6.682   0.347   8.084  0.1920 -0.3391  0.4593
   31MOL    C6315723   6.380   0.484   0.003  0.1839  0.4065  0.8558
   31MOL    C6415724   6.437   0.421   0.114  0.2648  0.0918 -0.9647
   31MOL    C6515725   6.376   0.431   0.242  0.8704 -0.7169  0.7351
   31MOL    C6615726   6.250   0.494   0.260  0.5252 -0.2031 -0.0081
   31MOL    C6715727   6.197   0.553   0.146  0.1402 -0.5358 -0.4252
   31MOL    C6815728   6.255   0.550   0.019  0.5479  0.1330 -0.4246
   31MOL    H6915729   6.500   0.207   0.299  0.4866 -1.1819  0.2506
   31MOL    H7015730   6.630   0.098   0.262  0.7568 -1.0061 -0.8076
   31MOL    H7115731   6.696   0.214   0.075  0.1582 -1.0773  1.6944
   31MOL    H7215732   6.388   0.558   7.929  0.7252 -1.3198 -2.1896
   31MOL    H7315733   6.577   0.510   7.795 -1.6663  0.6556  0.7117
   31MOL    H7415734   6.758   0.375   7.871 -0.5061  0.2122 -0.7974
   31MOL    H7515735   6.764   0.283   8.115  2.4853  2.1291 -0.2618
   31MOL    H7615736   6.410   0.385   0.333 -2.2879  0.9155  2.8402
   31MOL    H7715737   6.205   0.504   0.357  1.0744 -1.2585  0.3497
   31MOL    H7815738   6.104   0.608   0.146  0.2830 -0.2919 -0.6839
   31MOL    H7915739   6.202   0.592   8.162  1.7337  0.5632 -0.9671
   31MOL    C8015740   6.724   0.343   0.247 -0.3344  0.6664  0.4850
   31MOL    C8115741   6.836   0.256   0.316  0.6272 -0.3571 -0.5686
   31MOL    N8215742   6.908   0.166   0.229  0.0048 -0.5197  0.5739
   31MOL    C8315743   6.926   0.029   0.236 -0.0528 -0.3319  0.0570
   31MOL    C8415744   6.960   8.204   0.106  0.3021 -0.4637  0.0734
   31MOL    C8515745   6.956   8.063   0.089 -0.6594  0.3658 -0.6267
   31MOL    C8615746   6.931   7.976   0.197 -0.8808  0.2978  0.1383
   31MOL    C8715747   6.896   8.030   0.326  0.3365 -0.4617 -0.8570
   31MOL    C8815748   6.899   8.167   0.342 -0.0643 -0.5872 -0.3065
   31MOL    C8915749   6.993   0.091   0.031  0.1788 -0.7208  0.5834
   31MOL    C9015750   6.965   0.206   0.109  0.0506 -0.0279 -0.5256
   31MOL    C9115751   6.987   0.336   0.054 -0.4398  0.1246 -0.1648
   31MOL    C9215752   7.049   0.356   8.149 -0.1921 -0.1553 -0.0416
   31MOL    C9315753   7.071   0.240   8.079 -0.1532  0.2597  0.3212
   31MOL    C9415754   7.049   0.106   8.131  0.1317 -0.1461  0.6332
   31MOL    H9515755   6.765   0.423   0.186 -0.5021 -0.1049 -0.6393
   31MOL    H9615756   6.661   0.399   0.317 -0.0969  0.4739  0.8569
   31MOL    H9715757   6.784   0.189   0.383  1.7628  0.1783  0.8905
   31MOL    H9815758   6.985   8.019   8.222 -1.5357 -2.9963  0.5999
   31MOL    H9915759   6.939   7.870   0.179  1.2093  0.5683 -0.6547
   31MOL   H10015760   6.885   7.965   0.411  1.2996 -0.2908 -0.5928
   31MOL   H10115761   6.858   8.197   0.437  0.8825 -0.7294  0.1469
   31MOL   H10215762   6.958   0.426   0.106 -3.2161 -0.7771 -0.0943
   31MOL   H10315763   7.059   0.455   8.106 -1.4348  0.0750  0.1619
   31MOL   H10415764   7.103   0.246   7.976 -0.2287  0.0663  0.2869
   31MOL   H10515765   7.072   0.023   8.065 -0.6960  1.8136 -2.1928
   31MOL   C10615766   6.936   0.347   0.393  0.6473  0.0904 -0.2183
   31MOL   C10715767   6.885   0.416   0.520 -0.3580 -0.4262  0.0526
   31MOL   N10815768   6.779   0.332   0.580 -0.1354  0.6001  0.0585
   31MOL   C10915769   6.638   0.367   0.595  0.3186  0.1633  0.8030
   31MOL   C11015770   6.574   0.266   0.674  0.8667  0.0709 -0.4024
   31MOL   C11115771   6.436   0.277   0.705  0.2640 -0.6575 -0.2419
   31MOL   C11215772   6.361   0.380   0.657  1.1385  0.2087  0.9789
   31MOL   C11315773   6.418   0.476   0.575 -0.1598  0.3599 -0.3159
   31MOL   C11415774   6.562   0.477   0.556 -0.0259 -0.0819  0.0346
   31MOL   C11515775   6.670   0.165   0.705 -0.0890 -0.2760  0.2594
   31MOL   C11615776   6.795   0.213   0.648 -0.1191  0.8727  0.2348
   31MOL   C11715777   6.918   0.142   0.666 -0.1431  0.1661 -0.3339
   31MOL   C11815778   6.916   0.021   0.736 -0.0337 -0.1948  0.6012
   31MOL   C11915779   6.798   8.197   0.796 -0.7346  0.4015  0.1156
   31MOL   C12015780   6.678   0.039   0.775  0.0675  0.5948 -0.3896
   31MOL   H12115781   7.023   0.290   0.423  0.1250 -0.8623 -0.4840
   31MOL   H12215782   6.979   0.418   0.323  0.6574 -0.0093 -0.3140
   31MOL   H12315783   6.832   0.501   0.477  0.9855  0.4353  0.0915
   31MOL   H12415784   6.389   0.202   0.767  1.4383 -2.2261 -1.2132
   31MOL   H12515785   6.256   0.392   0.678 -0.1025 -2.2024 -3.1791
   31MOL   H12615786   6.352   0.557   0.550 -1.6911 -0.3942  1.1814
   31MOL   H12715787   6.611   0.557   0.502 -1.3563  1.1473  0.5948
   31MOL   H12815788   7.012   0.171   0.620  0.0614  1.9370  1.1380
   31MOL   H12915789   6.999   8.179   0.742 -0.7152 -1.1593 -0.7972
   31MOL   H13015790   6.792   8.104   0.850 -0.4269 -0.7732 -1.8290
   31MOL   H13115791   6.595   8.218   0.824 -0.8265  0.0217 -2.4121
   31MOL   C13215792   7.002   0.455   0.620 -0.2100  0.0541  0.6462
   31MOL   C13315793   7.064   0.586   0.561 -0.4708  0.4997  0.0179
   31MOL   N13415794   6.970   0.697   0.568  0.1887  0.2314  0.0146
   31MOL   C13515795   6.912   0.763   0.458 -0.2006  0.5168 -0.6871
   31MOL   C13615796   6.826   0.867   0.502  0.6373 -0.2228 -0.3548
   31MOL   C13715797   6.766   0.946   0.411 -0.2030 -0.1156 -0.0520
   31MOL   C13815798   6.768   0.915   0.269 -0.2853  0.0708 -0.6115
   31MOL   C13915799   6.832   0.798   0.227 -0.1312  0.9750 -0.4895
   31MOL   C14015800   6.911   0.721   0.321 -0.8182 -0.3019 -0.2775
   31MOL   C14115801   6.832   0.868   0.649  0.8795 -0.1983 -0.0269
   31MOL   C14215802   6.911   0.756   0.686 -0.1899 -0.3555  0.0342
   31MOL   C14315803   6.932   0.732   0.824  1.1410  0.1276 -0.1922
   31MOL   C14415804   6.886   0.824   0.919 -0.5171  1.0462  0.3668
   31MOL   C14515805   6.805   0.932   0.878 -0.1134  0.1437 -0.3131
   31MOL   C14615806   6.776   0.954   0.745  0.2664 -0.0464  0.0818
   31MOL   H14715807   6.962   0.467   0.720  1.0208  0.5258  1.0958
   31MOL   H14815808   7.073   0.372   0.627  0.0390  0.0459 -1.5197
   31MOL   H14915809   7.074   0.582   0.452  0.5596 -0.9325  0.1613
   31MOL   H15015810   6.711   1.034   0.441  2.3646  1.2680  0.6867
   31MOL   H15115811   6.722   0.989   0.205  0.5577  0.9959 -0.1785
   31MOL   H15215812   6.841   0.774   0.122  1.2606  0.7770 -0.3243
   31MOL   H15315813   6.974   0.643   0.282 -0.2306  0.0776 -0.1013
   31MOL   H15415814   6.992   0.648   0.854 -1.3342 -1.5545  0.1985
   31MOL   H15515815   6.901   0.807   1.025 -2.9087  0.0371  0.5709
   31MOL   H15615816   6.763   0.993   0.956  1.7455 -0.1470  0.9477
   31MOL   H15715817   6.703   1.027   0.712  0.9100  1.2379  1.4241
   31MOL   C15815818   7.203   0.627   0.622 -0.4283 -0.0122  0.4306
   31MOL   C15915819   7.322   0.523   0.602 -0.5177 -0.6382  0.8581
   31MOL   N16015820   7.315   0.460   0.467  1.0117 -0.1907 -0.4454
   31MOL   C16115821   7.317   0.330   0.446  0.0578  1.3296  0.5145
   31MOL   C16215822   7.305   0.306   0.310  0.3435  0.7116 -0.3670
   31MOL   C16315823   7.277   0.174   0.269 -0.9048  0.1429 -0.6452
   31MOL   C16415824   7.270   0.066   0.361  0.3172 -0.8739 -0.4661
   31MOL   C16515825   7.308   0.087   0.492  0.2944 -0.3125 -0.2747
   31MOL   C16615826   7.329   0.219   0.532 -0.2890 -0.2533 -0.0060
   31MOL   C16715827   7.305   0.437   0.245 -0.2999  0.7572 -0.2073
   31MOL   C16815828   7.322   0.531   0.348  0.1023  0.1769  0.4248
   31MOL   C16915829   7.321   0.664   0.311 -0.9818  0.9437 -0.8728
   31MOL   C17015830   7.301   0.708   0.179 -0.2689 -0.3863 -0.1937
   31MOL   C17115831   7.300   0.612   0.077 -0.1595 -0.1494  0.2767
   31MOL   C17215832   7.303   0.479   0.112 -0.0875  0.0090 -0.7529
   31MOL   H17315833   7.233   0.720   0.574  0.8293  0.5231  2.2071
   31MOL   H17415834   7.188   0.655   0.727 -2.0249  0.0492  0.2016
   31MOL   H17515835   7.301   0.454   0.684  0.2668 -2.9712 -0.8388
   31MOL   H17615836   7.255   0.158   0.165 -1.4036 -0.4588 -0.4553
   31MOL   H17715837   7.243   8.192   0.336  0.8528 -0.8423 -1.1643
   31MOL   H17815838   7.295   0.012   0.568 -0.8693  1.3640  1.2273
   31MOL   H17915839   7.342   0.227   0.639 -2.3030  1.0277  0.1779
   31MOL   H18015840   7.326   0.740   0.388 -1.4741 -0.4712  0.5800
   31MOL   H18115841   7.309   0.812   0.153 -1.8526 -0.4423 -0.9204
   31MOL   H18215842   7.296   0.633   8.199  0.9973  1.2771  0.5059
   31MOL   H18315843   7.307   0.400   0.039  1.9880  0.7417 -1.4779
   31MOL   C18415844   7.459   0.582   0.614 -0.0337  0.0122  0.1183
   31MOL   C18515845   7.498   0.652   0.751  0.5859 -0.1138 -0.0434
   31MOL   N18615846   7.457   0.564   0.863  0.3390  0.1507 -0.6631
   31MOL   C18715847   7.377   0.605   0.971  0.3044 -0.7889 -0.0199
   31MOL   C18815848   7.350   0.495   1.055 -0.0683 -0.6137  0.3239
   31MOL   C18915849   7.260   0.502   1.166  0.1299  0.6140  0.5833
   31MOL   C19015850   7.194   0.619   1.184  0.4735 -0.0102 -1.2844
   31MOL   C19115851   7.216   0.733   1.101 -0.2067 -0.5325 -0.2189
   31MOL   C19215852   7.309   0.722   0.995 -0.5689 -0.6458  0.3360
   31MOL   C19315853   7.420   0.385   1.002 -0.7094 -0.0254  0.5190
   31MOL   C19415854   7.497   0.432   0.891  0.2947 -0.5655  0.1094
   31MOL   C19515855   7.592   0.343   0.834  0.0908 -0.6257 -0.0885
   31MOL   C19615856   7.600   0.210   0.871  0.2868 -0.1260 -0.1262
   31MOL   C19715857   7.515   0.164   0.974 -0.8505  0.2910  0.6975
   31MOL   C19815858   7.422   0.248   1.033 -0.0741 -0.0065  0.0690
   31MOL   H19915859   7.538   0.514   0.583 -0.0023  0.3418 -0.5360
   31MOL   H20015860   7.478   0.648   0.530  1.9790 -0.8248 -0.1038
   31MOL   H20115861   7.442   0.745   0.757 -0.2105 -0.4497 -1.8963
   31MOL   H20215862   7.238   0.415   1.226  1.1606  0.0595  0.1711
   31MOL   H20315863   7.114   0.618   1.257  1.1219 -0.8939 -0.5685
   31MOL   H20415864   7.162   0.824   1.119 -1.6003 -1.5674  0.9839
   31MOL   H20515865   7.326   0.810   0.935 -0.1201  0.3761  1.9311
   31MOL   H20615866   7.648   0.377   0.748 -2.6562  1.7451 -1.0161
   31MOL   H20715867   7.669   0.150   0.813  0.6770 -1.6419  1.8300
   31MOL   H20815868   7.514   0.063   1.011 -1.0625  0.5083  1.2848
   31MOL   H20915869   7.360   0.201   1.108 -0.2155 -0.9716 -0.6460
   31MOL   C21015870   7.647   0.697   0.747  0.7482  0.5097 -0.0772
   31MOL   C21115871   7.682   0.809   0.654  0.0102 -0.0779  1.0827
   31MOL   N21215872   7.601   0.931   0.663 -0.3120  0.1266  0.3133
   31MOL   C21315873   7.542   1.002   0.555  0.8066  0.7290  0.0367
   31MOL   C21415874   7.461   1.103   0.609 -0.4632  0.4754 -1.1030
   31MOL   C21515875   7.389   1.191   0.521 -0.5931 -0.4101 -0.9058
   31MOL   C21615876   7.384   1.167   0.382 -0.3185 -0.2024 -0.2594
   31MOL   C21715877   7.467   1.060   0.334  0.4597 -0.0777  0.7659
   31MOL   C21815878   7.550   0.984   0.419  0.2112 -0.3805  0.2745
   31MOL   C21915879   7.472   1.097   0.753 -0.6295  0.2099 -0.7039
   31MOL   C22015880   7.569   1.003   0.779 -0.2912 -0.6985  0.1661
   31MOL   C22115881   7.614   0.982   0.914  0.9340 -0.5812  0.0715
   31MOL   C22215882   7.561   1.059   1.017 -0.4887 -0.2311  0.0788
   31MOL   C22315883   7.459   1.148   0.990  0.7017  0.1525 -0.0463
   31MOL   C22415884   7.419   1.171   0.860 -0.1971 -0.0886 -0.2164
   31MOL   H22515885   7.688   0.727   0.844 -0.2329  0.0438  0.4887
   31MOL   H22615886   7.706   0.608   0.724 -0.6650 -0.3288 -0.5152
   31MOL   H22715887   7.662   0.772   0.553 -0.1736  2.9102 -0.0266
   31MOL   H22815888   7.326   1.270   0.559  3.5065  1.4050  2.5898
   31MOL   H22915889   7.317   1.222   0.318  0.2436  1.7073  0.7659
   31MOL   H23015890   7.464   1.034   0.229 -3.4832  1.7396  0.3252
   31MOL   H23115891   7.607   0.897   0.391  0.4322 -0.1359 -0.0436
   31MOL   H23215892   7.696   0.917   0.943  2.0428  1.0160  0.5804
   31MOL   H23315893   7.587   1.033   1.118 -1.4192  1.6831  0.8205
   31MOL   H23415894   7.411   1.202   1.071 -1.2361 -1.7632  0.1245
   31MOL   H23515895   7.343   1.247   0.854  1.6933  2.0034  1.4148
   31MOL   C23615896   7.835   0.847   0.649 -0.1120 -0.8108  0.0287
   31MOL   C23715897   7.929   0.733   0.606 -0.5929 -0.4413  0.1590
   31MOL   N23815898   7.890   0.694   0.466 -0.7024  0.0326  0.4814
   31MOL   C23915899   7.838   0.567   0.429 -0.2097 -0.0954  0.0817
   31MOL   C24015900   7.802   0.570   0.294 -0.5257  0.2522 -0.0145
   31MOL   C24115901   7.730   0.456   0.244  1.0381  0.4967  0.0145
   31MOL   C24215902   7.700   0.345   0.327  0.6466 -0.0167 -0.2680
   31MOL   C24315903   7.754   0.335   0.455  0.1420 -0.0216 -0.4777
   31MOL   C24415904   7.816   0.451   0.507  0.1264  0.1743  0.1427
   31MOL   C24515905   7.827   0.700   0.240  0.7422  0.4817  0.2479
   31MOL   C24615906   7.891   0.777   0.350 -0.2365 -0.0296 -0.2771
   31MOL   C24715907   7.937   0.912   0.328  0.1489 -0.0356 -0.5551
   31MOL   C24815908   7.914   0.979   0.208  0.0224  0.1831  0.2361
   31MOL   C24915909   7.852   0.905   0.106 -1.0133  0.1583  0.1237
   31MOL   C25015910   7.804   0.773   0.124  0.6618  0.1318  0.2654
   31MOL   H25115911   7.840   0.936   0.588  0.7129 -1.1250 -0.3652
   31MOL   H25215912   7.859   0.880   0.751 -1.1192 -1.6672  0.5538
   31MOL   H25315913   7.888   0.652   0.667 -1.9200  1.0334  1.2749
   31MOL   H25415914   7.684   0.462   0.147 -0.1093 -0.6767  0.4628
   31MOL   H25515915   7.652   0.252   0.301  0.1845 -0.1405  1.0225
   31MOL   H25615916   7.729   0.261   0.529  0.2541  0.4331  0.0240
   31MOL   H25715917   7.850   0.446   0.609  1.1648 -1.4253 -0.2589
   31MOL   H25815918   7.993   0.957   0.408 -1.8687  0.6865  0.5052
   31MOL   H25915919   7.947   1.078   0.183  0.1838  0.5036  1.6775
   31MOL   H26015920   7.834   0.951   0.010  0.8051  1.4041  0.3476
   31MOL   H26115921   7.744   0.714   0.056 -0.8158  1.2928  0.5411
   31MOL   C26215922   8.081   0.755   0.633  0.1491  0.1220 -0.1794
   31MOL   C26315923   8.133   0.784   0.781 -0.4120  0.0195  0.4719
   31MOL   N26415924   8.044   0.749   0.888  0.0043 -0.2316 -0.5759
   31MOL   C26515925   7.983   0.845   0.977 -0.0837  0.9431 -0.5903
   31MOL   C26615926   7.900   0.778   1.072 -0.4057  0.1364  0.0370
   31MOL   C26715927   7.839   0.859   1.173  0.4380  0.3782  0.0085
   31MOL   C26815928   7.866   0.996   1.183 -0.0563  1.2374 -0.2392
   31MOL   C26915929   7.948   1.058   1.088  0.5990 -0.6386 -0.3777
   31MOL   C27015930   8.005   0.983   0.986  0.3809 -0.5894  0.0805
   31MOL   C27115931   7.897   0.636   1.032  0.0152 -0.2236 -0.5113
   31MOL   C27215932   7.988   0.623   0.925  0.8950 -0.5020 -0.2958
   31MOL   C27315933   8.003   0.499   0.862 -0.2589 -0.0084 -0.5165
   31MOL   C27415934   7.934   0.390   0.906  0.5483  0.7976  0.3046
   31MOL   C27515935   7.854   0.390   1.021 -0.5865  0.0212  0.1001
   31MOL   C27615936   7.841   0.518   1.084  0.2215 -0.1749 -0.1621
   31MOL   H27715937   8.124   0.666   0.587 -1.9764 -0.3557 -1.2773
   31MOL   H27815938   8.117   0.830   0.562 -3.6092  2.7956  0.5605
   31MOL   H27915939   8.155   0.890   0.789 -0.6816  0.3195 -2.1918
   31MOL   H28015940   7.781   0.823   1.257 -0.6415 -1.5786 -1.5283
   31MOL   H28115941   7.820   1.063   1.254 -0.5668 -0.1551  0.7522
   31MOL   H28215942   7.972   1.164   1.086 -2.6929  0.2277  1.6763
   31MOL   H28315943   8.067   1.038   0.916  1.1286 -0.8256  0.5526
   31MOL   H28415944   8.068   0.486   0.777  1.2083  1.6409  0.3340
   31MOL   H28515945   7.930   0.304   0.841 -1.9070  0.5567  0.7369
   31MOL   H28615946   7.793   0.309   1.060 -1.1513  1.5336  2.4938
   31MOL   H28715947   7.789   0.529   1.178  0.3941 -0.1937 -0.0654
   31MOL   C28815948   0.047   0.711   0.809 -0.0603 -0.8372  0.4216
   31MOL   C28915949   0.091   0.695   0.954 -0.2644  0.6644 -0.3823
   31MOL   N29015950   0.195   0.598   0.969 -0.0415  0.5983 -0.3516
   31MOL   C29115951   0.191   0.482   1.050 -0.5669  0.2545 -0.4176
   31MOL   C29215952   0.315   0.406   1.028 -0.0281 -0.0639  0.1849
   31MOL   C29315953   0.334   0.286   1.100 -0.3933 -0.2178  0.7103
   31MOL   C29415954   0.231   0.235   1.184 -0.4874 -0.2072  0.1278
   31MOL   C29515955   0.117   0.310   1.206 -0.7789 -0.3229 -0.6847
   31MOL   C29615956   0.090   0.430   1.140  0.7365  0.1460  0.8894
   31MOL   C29715957   0.389   0.479   0.930 -0.4607 -0.1085 -0.0891
   31MOL   C29815958   0.318   0.595   0.898  0.6022 -0.5558  0.1807
   31MOL   C29915959   0.368   0.686   0.799  0.3740 -0.2644  0.5047
   31MOL   C30015960   0.493   0.654   0.734 -0.1856  0.3061  0.0135
   31MOL   C30115961   0.569   0.540   0.775  0.1719  0.2655  0.1536
   31MOL   C30215962   0.520   0.461   0.876  1.0920 -0.5777 -0.0044
   31MOL   H30315963   0.046   0.610   0.767  0.2822 -0.2113 -1.1025
   31MOL   H30415964   0.123   0.768   0.756  0.0957 -2.4668 -1.1516
   31MOL   H30515965   0.017   0.656   1.025 -0.6875 -0.3539 -1.3716
   31MOL   H30615966   0.427   0.232   1.094  0.2549  0.9802 -0.4227
   31MOL   H30715967   0.253   0.142   1.233 -0.9861 -0.0862  0.5915
   31MOL   H30815968   0.043   0.274   1.275 -2.1074  1.1579 -1.3285
   31MOL   H30915969   8.220   0.475   1.150  0.5809 -0.1604  0.7488
   31MOL   H31015970   0.317   0.781   0.788  1.2763  0.3320  1.3883
   31MOL   H31115971   0.521   0.721   0.655 -1.3897  1.6634  0.7120
   31MOL   H31215972   0.669   0.517   0.742  1.1303  0.4949  2.7398
   31MOL   H31315973   0.578   0.381   0.917  2.4300  0.8698  0.9913
   31MOL   C31415974   0.132   0.835   1.017  0.5796  0.3665  0.0615
   31MOL   C31515975   0.145   0.843   1.175 -0.4412  0.5557  0.3213
   31MOL   N31615976   0.243   0.934   1.223  0.3484 -0.1243 -0.4128
   31MOL   C31715977   0.373   0.908   1.268  1.1152 -0.8412  0.0187
   31MOL   C31815978   0.438   1.029   1.313  0.1679  0.7748  0.6246
   31MOL   C31915979   0.555   1.009   1.386 -0.0388  0.5558  0.7723
   31MOL   C32015980   0.621   0.889   1.410 -0.1869 -0.4490  0.3952
   31MOL   C32115981   0.559   0.779   1.358  0.9356 -0.3560  0.3730
   31MOL   C32215982   0.437   0.789   1.283 -0.7729  0.1966  0.6469
   31MOL   C32315983   0.353   1.136   1.272 -0.1899 -0.4120  0.2568
   31MOL   C32415984   0.238   1.071   1.216  0.4052 -0.9605  0.3824
   31MOL   C32515985   0.145   1.154   1.150  0.5524  0.4869 -0.2489
   31MOL   C32615986   0.161   1.293   1.150 -0.1448  0.5611  0.2063
   31MOL   C32715987   0.261   1.356   1.221  0.2553 -0.1096  0.0810
   31MOL   C32815988   0.365   1.276   1.274  0.1636  0.1027 -0.1185
   31MOL   H32915989   0.231   0.850   0.973  0.8830  2.5997  1.4136
   31MOL   H33015990   0.072   0.921   0.986 -1.2147 -1.2971 -1.1728
   31MOL   H33115991   0.190   0.745   1.192 -0.2126  0.4389 -0.9529
   31MOL   H33215992   0.599   1.101   1.423 -2.2115  2.0137 -0.1652
   31MOL   H33315993   0.706   0.883   1.476 -0.7437  3.7114  1.6955
   31MOL   H33415994   0.592   0.678   1.379  2.3411  0.4399  2.1656
   31MOL   H33515995   0.384   0.708   1.237  0.0159 -0.8123  1.4962
   31MOL   H33615996   0.062   1.101   1.106  0.7022 -0.2653  0.3738
   31MOL   H33715997   0.085   1.355   1.105  1.0716  1.4013 -0.7059
   31MOL   H33815998   0.267   1.463   1.211 -2.3386  0.2214  1.6185
   31MOL   H33915999   0.460   1.317   1.305  1.0925 -0.0960 -2.6186
   31MOL   C34016000   0.011   0.843   1.259 -0.8490 -0.1989  0.0576
   31MOL   C34116001   0.015   0.922   1.399  1.1284  0.3761  0.5721
   31MOL   N34216002   8.111   0.970   1.448  0.1474 -0.4583  0.2385
   31MOL   C34316003   8.078   1.111   1.461  0.0450  0.3709  0.3481
   31MOL   C34416004   7.952   1.122   1.523 -0.2888  0.4446 -0.1032
   31MOL   C34516005   7.899   1.252   1.544  0.1903  0.1458 -0.3060
   31MOL   C34616006   7.970   1.367   1.506  0.1781  0.4154  0.6288
   31MOL   C34716007   8.097   1.351   1.445 -0.3609  0.4563  0.1857
   31MOL   C34816008   8.153   1.227   1.431 -0.8055  0.2249 -0.0668
   31MOL   C34916009   7.899   0.989   1.540 -0.4421 -0.1405  0.4029
   31MOL   C35016010   7.998   0.899   1.489 -0.0774  0.1031  0.4803
   31MOL   C35116011   7.973   0.761   1.491  0.3213 -0.1625 -0.8391
   31MOL   C35216012   7.852   0.717   1.543 -0.4084 -0.2484 -0.2350
   31MOL   C35316013   7.749   0.802   1.586 -0.2061 -0.5001  0.9999
   31MOL   C35416014   7.777   0.941   1.586 -0.3630  0.5605 -0.1072
   31MOL   H35516015   8.159   0.893   1.204 -1.0067  0.2887  0.7282
   31MOL   H35616016   8.203   0.740   1.270 -2.2261  0.1609 -0.8613
   31MOL   H35716017   0.073   1.013   1.409 -0.9015  1.7876 -0.1865
   31MOL   H35816018   7.797   1.268   1.576 -0.1609  1.6925 -2.1525
   31MOL   H35916019   7.922   1.464   1.508 -2.0345 -0.6292  0.1847
   31MOL   H36016020   8.135   1.447   1.415  3.1348 -0.5817  1.1035
   31MOL   H36116021   0.025   1.217   1.391 -0.1967 -0.0090  1.4905
   31MOL   H36216022   8.045   0.687   1.459  0.8881 -0.6147  1.4250
   31MOL   H36316023   7.839   0.611   1.560 -0.9501 -0.5723 -2.4621
   31MOL   H36416024   7.661   0.760   1.633 -0.0564 -1.8492  0.0969
   31MOL   H36516025   7.704   1.017   1.606 -0.6237  0.2497  0.1222
   31MOL   C36616026   0.092   0.835   1.509  0.4176 -0.5514  0.7894
   31MOL   C36716027   0.101   0.904   1.647 -0.2033 -0.8934  0.0732
   31MOL   N36816028   0.127   0.804   1.756  0.4192 -0.2151 -0.0044
   31MOL   C36916029   0.046   0.782   1.870 -0.4614  0.6698  0.3788
   31MOL   C37016030   0.106   0.686   1.955 -0.0910  0.5650  0.0997
   31MOL   C37116031   0.034   0.653   2.075  0.2400  0.6623 -0.1131
   31MOL   C37216032   8.143   0.709   2.118 -0.4958 -0.1740 -0.0720
   31MOL   C37316033   8.093   0.816   2.037 -0.2257 -0.0986 -0.0801
   31MOL   C37416034   8.158   0.849   1.915 -0.3107  0.7361 -0.2189
   31MOL   C37516035   0.222   0.645   1.884  0.5328 -0.0594 -0.4288
   31MOL   C37616036   0.240   0.721   1.770  0.6619  0.1267  0.4034
   31MOL   C37716037   0.352   0.701   1.681 -0.1731  0.5703 -0.0023
   31MOL   C37816038   0.439   0.592   1.705  0.2030  0.3278 -0.1789
   31MOL   C37916039   0.420   0.517   1.821 -0.5326  0.7501  0.3952
   31MOL   C38016040   0.322   0.549   1.913 -0.1678  0.1617 -0.5512
   31MOL   H38116041   0.036   0.745   1.530 -1.8767  0.7791  0.5089
   31MOL   H38216042   0.190   0.803   1.473  0.5950  2.1777 -1.3381
   31MOL   H38316043   0.004   0.950   1.666  0.3505 -0.1149  1.0897
   31MOL   H38416044   0.076   0.570   2.131  0.9572  0.7691 -0.4852
   31MOL   H38516045   8.106   0.678   2.215 -1.2626 -0.5268 -0.4723
   31MOL   H38616046   8.011   0.881   2.063 -1.8923 -1.3339 -2.0763
   31MOL   H38716047   8.120   0.935   1.862 -3.4946  0.0641  0.8681
   31MOL   H38816048   0.368   0.760   1.593 -1.6042 -0.3242 -0.8799
   31MOL   H38916049   0.512   0.558   1.633  0.5376 -2.7712  1.5425
   31MOL   H39016050   0.490   0.436   1.837 -0.0186  0.8482 -1.2196
   31MOL   H39116051   0.308   0.481   1.996 -2.0826  1.6093  0.3644
   31MOL   C39216052   0.205   1.019   1.650 -0.4353  0.1631 -0.1434
   31MOL   C39316053   0.182   1.111   1.773  0.5294  0.1546 -0.4040
   31MOL   N39416054   0.297   1.200   1.800  0.5385  0.3317  0.0447
   31MOL   C39516055   0.369   1.200   1.921  0.6128  0.1028 -0.3373
   31MOL   C39616056   0.475   1.292   1.925 -0.1795  0.0123 -0.9393
   31MOL   C39716057   0.555   1.310   2.039  0.3716 -0.6423 -0.4128
   31MOL   C39816058   0.534   1.227   2.147  0.2423  0.3065 -0.2998
   31MOL   C39916059   0.433   1.131   2.146  0.1832  0.0825 -0.0118
   31MOL   C40016060   0.350   1.113   2.031  0.8331 -0.7779 -0.6686
   31MOL   C40116061   0.466   1.367   1.795  0.0183 -0.4173 -0.4561
   31MOL   C40216062   0.353   1.310   1.727  0.4946 -0.0049 -0.2587
   31MOL   C40316063   0.312   1.370   1.608 -0.7509  0.2121  0.2268
   31MOL   C40416064   0.374   1.483   1.553  0.1890  0.8228 -0.3553
   31MOL   C40516065   0.486   1.533   1.621  0.1579 -0.1180  0.4835
   31MOL   C40616066   0.537   1.478   1.741  0.4673  0.4609  0.2393
   31MOL   H40716067   0.305   0.976   1.650 -0.3516  0.3551  0.3728
   31MOL   H40816068   0.191   1.090   1.569 -2.7300  0.3103  0.3402
   31MOL   H40916069   0.162   1.041   1.855 -0.1251 -0.7029 -1.2883
   31MOL   H41016070   0.636   1.382   2.045 -1.4071  1.2195  2.4463
   31MOL   H41116071   0.580   1.248   2.243  0.7582  2.1817 -0.9382
   31MOL   H41216072   0.403   1.075   2.233 -2.5126  2.6464  0.7811
   31MOL   H41316073   0.263   1.051   2.048 -1.5026  2.0068 -1.8693
   31MOL   H41416074   0.219   1.337   1.562 -0.5201  0.4028 -0.3781
   31MOL   H41516075   0.339   1.525   1.460  0.1922  0.5630 -0.4740
   31MOL   H41616076   0.530   1.618   1.572 -1.5150  0.1364 -0.6091
   31MOL   H41716077   0.623   1.528   1.782  0.9258  0.8416 -1.1318
   31MOL   C41816078   0.052   1.199   1.766 -1.1972  0.5520 -0.3402
   31MOL   C41916079   0.027   1.282   1.889  0.6608 -1.2669  0.3162
   31MOL   N42016080   8.167   1.392   1.858  0.5030 -0.1703  0.4364
   31MOL   C42116081   8.202   1.522   1.837 -0.2193  0.5330  0.3489
   31MOL   C42216082   8.085   1.604   1.845  0.2572 -0.3611 -0.3140
   31MOL   C42316083   8.107   1.746   1.838 -0.0220  0.1659 -0.3553
   31MOL   C42416084   0.008   1.805   1.834 -0.5366 -0.0144 -0.9016
   31MOL   C42516085   0.120   1.719   1.828 -0.4066 -0.2873 -0.2907
   31MOL   C42616086   0.099   1.581   1.823  0.3909  0.3475 -0.6845
   31MOL   C42716087   7.975   1.517   1.846 -0.0244 -0.1121 -0.7971
   31MOL   C42816088   8.026   1.387   1.841 -0.0724  0.5584 -0.1143
   31MOL   C42916089   7.935   1.276   1.829  0.6565  0.0997 -0.7153
   31MOL   C43016090   7.793   1.299   1.836  0.2157  0.0447 -0.2241
   31MOL   C43116091   7.750   1.436   1.851 -0.3029 -0.3679  0.2631
   31MOL   C43216092   7.839   1.547   1.860 -0.5095 -1.1661  0.2916
   31MOL   H43316093   0.061   1.272   1.686  3.3226  1.3982  0.7673
   31MOL   H43416094   8.196   1.139   1.730 -0.2088  0.2524 -2.1756
   31MOL   H43516095   0.125   1.325   1.910  0.8558 -0.6532 -1.7502
   31MOL   H43616096   8.018   1.807   1.839 -0.6324 -0.6297 -2.6841
   31MOL   H43716097   0.001   1.913   1.832 -1.5777 -0.0690 -0.3193
   31MOL   H43816098   0.217   1.766   1.824 -1.0653  1.5214  2.8915
   31MOL   H43916099   0.184   1.518   1.803  1.7684  1.3322  1.8230
   31MOL   H44016100   7.964   1.172   1.820 -3.6691 -1.1400 -1.4603
   31MOL   H44116101   7.726   1.216   1.846  2.0012 -1.3555  0.3733
   31MOL   H44216102   7.644   1.456   1.858 -0.3591  0.1212 -1.8082
   31MOL   H44316103   7.810   1.650   1.879 -2.2937 -1.6768  0.4264
   31MOL   C44416104   8.206   1.204   2.014  0.5825  0.5938  0.7986
   31MOL   C44516105   8.192   1.295   2.138 -0.5760  0.5771 -0.9552
   31MOL   N44616106   8.124   1.218   2.245  0.2407  0.4269 -0.4019
   31MOL   C44716107   7.988   1.225   2.276 -0.3044 -0.0154  0.4133
   31MOL   C44816108   7.954   1.121   2.367  0.1500  0.6997 -0.0634
   31MOL   C44916109   7.817   1.112   2.409 -0.3692  0.2514 -0.0677
   31MOL   C45016110   7.722   1.203   2.363 -0.1811  0.4531 -0.1945
   31MOL   C45116111   7.761   1.297   2.265  0.4378 -0.5254 -0.2186
   31MOL   C45216112   7.890   1.315   2.225 -0.4484 -0.2242  0.1385
   31MOL   C45316113   8.078   1.054   2.409  0.1319 -0.6238 -0.2746
   31MOL   C45416114   8.180   1.120   2.329 -0.6741 -0.6917 -0.0907
   31MOL   C45516115   0.087   1.075   2.342 -1.0328 -0.3187  0.1195
   31MOL   C45616116   0.123   0.971   2.432 -0.3122  0.0872  0.5416
   31MOL   C45716117   0.024   0.908   2.516  0.0647 -0.4279  0.1491
   31MOL   C45816118   8.117   0.950   2.499  0.1807  0.0094 -0.0302
   31MOL   H45916119   8.118   1.146   1.986  2.3734 -1.5702 -0.5348
   31MOL   H46016120   0.059   1.135   2.039  0.6195  1.2382  2.5282
   31MOL   H46116121   8.121   1.374   2.116 -0.8259  0.6716  0.1678
   31MOL   H46216122   7.788   1.055   2.496 -0.1573 -0.7821 -0.6692
   31MOL   H46316123   7.620   1.187   2.393 -0.3731  0.7833 -0.6770
   31MOL   H46416124   7.689   1.354   2.208  1.5447 -0.2989 -1.4231
   31MOL   H46516125   7.927   1.389   2.156  1.6031 -0.4352  0.9519
   31MOL   H46616126   0.159   1.123   2.277  0.1635 -0.4891  1.3115
   31MOL   H46716127   0.227   0.943   2.427  0.2822  2.1586  0.8064
   31MOL   H46816128   0.041   0.828   2.587 -2.1446 -0.3766  0.7831
   31MOL   H46916129   8.047   0.909   2.571  0.9437 -0.3781  0.4971
   31MOL   C47016130   0.085   1.381   2.175  0.7065  0.1531 -0.2708
   31MOL   C47116131   0.102   1.448   2.321 -0.1960 -0.0242  0.3287
   31MOL   N47216132   0.244   1.484   2.339 -0.0025 -0.2229 -0.7717
   31MOL   C47316133   0.336   1.419   2.416 -0.0562  0.3621  0.3712
   31MOL   C47416134   0.458   1.487   2.414 -0.3777  0.5243 -0.3827
   31MOL   C47516135   0.564   1.433   2.492 -0.0798  0.0730  0.1652
   31MOL   C47616136   0.554   1.313   2.564 -0.7075 -0.2424  0.4396
   31MOL   C47716137   0.431   1.251   2.579 -0.3584 -0.3259  0.1802
   31MOL   C47816138   0.327   1.299   2.493 -0.9454 -0.2130 -0.2714
   31MOL   C47916139   0.446   1.600   2.321 -0.8909  0.2531  1.1344
   31MOL   C48016140   0.312   1.594   2.281  0.2204 -0.3453 -0.4696
   31MOL   C48116141   0.271   1.688   2.177 -0.4444  0.2177  0.2076
   31MOL   C48216142   0.359   1.780   2.119 -0.0988 -0.2428 -0.2262
   31MOL   C48316143   0.490   1.789   2.174 -0.5766  0.2516  0.1755
   31MOL   C48416144   0.539   1.697   2.270  0.7909  0.3205  0.0243
   31MOL   H48516145   0.179   1.327   2.162  1.3904  1.3052 -0.1898
   31MOL   H48616146   0.086   1.471   2.114 -0.3075 -0.2678 -0.9125
   31MOL   H48716147   0.083   1.384   2.407  0.5149 -0.1990  0.3580
   31MOL   H48816148   0.656   1.490   2.489  0.6380 -1.0791  0.0277
   31MOL   H48916149   0.642   1.272   2.610 -0.8970 -0.6365  0.4577
   31MOL   H49016150   0.416   1.166   2.645  0.5355 -0.4064  0.2757
   31MOL   H49116151   0.236   1.242   2.504  0.3938 -2.1875  0.7829
   31MOL   H49216152   0.171   1.703   2.140 -0.3394 -0.1599 -0.2313
   31MOL   H49316153   0.323   1.860   2.056  1.9874  1.9142  1.2430
   31MOL   H49416154   0.557   1.870   2.149 -0.2835 -0.3419 -1.0145
   31MOL   H49516155   0.639   1.706   2.310  1.4566 -1.8253 -1.0871
   31MOL   C49616156   8.223   1.568   2.344  0.2097  0.4761 -0.1884
   31MOL   C49716157   8.206   1.600   2.494  0.5346 -0.5150 -0.1815
   31MOL   N49816158   8.110   1.710   2.507 -0.2010  0.0252  0.3383
   31MOL   C49916159   8.146   1.841   2.528 -0.4725 -0.5381  0.9020
   31MOL   C50016160   8.030   1.924   2.506 -0.1609  0.3836  0.5857
   31MOL   C50116161   8.045   2.066   2.507 -0.2546 -0.3517 -0.1135
   31MOL   C50216162   8.175   2.124   2.525 -1.0754 -0.1845 -0.1727
   31MOL   C50316163   0.060   2.042   2.549  0.7295  0.4188 -0.1817
   31MOL   C50416164   0.047   1.903   2.547  0.6347  0.1285 -0.3181
   31MOL   C50516165   7.920   1.838   2.473 -0.4244 -0.0630  0.4868
   31MOL   C50616166   7.968   1.706   2.495 -0.1014  0.1882 -0.7974
   31MOL   C50716167   7.880   1.598   2.486  0.6590 -0.3614 -0.4297
   31MOL   C50816168   7.742   1.622   2.463  0.0958  0.2053 -0.2208
   31MOL   C50916169   7.692   1.753   2.435  0.2470 -0.2101 -0.1716
   31MOL   C51016170   7.780   1.860   2.442 -0.0522 -0.0086 -1.0148
   31MOL   H51116171   0.006   1.658   2.282  1.6263 -1.3677 -2.7249
   31MOL   H51216172   8.127   1.524   2.318 -0.5657  2.0521 -0.0564
   31MOL   H51316173   0.071   1.619   2.548 -0.6218 -1.4746  2.1936
   31MOL   H51416174   7.960   2.131   2.503 -0.1346 -0.1780  0.1615
   31MOL   H51516175   8.179   2.232   2.519  0.3680 -0.3263 -2.5138
   31MOL   H51616176   0.158   2.083   2.567  1.4506  0.1776 -3.2313
   31MOL   H51716177   0.129   1.836   2.567 -1.1937 -1.6424  1.4228
   31MOL   H51816178   7.913   1.495   2.492  1.3975 -0.0908  0.3128
   31MOL   H51916179   7.684   1.531   2.461  0.6211 -0.1299 -0.3518
   31MOL   H52016180   7.591   1.760   2.399 -0.6286 -2.9037  1.5366
   31MOL   H52116181   7.746   1.959   2.416  0.6508  0.9087  1.3690
   31MOL   H52216182   8.158   1.511   2.534 -1.1665 -0.0126 -1.0317
   32MOL     C116183   1.013   4.994   4.145  0.2509 -1.1302  0.7971
   32MOL     C216184   1.104   5.038   4.253  0.6035  0.0204 -0.1938
   32MOL     N316185   1.110   4.930   4.355  0.3688 -0.3777 -0.9782
   32MOL     C416186   1.065   4.936   4.487  0.1092 -0.1614 -0.1251
   32MOL     C516187   1.100   4.814   4.549 -0.0716 -0.5037  0.5368
   32MOL     C616188   1.066   4.800   4.684  0.6288 -0.8539  0.1074
   32MOL     C716189   0.981   4.889   4.753 -0.2055  0.7143 -0.3879
   32MOL     C816190   0.949   5.010   4.689 -0.0221 -0.5496  1.0001
   32MOL     C916191   0.992   5.035   4.556  0.0442 -0.2722  0.1085
   32MOL    C1016192   1.173   4.731   4.452 -0.0531 -0.0697  0.2538
   32MOL    C1116193   1.175   4.805   4.335 -0.1004  0.4846  0.6474
   32MOL    C1216194   1.248   4.760   4.221  0.0787  0.3426 -0.2026
   32MOL    C1316195   1.319   4.641   4.231 -0.0231  0.4362 -0.5172
   32MOL    C1416196   1.317   4.563   4.352 -0.2669  0.2920  0.9772
   32MOL    C1516197   1.237   4.606   4.454  0.0006 -0.3507  0.4686
   32MOL    H1616198   0.907   5.011   4.166 -0.4650  1.1557 -3.9187
   32MOL    H1716199   1.043   4.892   4.121 -0.5910 -1.2321  0.1555
   32MOL    H1816200   1.048   5.120   4.299  2.8691  1.6904 -0.3197
   32MOL    H1916201   1.094   4.708   4.735 -0.8381 -1.4234 -0.0720
   32MOL    H2016202   0.941   4.862   4.849  0.6739 -1.1257 -0.5087
   32MOL    H2116203   0.887   5.085   4.736 -0.0723  1.0100 -1.4604
   32MOL    H2216204   0.972   5.131   4.512  1.3313  0.5302  1.2398
   32MOL    H2316205   1.255   4.816   4.129 -2.7335 -1.4267 -1.5700
   32MOL    H2416206   1.385   4.613   4.151 -0.2885  0.1258 -0.6297
   32MOL    H2516207   1.368   4.468   4.358  0.3353  0.6959  2.3645
   32MOL    H2616208   1.239   4.548   4.544  2.8860 -1.3606 -0.1953
   32MOL    H2716209   1.021   5.052   4.053 -0.0601 -1.9708  0.2354
   32MOL    C2816210   1.244   5.086   4.216 -0.1044 -0.4672  0.7092
   32MOL    C2916211   1.255   5.227   4.150  0.1998  0.3178 -0.3850
   32MOL    N3016212   1.155   5.324   4.204 -0.0669  0.2109  0.2084
   32MOL    C3116213   1.061   5.399   4.129  0.5977 -0.0506  0.4373
   32MOL    C3216214   0.983   5.475   4.221 -0.6304 -0.3298 -0.4279
   32MOL    C3316215   0.874   5.556   4.181  0.3139 -0.1494  0.7313
   32MOL    C3416216   0.849   5.558   4.039  0.5923 -0.3526  0.0566
   32MOL    C3516217   0.924   5.479   3.948 -0.1547  0.7271  0.3406
   32MOL    C3616218   1.032   5.395   3.996 -0.0510  0.2395  0.7631
   32MOL    C3716219   1.036   5.449   4.349 -0.2516 -0.5946  0.6484
   32MOL    C3816220   1.141   5.361   4.339 -0.0776  0.0778  0.2448
   32MOL    C3916221   1.208   5.319   4.454  0.6751 -0.2693  0.1432
   32MOL    C4016222   1.162   5.356   4.580 -0.8569  0.2201 -0.1385
   32MOL    C4116223   1.059   5.450   4.588 -0.1908 -0.4146 -0.4369
   32MOL    C4216224   1.004   5.502   4.475 -0.2584  0.4521  0.3313
   32MOL    H4316225   1.307   5.093   4.305  1.5659  1.5154 -0.5574
   32MOL    H4416226   1.291   5.014   4.149  0.2871 -0.8251  1.3706
   32MOL    H4516227   1.245   5.224   4.042  1.0520  2.0506 -0.5355
   32MOL    H4616228   0.802   5.599   4.250  0.8904  0.2063  1.1115
   32MOL    H4716229   0.776   5.622   3.993  1.1717  2.5000  2.9076
   32MOL    H4816230   0.899   5.479   3.843 -0.6424 -0.8553  0.4412
   32MOL    H4916231   1.095   5.345   3.924  1.5933 -0.0621  2.3837
   32MOL    H5016232   1.276   5.235   4.453 -1.5838 -2.1472  0.4360
   32MOL    H5116233   1.200   5.316   4.673  2.1129 -0.4318 -1.5572
   32MOL    H5216234   1.032   5.491   4.684 -2.1701  0.2868 -1.2632
   32MOL    H5316235   0.920   5.568   4.492 -0.1457  0.2498  1.6637
   32MOL    C5416236   1.398   5.289   4.169 -0.2025  0.3050 -0.4003
   32MOL    C5516237   1.500   5.212   4.084  0.3066  0.2028  0.1689
   32MOL    N5616238   1.461   5.182   3.942  0.3643  0.3524  0.1081
   32MOL    C5716239   1.439   5.055   3.892  0.6337 -0.5464  0.2093
   32MOL    C5816240   1.395   5.067   3.760  0.4283  0.5608  0.3891
   32MOL    C5916241   1.366   4.948   3.688 -0.3994  0.2938 -0.5325
   32MOL    C6016242   1.397   4.821   3.741  0.2392  0.4232 -0.3791
   32MOL    C6116243   1.445   4.810   3.875  0.4472 -0.2174 -0.6548
   32MOL    C6216244   1.457   4.930   3.953 -0.4099  0.4457 -0.5974
   32MOL    C6316245   1.389   5.207   3.724  0.2259  0.0610  0.5825
   32MOL    C6416246   1.438   5.273   3.837 -1.0854 -0.1176  0.4614
   32MOL    C6516247   1.441   5.414   3.832 -0.3634  0.0209 -0.2031
   32MOL    C6616248   1.410   5.485   3.713  0.2073  0.8137  0.0691
   32MOL    C6716249   1.358   5.418   3.599 -0.1602  0.0714  0.0064
   32MOL    C6816250   1.343   5.275   3.608  0.0301  0.2137  0.4360
   32MOL    H6916251   1.383   5.388   4.124  1.2374  0.4910 -0.4810
   32MOL    H7016252   1.425   5.311   4.272 -0.6050 -0.5652 -0.1057
   32MOL    H7116253   1.500   5.120   4.142  2.3957  0.6128  0.8379
   32MOL    H7216254   1.321   4.950   3.590  1.9084  1.6197 -1.5921
   32MOL    H7316255   1.378   4.741   3.671  2.8683 -1.2683  0.7721
   32MOL    H7416256   1.466   4.716   3.926 -0.3606 -0.2075 -0.2899
   32MOL    H7516257   1.493   4.924   4.054 -1.3740  2.5385 -0.1094
   32MOL    H7616258   1.480   5.472   3.915 -0.7867  0.7130 -0.4886
   32MOL    H7716259   1.419   5.593   3.710 -0.0982  0.8867  1.4985
   32MOL    H7816260   1.327   5.472   3.510 -2.7030 -1.0783  0.1621
   32MOL    H7916261   1.315   5.218   3.521  0.0554 -0.5052  0.8937
   32MOL    C8016262   1.642   5.267   4.105  0.1173 -0.2398 -0.1464
   32MOL    C8116263   1.705   5.245   4.250  0.2447  0.1598  0.0926
   32MOL    N8216264   1.716   5.101   4.271 -0.1925  0.3812 -0.5939
   32MOL    C8316265   1.647   5.027   4.363  0.1350  0.3565 -0.2227
   32MOL    C8416266   1.688   4.891   4.357  1.0916  0.4864  0.6444
   32MOL    C8516267   1.631   4.802   4.444 -0.0254 -0.0296 -0.1604
   32MOL    C8616268   1.522   4.849   4.528 -1.0421  0.1939  0.3072
   32MOL    C8716269   1.479   4.983   4.536 -0.1848  0.3839 -0.1655
   32MOL    C8816270   1.550   5.072   4.458 -0.1243 -0.3083 -0.3579
   32MOL    C8916271   1.796   4.876   4.261  0.7342 -0.5788 -0.2070
   32MOL    C9016272   1.812   5.015   4.211 -0.6507  0.1093 -0.5787
   32MOL    C9116273   1.913   5.042   4.113  0.2788  0.2741  0.1400
   32MOL    C9216274   1.996   4.939   4.060  0.4412 -0.2268 -0.5967
   32MOL    C9316275   1.977   4.812   4.111 -0.1910 -0.1662  1.0194
   32MOL    C9416276   1.879   4.778   4.207  0.3954  0.8719 -0.5210
   32MOL    H9516277   1.700   5.210   4.032 -1.0882 -1.8200  0.0989
   32MOL    H9616278   1.642   5.373   4.083 -3.4064 -0.1891 -0.0544
   32MOL    H9716279   1.628   5.282   4.317 -0.2557  1.2961 -1.0898
   32MOL    H9816280   1.665   4.700   4.450 -1.0808 -0.3609  0.4480
   32MOL    H9916281   1.486   4.766   4.586 -2.0896  0.1833 -0.3508
   32MOL   H10016282   1.400   5.006   4.606 -0.9798  1.2869 -1.3315
   32MOL   H10116283   1.525   5.177   4.464 -0.8669 -0.5009 -0.0426
   32MOL   H10216284   1.923   5.145   4.081  0.5340 -0.3258 -1.7898
   32MOL   H10316285   2.058   4.966   3.976 -0.0661  1.3880 -0.4652
   32MOL   H10416286   2.040   4.732   4.073 -0.9096 -0.3804  0.2802
   32MOL   H10516287   1.872   4.676   4.244  0.3303  1.0182 -0.1278
   32MOL   C10616288   1.832   5.324   4.285 -0.0690 -0.1708  0.4156
   32MOL   C10716289   1.802   5.475   4.288  0.1347 -0.0222  0.1615
   32MOL   N10816290   1.681   5.514   4.352 -0.4537 -0.0447 -0.1751
   32MOL   C10916291   1.563   5.570   4.290 -0.3406  0.5681 -0.4323
   32MOL   C11016292   1.454   5.575   4.381 -0.4671 -0.1726 -0.6495
   32MOL   C11116293   1.330   5.626   4.338  0.3471  0.1127 -0.8177
   32MOL   C11216294   1.327   5.679   4.205  0.4491 -0.4859 -0.1819
   32MOL   C11316295   1.432   5.670   4.114  0.3437 -0.0337 -0.6552
   32MOL   C11416296   1.552   5.615   4.155 -0.6383 -0.8646  0.0074
   32MOL   C11516297   1.505   5.532   4.507 -0.1478  0.3190 -0.4101
   32MOL   C11616298   1.638   5.485   4.484 -0.5382  0.8555 -0.0055
   32MOL   C11716299   1.711   5.425   4.588 -0.4172  0.0940  0.7837
   32MOL   C11816300   1.660   5.422   4.721 -0.4281  0.4021  0.3456
   32MOL   C11916301   1.532   5.465   4.744  0.1258  0.0129 -0.4223
   32MOL   C12016302   1.455   5.525   4.643 -0.4983 -0.0102 -0.1258
   32MOL   H12116303   1.846   5.284   4.385 -2.1282  1.8462  1.5490
   32MOL   H12216304   1.918   5.295   4.224 -0.4595 -0.3835 -0.0365
   32MOL   H12316305   1.796   5.507   4.184 -0.7002  0.0935  0.2435
   32MOL   H12416306   1.247   5.636   4.407 -0.8126 -2.2796 -1.8295
   32MOL   H12516307   1.243   5.740   4.177  0.3742  2.0722  5.0734
   32MOL   H12616308   1.423   5.723   4.021  0.6267  1.4832  0.1520
   32MOL   H12716309   1.633   5.620   4.083 -0.0519 -0.8996  0.6566
   32MOL   H12816310   1.812   5.391   4.570  0.4553  2.8868  0.2364
   32MOL   H12916311   1.720   5.379   4.800 -0.9385  2.5187  1.9214
   32MOL   H13016312   1.487   5.457   4.842  0.2155 -2.6917 -0.5803
   32MOL   H13116313   1.354   5.559   4.662 -1.2547 -1.6879 -1.0513
   32MOL   C13216314   1.926   5.553   4.350  0.1045 -0.1366  0.2387
   32MOL   C13316315   2.054   5.542   4.274  0.0457  0.3145 -0.6541
   32MOL   N13416316   2.036   5.555   4.127  0.2441 -1.0178 -0.2553
   32MOL   C13516317   2.065   5.460   4.024  0.3896  0.3525  0.0649
   32MOL   C13616318   2.035   5.510   3.892  0.0136 -0.6556 -0.4530
   32MOL   C13716319   2.061   5.429   3.775  0.0404  0.1320 -0.4503
   32MOL   C13816320   2.107   5.292   3.791 -0.3644 -0.0115  0.7664
   32MOL   C13916321   2.131   5.244   3.926 -0.3018  0.1165  0.0490
   32MOL   C14016322   2.117   5.325   4.040 -0.1801 -0.5479 -0.3972
   32MOL   C14116323   1.980   5.641   3.915  0.4564 -0.5265  0.0098
   32MOL   C14216324   1.989   5.671   4.055  0.2617  0.9657 -0.1848
   32MOL   C14316325   1.954   5.798   4.104  0.1503 -0.2342 -0.1396
   32MOL   C14416326   1.900   5.893   4.017 -0.1297  0.2624  0.4118
   32MOL   C14516327   1.888   5.867   3.877  0.0764  0.0309  0.2253
   32MOL   C14616328   1.920   5.739   3.831 -0.3804 -0.1250 -0.2675
   32MOL   H14716329   1.894   5.655   4.369  1.5293  1.0267 -3.2428
   32MOL   H14816330   1.940   5.507   4.448  1.3598  1.1775  0.6852
   32MOL   H14916331   2.084   5.437   4.278  2.4741  1.0037  0.7123
   32MOL   H15016332   2.049   5.478   3.679 -0.0446 -1.8645 -1.4912
   32MOL   H15116333   2.126   5.229   3.705  0.9598 -0.7160  1.5696
   32MOL   H15216334   2.176   5.146   3.938 -2.3497 -1.3331 -3.3038
   32MOL   H15316335   2.154   5.282   4.132 -2.2982 -2.0857 -0.2378
   32MOL   H15416336   1.953   5.820   4.209  0.3041  2.4893 -0.6875
   32MOL   H15516337   1.869   5.987   4.061 -0.3346 -0.7217  2.4295
   32MOL   H15616338   1.856   5.946   3.811  2.4695  1.0264  0.2129
   32MOL   H15716339   1.912   5.727   3.724 -2.2830 -2.3503  0.0844
   32MOL   C15816340   2.166   5.638   4.328 -0.3430  0.1601  0.5903
   32MOL   C15916341   2.221   5.613   4.471  0.2933  0.2832  0.0230
   32MOL   N16016342   2.238   5.472   4.497  0.3973 -1.1413 -0.0637
   32MOL   C16116343   2.173   5.392   4.593 -0.4500 -0.3570 -0.2357
   32MOL   C16216344   2.220   5.262   4.587 -0.0962  0.5651  0.3584
   32MOL   C16316345   2.169   5.164   4.679  0.6946 -0.1358  0.0727
   32MOL   C16416346   2.073   5.195   4.780 -0.8825 -0.2365  0.7153
   32MOL   C16516347   2.028   5.329   4.784  0.4551 -0.3494 -0.3121
   32MOL   C16616348   2.075   5.428   4.692 -0.9355 -0.4013  0.4003
   32MOL   C16716349   2.328   5.263   4.496 -0.4768 -0.2484 -0.0049
   32MOL   C16816350   2.335   5.392   4.440 -0.4823 -1.5845 -0.2546
   32MOL   C16916351   2.434   5.434   4.354  0.1130 -0.0706  0.0267
   32MOL   C17016352   2.535   5.348   4.312  0.2441 -0.2994  0.1701
   32MOL   C17116353   2.535   5.219   4.367  0.7515  0.2926  1.0267
   32MOL   C17216354   2.430   5.173   4.453  0.6367 -1.4460 -0.4722
   32MOL   H17316355   2.256   5.624   4.268 -0.4222 -1.0449  0.7367
   32MOL   H17416356   2.152   5.744   4.306 -0.4343 -0.1286 -0.7455
   32MOL   H17516357   2.143   5.651   4.537 -1.4587 -1.2284 -1.1512
   32MOL   H17616358   2.211   5.064   4.680  0.4581 -0.2432 -0.6558
   32MOL   H17716359   2.028   5.120   4.844  0.6797 -1.2254  0.6803
   32MOL   H17816360   1.945   5.352   4.849  1.4452 -1.1836  1.3078
   32MOL   H17916361   2.034   5.527   4.690  1.9886  0.9082  2.1262
   32MOL   H18016362   2.435   5.534   4.313  2.4631  0.1829  0.6071
   32MOL   H18116363   2.622   5.379   4.255  0.2117 -1.1559 -0.3501
   32MOL   H18216364   2.609   5.143   4.344  0.5930 -0.0247  1.5359
   32MOL   H18316365   2.427   5.070   4.483  0.2878 -0.8086  1.7252
   32MOL   C18416366   2.335   5.713   4.509 -0.1706  0.1349 -0.6610
   32MOL   C18516367   2.367   5.705   4.660 -0.2469  0.2660 -0.0800
   32MOL   N18616368   2.501   5.645   4.683 -0.2061 -0.1680  0.2281
   32MOL   C18716369   2.527   5.533   4.770  0.2597 -0.0020  0.1641
   32MOL   C18816370   2.665   5.495   4.755  0.1833 -0.7560 -0.1510
   32MOL   C18916371   2.708   5.389   4.826 -0.5062  0.7165 -0.1226
   32MOL   C19016372   2.618   5.306   4.895 -0.4967 -0.1097  0.3947
   32MOL   C19116373   2.485   5.344   4.914  0.2748  0.0245  0.4031
   32MOL   C19216374   2.443   5.461   4.850  0.4169 -0.3373 -0.9559
   32MOL   C19316375   2.717   5.586   4.658  0.4337  0.1639  0.1605
   32MOL   C19416376   2.623   5.678   4.616  0.9754  0.8011 -0.2344
   32MOL   C19516377   2.649   5.789   4.534  0.1881  0.2259 -1.3458
   32MOL   C19616378   2.779   5.807   4.487 -0.1904 -0.5295 -0.4836
   32MOL   C19716379   2.881   5.721   4.535 -0.5231 -1.7154  1.0784
   32MOL   C19816380   2.851   5.604   4.612  0.3074 -0.2106 -0.0276
   32MOL   H19916381   2.421   5.698   4.444  0.1396  1.8325 -0.6616
   32MOL   H20016382   2.316   5.821   4.502  1.3401  0.3848 -1.1475
   32MOL   H20116383   2.295   5.636   4.704 -0.7756  0.2764 -0.9175
   32MOL   H20216384   2.804   5.342   4.812 -1.3713 -1.8230  2.0207
   32MOL   H20316385   2.649   5.214   4.941 -1.0494 -0.8008 -0.5932
   32MOL   H20416386   2.420   5.289   4.980 -1.2191  0.2794 -0.8146
   32MOL   H20516387   2.340   5.494   4.843  0.2129 -0.5744  0.7945
   32MOL   H20616388   2.569   5.861   4.524 -0.2020 -0.2210 -1.4723
   32MOL   H20716389   2.810   5.895   4.433  0.8966  1.0056  2.5752
   32MOL   H20816390   2.983   5.749   4.512 -0.7070 -2.4341 -0.7489
   32MOL   H20916391   2.929   5.537   4.644  0.9343 -0.3667 -1.8557
   32MOL   C21016392   2.361   5.832   4.746  0.0807 -0.7548 -0.4284
   32MOL   C21116393   2.235   5.917   4.751  0.3631  0.4754 -0.2473
   32MOL   N21216394   2.118   5.847   4.783 -0.1037  0.3679  0.5353
   32MOL   C21316395   1.996   5.857   4.709 -0.9086 -0.8813 -0.0115
   32MOL   C21416396   1.900   5.776   4.772  0.5142  0.1068 -0.3086
   32MOL   C21516397   1.766   5.777   4.719  0.3812 -0.4991  0.1912
   32MOL   C21616398   1.744   5.856   4.600  0.1444  0.5725  0.3714
   32MOL   C21716399   1.844   5.931   4.537 -0.5681 -0.1107 -0.4531
   32MOL   C21816400   1.969   5.931   4.590  0.3453  0.7199  0.0801
   32MOL   C21916401   1.968   5.706   4.883 -0.0360 -1.1786 -0.9384
   32MOL   C22016402   2.099   5.759   4.890 -0.0750  0.5897  0.0091
   32MOL   C22116403   2.190   5.716   4.995 -0.3569 -0.5816  0.5875
   32MOL   C22216404   2.150   5.617   5.085  0.0956  0.2778  0.2666
   32MOL   C22316405   2.015   5.566   5.077  0.3129  0.3151  0.1651
   32MOL   C22416406   1.930   5.605   4.976 -0.1593 -0.2359 -0.0911
   32MOL   H22516407   2.399   5.807   4.846 -2.7625  1.2088  1.2154
   32MOL   H22616408   2.447   5.893   4.719  0.6183 -0.7697  1.1833
   32MOL   H22716409   2.206   5.949   4.651  0.5075  1.9197  0.1619
   32MOL   H22816410   1.693   5.714   4.767 -0.3537 -0.4319 -0.8108
   32MOL   H22916411   1.649   5.851   4.549  1.0143  0.4741 -1.2908
   32MOL   H23016412   1.821   5.987   4.447 -0.0127  2.6177  1.0353
   32MOL   H23116413   2.042   5.990   4.536 -0.8107 -0.4688 -2.8845
   32MOL   H23216414   2.287   5.764   4.998 -1.0262  0.8113  0.0949
   32MOL   H23316415   2.210   5.582   5.168 -1.4522 -0.2765  1.1638
   32MOL   H23416416   1.971   5.497   5.149  0.2745  0.5001  0.3201
   32MOL   H23516417   1.831   5.562   4.974 -1.0995  1.8737 -1.3880
   32MOL   C23616418   2.252   6.041   4.845 -0.1867 -1.0747  0.4855
   32MOL   C23716419   2.313   6.168   4.773  0.1507  0.3394  0.0151
   32MOL   N23816420   2.223   6.213   4.667 -0.6778  0.2651 -0.6606
   32MOL   C23916421   2.241   6.184   4.533  0.1571 -0.2792  0.3273
   32MOL   C24016422   2.126   6.222   4.459  0.3172  0.2613 -0.4305
   32MOL   C24116423   2.133   6.208   4.320 -0.0038  0.1109 -0.0653
   32MOL   C24216424   2.245   6.155   4.248  0.2799  0.0217 -0.3737
   32MOL   C24316425   2.355   6.116   4.324 -0.4298 -0.4378 -0.1772
   32MOL   C24416426   2.354   6.134   4.463  0.5432  0.4301  0.3071
   32MOL   C24516427   2.028   6.271   4.549  0.0713 -0.5359 -0.8090
   32MOL   C24616428   2.094   6.274   4.677 -0.6492  0.3182  0.0507
   32MOL   C24716429   2.036   6.332   4.787 -0.2272  0.8660 -0.4683
   32MOL   C24816430   1.902   6.380   4.786  0.5585  0.3761 -0.3414
   32MOL   C24916431   1.834   6.370   4.669 -0.2560 -0.0723  0.6344
   32MOL   C25016432   1.894   6.323   4.548  0.5569 -0.5178 -0.8679
   32MOL   H25116433   2.163   6.070   4.902  1.5539  1.6253  1.9048
   32MOL   H25216434   2.311   6.004   4.929 -1.3273 -1.3571  1.1730
   32MOL   H25316435   2.401   6.121   4.728 -0.5882 -0.4910 -0.5816
   32MOL   H25416436   2.047   6.246   4.265  1.5026  0.9591 -1.8883
   32MOL   H25516437   2.248   6.148   4.140 -3.8775  0.7827 -0.6046
   32MOL   H25616438   2.443   6.080   4.274  0.1994 -0.8139  1.1797
   32MOL   H25716439   2.442   6.099   4.515  1.4368  0.6022 -1.0403
   32MOL   H25816440   2.091   6.333   4.880  1.4255  2.9644 -1.4282
   32MOL   H25916441   1.857   6.417   4.876 -0.9834 -1.2840 -0.4030
   32MOL   H26016442   1.731   6.405   4.671  0.0597  0.8284  1.4717
   32MOL   H26116443   1.827   6.323   4.463 -3.0250  1.4829  1.7681
   32MOL   C26216444   2.368   6.280   4.862 -0.3007 -0.1878  0.3288
   32MOL   C26316445   2.482   6.223   4.954  0.3216 -0.3800 -0.2955
   32MOL   N26416446   2.595   6.161   4.873 -0.5782 -0.1527  0.2213
   32MOL   C26516447   2.647   6.034   4.895  0.1079 -0.2109 -0.3510
   32MOL   C26616448   2.761   6.009   4.807  0.2199  0.6890  0.0987
   32MOL   C26716449   2.835   5.888   4.823  0.7029  0.0625  0.0833
   32MOL   C26816450   2.808   5.802   4.935 -0.1238 -0.5632  0.6262
   32MOL   C26916451   2.696   5.827   5.017 -0.0509 -0.2584 -0.3267
   32MOL   C27016452   2.616   5.941   4.999 -0.6272  0.6095 -0.3442
   32MOL   C27116453   2.776   6.124   4.727  0.9462  0.5741  0.3885
   32MOL   C27216454   2.686   6.220   4.782  0.1075  0.2321  0.0922
   32MOL   C27316455   2.685   6.351   4.725 -0.0509 -0.8805 -0.0848
   32MOL   C27416456   2.778   6.386   4.628  0.4314 -0.3361 -0.5560
   32MOL   C27516457   2.858   6.285   4.570  0.6860 -0.7255  0.0745
   32MOL   C27616458   2.866   6.163   4.625  0.3009  0.7516 -0.6827
   32MOL   H27716459   2.416   6.357   4.802 -1.1815  0.9879  1.0925
   32MOL   H27816460   2.295   6.321   4.932 -1.3284 -0.3244 -0.6662
   32MOL   H27916461   2.431   6.145   5.010 -1.6602  0.5581 -0.7413
   32MOL   H28016462   2.924   5.878   4.763  0.7518 -2.1481  0.4788
   32MOL   H28116463   2.866   5.712   4.947 -1.6008 -1.5433  0.4908
   32MOL   H28216464   2.673   5.754   5.093  0.2530  1.1936  1.1895
   32MOL   H28316465   2.534   5.968   5.064  0.2403  0.4663  0.8245
   32MOL   H28416466   2.615   6.422   4.765  0.3095 -1.2865  1.3244
   32MOL   H28516467   2.775   6.488   4.594 -0.8767  0.3086  1.3848
   32MOL   H28616468   2.918   6.321   4.488 -3.2412  2.1799 -1.6922
   32MOL   H28716469   2.935   6.092   4.582  1.1940  0.4379  1.2338
   32MOL   C28816470   2.538   6.306   5.073  0.1443 -0.1039 -0.1349
   32MOL   C28916471   2.439   6.314   5.189  0.3778 -0.4383  0.0919
   32MOL   N29016472   2.380   6.186   5.234  0.3426 -0.3981  0.0239
   32MOL   C29116473   2.248   6.144   5.213 -0.6145  0.3813 -0.0412
   32MOL   C29216474   2.233   6.010   5.254 -1.3012 -0.2451 -0.3700
   32MOL   C29316475   2.113   5.944   5.226  0.5088 -0.2361 -0.3609
   32MOL   C29416476   1.999   6.009   5.176  0.3271  0.3135  0.2892
   32MOL   C29516477   2.012   6.141   5.130 -0.5017  0.2856 -0.2002
   32MOL   C29616478   2.136   6.210   5.153 -0.4195  0.1294 -0.0327
   32MOL   C29716479   2.352   5.978   5.318 -0.7781  0.0837  0.2224
   32MOL   C29816480   2.444   6.085   5.303 -0.0283 -0.4515 -0.6843
   32MOL   C29916481   2.572   6.078   5.359 -0.9096 -0.0418  0.8892
   32MOL   C30016482   2.608   5.961   5.424 -0.5298  0.5839 -0.0960
   32MOL   C30116483   2.517   5.857   5.442  0.0197 -0.0659 -0.0085
   32MOL   C30216484   2.388   5.861   5.385  0.0276  0.1186  0.3083
   32MOL   H30316485   2.620   6.250   5.118 -0.8607 -2.3007 -0.9735
   32MOL   H30416486   2.576   6.401   5.035 -1.1556  0.9016  1.0122
   32MOL   H30516487   2.353   6.358   5.139 -0.2069 -2.3178 -0.6170
   32MOL   H30616488   2.106   5.838   5.248 -0.5317 -0.0217  0.3918
   32MOL   H30716489   1.908   5.950   5.180  0.4354  0.1827  0.8295
   32MOL   H30816490   1.920   6.194   5.108 -1.7830 -1.8354 -0.0504
   32MOL   H30916491   2.139   6.317   5.139  3.6520  0.0752  0.0265
   32MOL   H31016492   2.641   6.162   5.359  0.7799 -1.4025  2.3586
   32MOL   H31116493   2.707   5.956   5.466 -0.8288  2.3341  0.8804
   32MOL   H31216494   2.555   5.765   5.486 -0.7635 -0.5186 -0.2707
   32MOL   H31316495   2.324   5.777   5.405  1.3358 -0.8368  0.5626
   32MOL   C31416496   2.498   6.401   5.306 -0.7340 -0.0987 -0.5900
   32MOL   C31516497   2.463   6.547   5.291  0.0690 -0.1708  0.1719
   32MOL   N31616498   2.316   6.566   5.292 -0.0474 -0.3293  0.1669
   32MOL   C31716499   2.235   6.601   5.180 -0.1690  0.4953  0.3773
   32MOL   C31816500   2.101   6.597   5.227 -0.1006  0.3916  0.0300
   32MOL   C31916501   1.999   6.614   5.135  0.0700 -0.0740 -0.4282
   32MOL   C32016502   2.022   6.624   4.995 -0.9655  0.5321 -0.7731
   32MOL   C32116503   2.156   6.635   4.951  0.3260  0.3196  0.2470
   32MOL   C32216504   2.264   6.618   5.046  0.0856 -0.1371 -0.9684
   32MOL   C32316505   2.101   6.574   5.371 -0.6653 -0.3829  0.3089
   32MOL   C32416506   2.237   6.557   5.409  0.3509  0.4772 -0.3356
   32MOL   C32516507   2.269   6.528   5.540 -0.1494  0.0145  0.6253
   32MOL   C32616508   2.173   6.544   5.645 -0.2143 -0.5742  0.0612
   32MOL   C32716509   2.041   6.563   5.610 -0.4152 -0.1277  0.1938
   32MOL   C32816510   2.001   6.566   5.474  0.0637  0.3171  0.3617
   32MOL   H32916511   2.458   6.377   5.404  1.5812  1.7806  0.8528
   32MOL   H33016512   2.606   6.394   5.312 -1.0171 -1.8900  6.4794
   32MOL   H33116513   2.498   6.591   5.197  1.7100  1.1955  1.3766
   32MOL   H33216514   1.896   6.633   5.159  0.1654  2.6382 -2.0223
   32MOL   H33316515   1.939   6.651   4.932 -0.7937 -0.6082 -1.4921
   32MOL   H33416516   2.179   6.655   4.847  1.8133 -0.8420  0.3269
   32MOL   H33516517   2.367   6.614   5.013  0.0168 -0.0286 -1.2025
   32MOL   H33616518   2.371   6.506   5.569 -0.0307  0.3517  0.4583
   32MOL   H33716519   2.200   6.529   5.748  0.8953 -1.6873 -0.3678
   32MOL   H33816520   1.967   6.563   5.689 -1.0429  2.9392 -0.3293
   32MOL   H33916521   1.896   6.585   5.453 -0.2619 -0.7148  1.0373
   32MOL   C34016522   2.543   6.629   5.393 -0.5387  0.1414 -0.4595
   32MOL   C34116523   2.518   6.784   5.376 -0.3459  0.7835  0.2847
   32MOL   N34216524   2.423   6.830   5.475 -0.0741  0.0264  0.3879
   32MOL   C34316525   2.304   6.899   5.445 -0.4590 -0.9472 -0.2040
   32MOL   C34416526   2.241   6.932   5.572 -0.1500  0.3912 -0.5810
   32MOL   C34516527   2.111   6.991   5.566  0.0733  0.7863 -0.0863
   32MOL   C34616528   2.055   7.032   5.441  0.2311  0.0620 -0.3958
   32MOL   C34716529   2.115   6.996   5.323  0.0652 -0.5821  0.9167
   32MOL   C34816530   2.237   6.928   5.321  0.0290  0.3535  0.5771
   32MOL   C34916531   2.337   6.906   5.674  0.1379  0.1073 -0.2015
   32MOL   C35016532   2.446   6.834   5.615 -0.5832 -0.5007  0.4609
   32MOL   C35116533   2.560   6.795   5.693  0.3097 -1.0392 -0.4098
   32MOL   C35216534   2.548   6.822   5.830 -0.2140  0.1225  0.0282
   32MOL   C35316535   2.437   6.878   5.895  0.1568 -0.0385 -0.4645
   32MOL   C35416536   2.331   6.925   5.814 -0.3706 -0.9678  0.3990
   32MOL   H35516537   2.533   6.591   5.495 -1.2823  0.9676 -0.2133
   32MOL   H35616538   2.651   6.619   5.381 -0.5782 -3.1110  1.2287
   32MOL   H35716539   2.479   6.799   5.276 -0.6531 -0.1882  0.2452
   32MOL   H35816540   2.052   7.022   5.651 -0.8746 -0.4219 -0.2945
   32MOL   H35916541   1.962   7.088   5.438 -0.1232 -0.5226 -0.5527
   32MOL   H36016542   2.072   7.020   5.227  0.6776 -1.6428  0.3779
   32MOL   H36116543   2.291   6.908   5.229  0.7578  0.6935  0.9369
   32MOL   H36216544   2.647   6.744   5.654  1.2118  1.2053 -1.4219
   32MOL   H36316545   2.633   6.800   5.893  1.8845  0.9215 -2.4377
   32MOL   H36416546   2.440   6.888   6.003  0.0115  2.6050 -0.6692
   32MOL   H36516547   2.248   6.971   5.865 -0.3537 -0.2758 -0.1841
   32MOL   C36616548   2.637   6.872   5.382 -0.1611  0.1356 -0.1072
   32MOL   C36716549   2.730   6.874   5.257 -0.2106 -0.5226 -0.6807
   32MOL   N36816550   2.674   6.945   5.144 -0.2042 -0.6236 -0.5270
   32MOL   C36916551   2.623   6.889   5.027  0.3097 -0.2067 -0.0007
   32MOL   C37016552   2.579   6.990   4.940 -0.2119  0.2992 -0.0910
   32MOL   C37116553   2.528   6.953   4.810 -0.1414 -0.3960  0.1722
   32MOL   C37216554   2.522   6.819   4.771  0.1439 -0.2358 -0.2567
   32MOL   C37316555   2.566   6.716   4.857 -0.7152 -0.3727  0.2689
   32MOL   C37416556   2.622   6.756   4.981  0.4769 -0.5833  0.1923
   32MOL   C37516557   2.583   7.116   5.012  0.2444 -0.0575  0.1812
   32MOL   C37616558   2.650   7.087   5.133  0.6822 -0.1186 -0.0542
   32MOL   C37716559   2.674   7.195   5.225  0.1820  0.4248 -0.5046
   32MOL   C37816560   2.624   7.326   5.202  0.4733  0.0671  0.3296
   32MOL   C37916561   2.550   7.351   5.083 -0.9335  0.8147  0.5881
   32MOL   C38016562   2.536   7.252   4.985 -0.0539  0.5523  0.4306
   32MOL   H38116563   2.626   6.979   5.401 -1.1964 -0.2895  1.8055
   32MOL   H38216564   2.705   6.839   5.461  1.1470  1.1250 -0.7910
   32MOL   H38316565   2.740   6.771   5.223  1.4164  0.2053 -2.5019
   32MOL   H38416566   2.487   7.029   4.746  1.6475 -0.2920 -0.8767
   32MOL   H38516567   2.468   6.794   4.681  1.0429  1.8758 -1.3948
   32MOL   H38616568   2.562   6.614   4.822  2.4205 -0.3832 -0.1703
   32MOL   H38716569   2.659   6.677   5.045  0.6764 -0.0724  0.7099
   32MOL   H38816570   2.718   7.193   5.324 -0.8085  2.4458  0.0008
   32MOL   H38916571   2.642   7.393   5.284  1.4633  0.9640 -0.5947
   32MOL   H39016572   2.514   7.450   5.059  0.1988  0.4914 -2.7421
   32MOL   H39116573   2.483   7.269   4.892  2.2246  0.4141 -0.9270
   32MOL   C39216574   2.877   6.916   5.274  0.0075  1.0780  0.1361
   32MOL   C39316575   2.983   6.827   5.348  0.5481 -0.1463 -0.3808
   32MOL   N39416576   2.939   6.684   5.347  0.0643  0.0495 -0.3616
   32MOL   C39516577   2.926   6.607   5.467 -0.0742  0.2279 -0.0355
   32MOL   C39616578   2.898   6.471   5.426 -0.0202 -0.1653  0.0707
   32MOL   C39716579   2.880   6.379   5.531  0.0254 -0.1840  0.1701
   32MOL   C39816580   2.886   6.412   5.670 -0.6737  0.1685 -0.4983
   32MOL   C39916581   2.919   6.546   5.704  0.2882 -0.0835  0.4879
   32MOL   C40016582   2.943   6.642   5.602 -0.6000  0.0624 -0.3241
   32MOL   C40116583   2.893   6.467   5.279 -0.0979 -0.2848 -0.2190
   32MOL   C40216584   2.924   6.599   5.235 -0.5597 -0.0188 -0.3322
   32MOL   C40316585   2.942   6.629   5.099 -0.0232  0.2989  0.6400
   32MOL   C40416586   2.908   6.537   5.002  0.0441  0.7180 -0.5078
   32MOL   C40516587   2.881   6.406   5.038  0.1983  0.0952 -0.3230
   32MOL   C40616588   2.872   6.371   5.176  0.3493  0.5504  0.1166
   32MOL   H40716589   2.912   6.941   5.173  0.3800  1.6421  0.4010
   32MOL   H40816590   2.887   7.018   5.312  0.8848  0.0321  2.7787
   32MOL   H40916591   2.972   6.853   5.454 -1.6178 -0.6763 -0.4498
   32MOL   H41016592   2.877   6.273   5.509 -1.0147 -0.4458  1.5077
   32MOL   H41116593   2.870   6.332   5.740  1.6315  0.4237  0.3547
   32MOL   H41216594   2.918   6.571   5.809 -0.9940  3.0311 -0.2225
   32MOL   H41316595   2.969   6.741   5.637 -0.4128 -0.1754  0.2214
   32MOL   H41416596   2.979   6.724   5.065 -0.1150  0.4389  0.9306
   32MOL   H41516597   2.928   6.566   4.900 -2.1575  1.2304 -0.8111
   32MOL   H41616598   2.863   6.334   4.959  1.2096 -0.5108 -0.0065
   32MOL   H41716599   2.852   6.266   5.192  3.7230 -0.2327 -0.3631
   32MOL   C41816600   3.139   6.844   5.323 -0.2356  0.1645 -0.8158
   32MOL   C41916601   3.191   6.984   5.376 -0.5811  0.0230 -0.3369
   32MOL   N42016602   3.143   7.012   5.511  0.0730 -0.7949 -0.0924
   32MOL   C42116603   3.058   7.118   5.535  0.2174  0.0944 -0.6617
   32MOL   C42216604   3.011   7.109   5.669 -0.0463 -0.4949 -0.0840
   32MOL   C42316605   2.918   7.210   5.713  0.3005 -0.4297  0.2667
   32MOL   C42416606   2.863   7.310   5.627  0.5538  0.1691 -0.4262
   32MOL   C42516607   2.910   7.313   5.491 -0.2777 -0.4393 -0.6776
   32MOL   C42616608   3.007   7.220   5.447 -0.3530 -0.2403 -0.2708
   32MOL   C42716609   3.086   7.006   5.733 -0.0987  0.0342 -0.4077
   32MOL   C42816610   3.165   6.951   5.631 -0.8518  0.9231 -0.1683
   32MOL   C42916611   3.258   6.846   5.656 -0.0462  0.1428  0.7541
   32MOL   C43016612   3.263   6.788   5.789 -0.8663 -0.1755  0.0046
   32MOL   C43116613   3.192   6.855   5.896  0.5524 -0.1830  1.0032
   32MOL   C43216614   3.100   6.960   5.865  0.0653  0.3896 -0.9616
   32MOL   H43316615   3.193   6.762   5.368  0.7628  1.2118 -0.0787
   32MOL   H43416616   3.168   6.838   5.218  1.8061  1.2214 -0.3430
   32MOL   H43516617   3.159   7.064   5.308  2.9380  1.1557 -0.7557
   32MOL   H43616618   2.894   7.206   5.818 -1.2722  0.8895 -0.0220
   32MOL   H43716619   2.787   7.382   5.655  0.9941  0.6351 -0.4023
   32MOL   H43816620   2.870   7.384   5.421  0.5447 -0.6434 -1.3591
   32MOL   H43916621   3.041   7.220   5.345  1.8521  0.2897  0.4486
   32MOL   H44016622   3.314   6.803   5.574  0.8488  1.6243  0.5714
   32MOL   H44116623   3.317   6.695   5.798  1.7046  1.2249 -0.5563
   32MOL   H44216624   3.214   6.824   5.998 -0.0251 -1.4440  0.7573
   32MOL   H44316625   3.040   7.006   5.942 -0.4806 -0.1542 -1.0561
   32MOL   C44416626   3.346   7.000   5.369 -0.1224 -0.2260 -0.3125
   32MOL   C44516627   3.393   7.139   5.420  0.6506 -0.0908 -0.4803
   32MOL   N44616628   3.428   7.141   5.558  0.1659  0.5102  0.1724
   32MOL   C44716629   3.393   7.248   5.651 -0.3798  0.2598  0.0012
   32MOL   C44816630   3.443   7.224   5.781  0.4589 -0.2610 -0.7019
   32MOL   C44916631   3.416   7.321   5.877 -0.5463  0.0715 -0.5946
   32MOL   C45016632   3.350   7.439   5.856  0.5898  0.1335  0.5660
   32MOL   C45116633   3.299   7.464   5.723 -0.0923  0.2204  0.2757
   32MOL   C45216634   3.321   7.365   5.625  0.3914  0.0224 -0.2213
   32MOL   C45316635   3.516   7.095   5.771 -0.3902  0.2246 -0.0819
   32MOL   C45416636   3.513   7.054   5.636  0.0498  0.1634  0.8168
   32MOL   C45516637   3.592   6.940   5.595 -0.1474  0.7414 -0.6221
   32MOL   C45616638   3.654   6.854   5.692 -0.1191 -0.2439  0.2260
   32MOL   C45716639   3.658   6.899   5.829 -0.4266  0.0842  0.2853
   32MOL   C45816640   3.593   7.019   5.864 -1.0656 -0.3580 -0.1624
   32MOL   H45916641   3.401   6.919   5.417 -2.4084 -2.1436 -0.8249
   32MOL   H46016642   3.371   6.985   5.264  1.0628 -2.4560  0.2765
   32MOL   H46116643   3.312   7.208   5.396  0.7218  0.4722  0.8907
   32MOL   H46216644   3.448   7.306   5.979  2.4448  0.5755 -1.4004
   32MOL   H46316645   3.349   7.509   5.939 -0.3168  1.6125 -0.6716
   32MOL   H46416646   3.243   7.555   5.708  1.1289  0.7116 -1.4889
   32MOL   H46516647   3.276   7.380   5.528 -0.1501  1.8080  0.2820
   32MOL   H46616648   3.592   6.905   5.493 -0.4099  2.1119 -1.1132
   32MOL   H46716649   3.690   6.756   5.666 -1.0543 -0.6386  0.3931
   32MOL   H46816650   3.707   6.848   5.911  2.1050  0.2192 -1.0961
   32MOL   H46916651   3.600   7.069   5.960  0.6933 -4.4371  1.9815
   32MOL   C47016652   3.516   7.177   5.336  0.2951  0.5594  0.0900
   32MOL   C47116653   3.503   7.200   5.184  0.2134  0.7162 -0.1159
   32MOL   N47216654   3.389   7.281   5.148 -0.4873  0.5351 -0.1072
   32MOL   C47316655   3.273   7.231   5.092 -0.2205  0.0812  0.0558
   32MOL   C47416656   3.176   7.333   5.091  0.0819  0.1703  0.1728
   32MOL   C47516657   3.046   7.298   5.045  0.0637  0.2974  0.5688
   32MOL   C47616658   3.018   7.161   5.009  0.1575 -0.0261 -0.2983
   32MOL   C47716659   3.117   7.069   4.990  0.0361  0.1653  0.3261
   32MOL   C47816660   3.242   7.103   5.036  0.1352 -0.0937  0.0898
   32MOL   C47916661   3.233   7.455   5.147 -0.0968  1.0942 -0.1675
   32MOL   C48016662   3.367   7.417   5.186  0.6734 -0.4077  0.2417
   32MOL   C48116663   3.451   7.510   5.249 -0.2535 -0.0789 -0.6582
   32MOL   C48216664   3.403   7.638   5.272  0.6838  0.1840  0.1049
   32MOL   C48316665   3.274   7.681   5.227 -0.6484 -0.4677  0.0610
   32MOL   C48416666   3.194   7.586   5.169 -0.1032 -0.1650 -0.5442
   32MOL   H48516667   3.548   7.273   5.377 -2.2159  1.1353  0.8274
   32MOL   H48616668   3.594   7.103   5.352  1.4782  1.8475  0.3535
   32MOL   H48716669   3.497   7.099   5.143  2.6522 -0.2707  1.8050
   32MOL   H48816670   2.969   7.374   5.050  0.2076  0.4240  0.8157
   32MOL   H48916671   2.915   7.138   4.985 -0.1520  1.3057 -0.3015
   32MOL   H49016672   3.104   6.974   4.940  0.2988 -0.4065  1.3342
   32MOL   H49116673   3.317   7.027   5.025  1.2623  0.7569  1.8267
   32MOL   H49216674   3.552   7.485   5.275 -0.2362  1.1007  0.4748
   32MOL   H49316675   3.474   7.712   5.307  0.0800  1.4890 -1.3731
   32MOL   H49416676   3.239   7.783   5.236  1.3325  0.1209  1.4036
   32MOL   H49516677   3.096   7.620   5.139  0.3616  1.5042 -0.2044
   32MOL   C49616678   3.632   7.255   5.113 -0.1552 -0.5522 -0.4808
   32MOL   C49716679   3.740   7.153   5.076 -0.3675 -0.7670  0.3973
   32MOL   N49816680   3.704   7.013   5.078 -0.0664 -0.4243  0.2943
   32MOL   C49916681   3.747   6.923   5.174  0.1296 -0.6622  0.5891
   32MOL   C50016682   3.690   6.796   5.146 -0.2303  0.1403  0.5623
   32MOL   C50116683   3.722   6.683   5.225  0.5760  0.0749 -0.4592
   32MOL   C50216684   3.802   6.701   5.338 -0.3629 -0.4661 -0.3748
   32MOL   C50316685   3.867   6.827   5.357 -0.0303 -0.2192  0.1923
   32MOL   C50416686   3.840   6.936   5.277 -0.0374 -0.2319  0.1770
   32MOL   C50516687   3.597   6.816   5.037  0.6145 -0.2619 -0.3051
   32MOL   C50616688   3.617   6.951   4.993 -1.0152 -0.6404 -0.0420
   32MOL   C50716689   3.545   6.997   4.877 -0.3016 -0.2579 -0.1756
   32MOL   C50816690   3.448   6.917   4.812  0.0345  0.4964  0.4956
   32MOL   C50916691   3.414   6.793   4.869 -0.4505 -0.1970 -0.0875
   32MOL   C51016692   3.498   6.740   4.975  0.5599 -0.5911  0.4202
   32MOL   H51116693   3.591   7.290   5.018 -0.4531  0.1157 -0.1111
   32MOL   H51216694   3.671   7.343   5.164 -0.9230 -1.2052  1.2973
   32MOL   H51316695   3.821   7.167   5.149  2.0713 -0.9089 -2.1984
   32MOL   H51416696   3.680   6.586   5.204  0.1821  0.1019  0.1913
   32MOL   H51516697   3.817   6.622   5.410 -0.4111  0.8171  1.0800
   32MOL   H51616698   3.929   6.839   5.444 -1.1435 -1.9020  1.2282
   32MOL   H51716699   3.889   7.030   5.301  1.0296 -0.9570  0.8780
   32MOL   H51816700   3.568   7.094   4.837  0.4955 -2.0896 -4.4151
   32MOL   H51916701   3.398   6.951   4.722 -0.0991 -1.5073 -0.2021
   32MOL   H52016702   3.339   6.732   4.822 -0.3482  0.2745 -0.8708
   32MOL   H52116703   3.470   6.640   5.007  1.0555 -1.3186 -1.3514
   32MOL   H52216704   3.779   7.178   4.977  1.6898  0.2275  1.3986
   33MOL     C116705   5.538   3.479   5.590  0.6569  0.4751  0.2823
   33MOL     C216706   5.566   3.504   5.733 -0.5992  0.4765 -0.3991
   33MOL     N316707   5.452   3.467   5.813 -0.5171  0.0177  0.2950
   33MOL     C416708   5.387   3.560   5.890  0.5668  0.3407  0.0947
   33MOL     C516709   5.288   3.487   5.962 -0.2119 -0.0328 -0.0397
   33MOL     C616710   5.215   3.557   6.064 -0.1703  0.9535  0.0456
   33MOL     C716711   5.244   3.688   6.091  0.0912 -0.2881  0.4678
   33MOL     C816712   5.349   3.759   6.030  0.6555 -0.1089 -0.7390
   33MOL     C916713   5.410   3.700   5.920 -0.4324 -0.0575 -0.1700
   33MOL    C1016714   5.294   3.348   5.926 -0.1919  0.5385 -0.4253
   33MOL    C1116715   5.393   3.340   5.824 -0.0217 -0.0009  0.2476
   33MOL    C1216716   5.443   3.215   5.777 -0.0208  0.0576  0.3355
   33MOL    C1316717   5.383   3.096   5.830  0.2905 -0.6502  0.1958
   33MOL    C1416718   5.278   3.095   5.926  0.1178  0.2523  0.8196
   33MOL    C1516719   5.232   3.222   5.969 -0.0065 -0.1148 -0.4320
   33MOL    H1616720   5.515   3.375   5.564 -2.1024  1.0081  0.3933
   33MOL    H1716721   5.611   3.524   5.524  1.6285 -1.3065  0.1069
   33MOL    H1816722   5.576   3.611   5.748  0.1715  0.2566  0.7247
   33MOL    H1916723   5.137   3.502   6.115  1.3572 -0.2492  1.1387
   33MOL    H2016724   5.181   3.746   6.156  2.1393  1.3398  1.0306
   33MOL    H2116725   5.361   3.864   6.050 -1.8151 -0.0778  0.8588
   33MOL    H2216726   5.486   3.758   5.869 -0.4052 -1.6427 -2.0079
   33MOL    H2316727   5.529   3.215   5.711  0.5944  1.9808  1.0820
   33MOL    H2416728   5.428   3.001   5.803 -0.8706 -0.6262 -1.9737
   33MOL    H2516729   5.225   3.004   5.948 -2.0263  1.1095 -0.6307
   33MOL    H2616730   5.153   3.225   6.043  1.2564  1.1507  0.9081
   33MOL    H2716731   5.441   3.522   5.565  0.2443 -0.9451 -0.6019
   33MOL    C2816732   5.700   3.447   5.771  0.3365 -0.1072 -0.0931
   33MOL    C2916733   5.732   3.469   5.917  0.5594  0.1188 -0.2250
   33MOL    N3016734   5.684   3.360   6.001 -0.2832  0.2029 -0.7757
   33MOL    C3116735   5.608   3.373   6.112 -0.7508 -0.4276 -0.0066
   33MOL    C3216736   5.602   3.256   6.186 -0.7047 -0.1864 -0.9036
   33MOL    C3316737   5.533   3.250   6.309  0.5301  0.4889  0.3873
   33MOL    C3416738   5.468   3.367   6.345  0.0728 -0.6705 -0.5212
   33MOL    C3516739   5.484   3.488   6.275 -0.0946 -0.0877  1.1165
   33MOL    C3616740   5.557   3.489   6.161 -0.6245 -0.2497 -0.4554
   33MOL    C3716741   5.670   3.157   6.113 -0.0403 -0.2084 -0.5751
   33MOL    C3816742   5.730   3.227   6.007 -0.0164  0.2187 -0.2510
   33MOL    C3916743   5.813   3.158   5.920  0.5854 -0.1680 -0.0741
   33MOL    C4016744   5.836   3.019   5.929 -0.0768  0.3398  0.2607
   33MOL    C4116745   5.763   2.952   6.026  0.6666  0.6306  0.2735
   33MOL    C4216746   5.693   3.024   6.118 -0.0511 -0.2026 -0.8444
   33MOL    H4316747   5.717   3.346   5.735  2.1867 -0.0220  0.4918
   33MOL    H4416748   5.772   3.507   5.716  1.8732 -0.0100  1.9543
   33MOL    H4516749   5.683   3.555   5.962  1.5641  1.0361 -0.8574
   33MOL    H4616750   5.534   3.152   6.355  0.3451  0.1613 -0.2975
   33MOL    H4716751   5.402   3.376   6.429  0.0554 -2.1839 -0.3638
   33MOL    H4816752   5.433   3.583   6.291 -1.5469 -0.6537 -0.0014
   33MOL    H4916753   5.565   3.586   6.114  0.2951  0.2200  0.6368
   33MOL    H5016754   5.859   3.215   5.841 -0.1282  0.9369  0.2902
   33MOL    H5116755   5.885   2.973   5.845 -0.2774 -1.0750  0.9091
   33MOL    H5216756   5.770   2.844   6.033  1.7583  0.7493  1.2167
   33MOL    H5316757   5.647   2.971   6.200 -1.0021  2.1003  0.1832
   33MOL    C5416758   5.881   3.494   5.940  0.4462  0.2249 -0.4297
   33MOL    C5516759   5.930   3.639   5.918  0.6311  0.4429  0.0735
   33MOL    N5616760   5.854   3.743   5.992  0.3673  0.2315 -0.8497
   33MOL    C5716761   5.818   3.866   5.935  0.3261  0.4298  0.5283
   33MOL    C5816762   5.746   3.943   6.031 -0.7322  0.1571 -0.1150
   33MOL    C5916763   5.698   4.070   5.998 -0.6053 -0.0422  0.5218
   33MOL    C6016764   5.713   4.126   5.867  0.8134  0.5578 -0.2907
   33MOL    C6116765   5.785   4.043   5.772 -0.7771 -0.7661 -0.4572
   33MOL    C6216766   5.839   3.919   5.806 -0.1470  0.3130 -0.0752
   33MOL    C6316767   5.743   3.867   6.155 -0.0091 -0.2872  0.1501
   33MOL    C6416768   5.811   3.747   6.130  0.7735 -0.8341  0.7500
   33MOL    C6516769   5.826   3.648   6.224  0.5290  0.1807  0.0119
   33MOL    C6616770   5.761   3.667   6.351 -0.4346  0.1847  0.0601
   33MOL    C6716771   5.692   3.788   6.382 -0.6849 -0.2297  0.0403
   33MOL    C6816772   5.683   3.889   6.284  0.2633  0.6611  0.8100
   33MOL    H6916773   5.914   3.459   6.037  0.0015  1.1376  0.0539
   33MOL    H7016774   5.932   3.422   5.876 -1.6833  0.5140 -2.5609
   33MOL    H7116775   5.924   3.659   5.811  1.4186 -0.2610 -0.1129
   33MOL    H7216776   5.638   4.127   6.067 -1.2168  1.2141 -1.0168
   33MOL    H7316777   5.681   4.224   5.837  0.6356  0.2498 -1.1147
   33MOL    H7416778   5.811   4.078   5.673  1.7075  1.8932  1.0566
   33MOL    H7516779   5.894   3.859   5.735 -0.3273 -1.7079  1.4484
   33MOL    H7616780   5.880   3.556   6.207  0.8612  0.8876 -2.9944
   33MOL    H7716781   5.757   3.588   6.425 -0.1372  0.8017  0.7471
   33MOL    H7816782   5.659   3.814   6.482  2.1732 -0.9671  1.2542
   33MOL    H7916783   5.631   3.979   6.314  0.1013  0.1542  2.0974
   33MOL    C8016784   6.078   3.656   5.949  1.0061 -0.0194 -0.1822
   33MOL    C8116785   6.189   3.569   5.881  0.1375  0.3056 -0.0154
   33MOL    N8216786   6.151   3.495   5.759  0.3220  0.0860  0.4824
   33MOL    C8316787   6.157   3.357   5.735 -0.8519  0.1184 -0.2305
   33MOL    C8416788   6.109   3.333   5.605 -0.2409 -1.2966  0.3724
   33MOL    C8516789   6.098   3.195   5.573  0.1971  0.1004 -0.2216
   33MOL    C8616790   6.142   3.093   5.660  0.2680  0.3988 -0.2597
   33MOL    C8716791   6.200   3.123   5.785 -0.2563  0.1795 -0.2548
   33MOL    C8816792   6.217   3.254   5.817 -0.0348 -0.6406 -0.0990
   33MOL    C8916793   6.082   3.458   5.546 -0.5374 -0.4425  0.0612
   33MOL    C9016794   6.105   3.559   5.642  0.0784 -0.1158  0.6533
   33MOL    C9116795   6.093   3.698   5.606 -0.1593 -1.2326  0.2300
   33MOL    C9216796   6.059   3.736   5.477 -0.3828  0.3318 -0.0200
   33MOL    C9316797   6.042   3.634   5.380  0.7504 -0.5095  0.2641
   33MOL    C9416798   6.040   3.502   5.420  0.5073 -0.4656 -0.1821
   33MOL    H9516799   6.098   3.762   5.933  2.5789 -0.3671 -0.6304
   33MOL    H9616800   6.084   3.648   6.058  0.2007  0.2721 -0.1166
   33MOL    H9716801   6.195   3.494   5.960  0.1326 -0.0338 -0.3378
   33MOL    H9816802   6.067   3.157   5.476 -0.0082  1.5301 -0.7306
   33MOL    H9916803   6.123   2.993   5.624 -1.0634  0.6202 -0.1815
   33MOL   H10016804   6.225   3.038   5.847 -0.4731 -0.7395 -1.4195
   33MOL   H10116805   6.275   3.278   5.905 -0.6373  0.8153 -0.0815
   33MOL   H10216806   6.109   3.767   5.688  1.2953 -2.0167  0.6299
   33MOL   H10316807   6.055   3.841   5.455 -0.5729  0.3821  0.2515
   33MOL   H10416808   6.028   3.655   5.275 -1.4183  1.5583  0.9181
   33MOL   H10516809   6.021   3.429   5.342 -0.7025 -0.2347 -0.1100
   33MOL   C10616810   6.334   3.640   5.871 -0.1212 -0.0289 -0.2300
   33MOL   C10716811   6.400   3.706   6.000  0.6979 -0.0602 -0.7750
   33MOL   N10816812   6.376   3.621   6.114 -0.1684  0.7001 -0.3330
   33MOL   C10916813   6.297   3.650   6.227 -0.2443  0.7312  0.1822
   33MOL   C11016814   6.301   3.542   6.316 -0.0189  0.2208 -0.2111
   33MOL   C11116815   6.231   3.543   6.440  0.0537  0.4563  0.0657
   33MOL   C11216816   6.160   3.660   6.477 -0.1980 -0.3163 -0.8930
   33MOL   C11316817   6.158   3.769   6.388 -0.1501 -0.3545  0.0197
   33MOL   C11416818   6.229   3.766   6.267  0.3686 -0.2921  0.3104
   33MOL   C11516819   6.386   3.440   6.264 -0.0159 -0.1152  0.0170
   33MOL   C11616820   6.433   3.489   6.136 -0.1428  0.0195  0.1930
   33MOL   C11716821   6.527   3.412   6.059  0.2398 -0.4695  0.5121
   33MOL   C11816822   6.570   3.284   6.107 -0.0183 -0.2982  0.7553
   33MOL   C11916823   6.526   3.240   6.234  0.9414 -0.4324 -0.5993
   33MOL   C12016824   6.430   3.315   6.307  0.4208 -0.3912 -0.0162
   33MOL   H12116825   6.409   3.564   5.847 -0.3520 -0.2392 -0.2881
   33MOL   H12216826   6.350   3.702   5.782  1.3006 -0.1429 -0.0769
   33MOL   H12316827   6.347   3.799   6.021  3.0138  1.0848  0.1994
   33MOL   H12416828   6.235   3.453   6.500  1.3424  0.3959 -0.1114
   33MOL   H12516829   6.130   3.681   6.579 -1.4948  2.6972 -1.8097
   33MOL   H12616830   6.110   3.862   6.413 -0.2090 -0.2444 -0.4889
   33MOL   H12716831   6.236   3.861   6.215 -2.8809  0.6250  1.3491
   33MOL   H12816832   6.574   3.450   5.970 -0.9141 -0.6380 -0.1869
   33MOL   H12916833   6.644   3.227   6.053  0.3853  1.2252 -0.3240
   33MOL   H13016834   6.561   3.153   6.285  1.3239  0.7794  1.2475
   33MOL   H13116835   6.395   3.274   6.400 -1.3426  0.0773 -0.4622
   33MOL   C13216836   6.544   3.749   5.983  0.6137  0.7549  0.7756
   33MOL   C13316837   6.579   3.873   5.902  0.3351  0.6660  0.1336
   33MOL   N13416838   6.525   3.995   5.964  0.1378 -0.2335  0.4495
   33MOL   C13516839   6.409   4.063   5.925 -0.2810 -0.1140  0.2701
   33MOL   C13616840   6.381   4.170   6.011 -0.1488 -0.1175 -0.3034
   33MOL   C13716841   6.273   4.256   5.986  0.1607 -0.1775  0.0990
   33MOL   C13816842   6.187   4.235   5.876 -0.2773  0.1056 -0.4401
   33MOL   C13916843   6.212   4.128   5.786  0.0276 -0.0123  0.6345
   33MOL   C14016844   6.328   4.047   5.804 -0.1435 -0.0577  0.6756
   33MOL   C14116845   6.479   4.164   6.120 -0.4817 -0.3025 -0.0753
   33MOL   C14216846   6.555   4.049   6.093 -1.0304  0.2917  0.3870
   33MOL   C14316847   6.649   4.007   6.193  0.4928 -0.2630  0.3477
   33MOL   C14416848   6.686   4.090   6.306 -0.3661 -0.2323  0.2498
   33MOL   C14516849   6.622   4.213   6.317  0.2642  0.1642 -0.6036
   33MOL   C14616850   6.516   4.240   6.233 -0.5305  0.2113  0.4220
   33MOL   H14716851   6.592   3.749   6.081  1.4751  2.7898  0.4058
   33MOL   H14816852   6.588   3.669   5.923 -0.4177  0.3282  0.5914
   33MOL   H14916853   6.525   3.855   5.809  2.6145 -3.2397 -0.5576
   33MOL   H15016854   6.262   4.333   6.061 -0.2077 -1.7742  1.7162
   33MOL   H15116855   6.102   4.299   5.859 -0.9838  0.3218  3.3465
   33MOL   H15216856   6.149   4.122   5.699  1.1885  1.0965 -0.3117
   33MOL   H15316857   6.333   3.962   5.738 -1.2974  0.2342  0.2178
   33MOL   H15416858   6.696   3.910   6.186  1.4933  0.2857 -0.7847
   33MOL   H15516859   6.760   4.056   6.377 -0.5632 -2.1733 -0.4482
   33MOL   H15616860   6.639   4.275   6.404  0.6700 -1.0384  0.1828
   33MOL   H15716861   6.450   4.324   6.250 -0.1193 -0.0637  3.6643
   33MOL   C15816862   6.733   3.897   5.865 -0.2283 -0.1512 -0.2380
   33MOL   C15916863   6.792   3.787   5.767 -0.1987 -0.1878 -0.6558
   33MOL   N16016864   6.708   3.777   5.653 -0.3108  0.3024  0.3981
   33MOL   C16116865   6.636   3.664   5.613  0.2546 -0.2856  0.4661
   33MOL   C16216866   6.559   3.697   5.493 -0.2022 -0.4954 -0.2132
   33MOL   C16316867   6.472   3.608   5.440 -0.0014  0.7809 -0.0133
   33MOL   C16416868   6.456   3.478   5.504  0.1425 -0.4578 -0.0917
   33MOL   C16516869   6.531   3.445   5.616  0.6449  0.5212 -0.9625
   33MOL   C16616870   6.619   3.535   5.674  0.4534 -1.0469 -0.5717
   33MOL   C16716871   6.603   3.827   5.458  0.6607 -1.0227 -0.5144
   33MOL   C16816872   6.694   3.879   5.553 -0.0534  0.0004 -0.1381
   33MOL   C16916873   6.763   3.996   5.528 -0.1631 -0.3870 -0.4327
   33MOL   C17016874   6.731   4.077   5.417 -0.3077  0.5885  0.0769
   33MOL   C17116875   6.635   4.032   5.320 -0.3246 -0.4294 -0.1861
   33MOL   C17216876   6.573   3.913   5.350  0.0557  0.4288 -0.1206
   33MOL   H17316877   6.748   3.999   5.828  0.8780  0.4470  1.8169
   33MOL   H17416878   6.791   3.900   5.956 -1.8730  2.2773  0.7864
   33MOL   H17516879   6.778   3.695   5.825 -1.6495  0.0503 -0.6032
   33MOL   H17616880   6.417   3.628   5.349  1.1667 -0.2987 -0.9740
   33MOL   H17716881   6.376   3.412   5.474 -1.9276  2.4456 -1.1317
   33MOL   H17816882   6.509   3.346   5.656 -1.1642  0.2182 -2.6269
   33MOL   H17916883   6.672   3.509   5.764  2.6468  1.0584 -1.1959
   33MOL   H18016884   6.833   4.037   5.599 -1.0895 -0.8169  0.7234
   33MOL   H18116885   6.794   4.164   5.405  0.5596 -0.1089 -0.5032
   33MOL   H18216886   6.618   4.102   5.240 -2.8822 -0.3368  0.3863
   33MOL   H18316887   6.508   3.870   5.275  0.9243 -0.6188 -0.2884
   33MOL   C18416888   6.946   3.794   5.733  0.5649 -0.7641  0.4532
   33MOL   C18516889   7.039   3.770   5.851  0.4963 -0.7566 -0.0113
   33MOL   N18616890   6.998   3.661   5.933 -0.3018 -0.3110 -0.1400
   33MOL   C18716891   6.948   3.668   6.067 -0.5519  0.0417  0.1916
   33MOL   C18816892   6.915   3.540   6.109 -0.1391  0.1032 -0.8210
   33MOL   C18916893   6.852   3.528   6.239  0.2423  1.0204 -0.8799
   33MOL   C19016894   6.841   3.638   6.325 -0.5015  0.5742 -0.9336
   33MOL   C19116895   6.889   3.761   6.285  0.2040  0.1829 -0.0570
   33MOL   C19216896   6.947   3.775   6.157  0.8361  0.4615  0.0495
   33MOL   C19316897   6.944   3.453   6.002 -0.9693  0.1414  0.9489
   33MOL   C19416898   6.990   3.528   5.892  0.1984  0.3735  0.3157
   33MOL   C19516899   7.013   3.467   5.770  0.0938  0.0906  0.4577
   33MOL   C19616900   6.984   3.330   5.758  0.0069  0.6649  0.6782
   33MOL   C19716901   6.935   3.253   5.865  0.7396 -1.1685  0.8885
   33MOL   C19816902   6.917   3.316   5.989  1.1440  1.0432  0.0702
   33MOL   H19916903   6.970   3.723   5.654 -1.8727  0.7564 -1.7033
   33MOL   H20016904   6.976   3.891   5.693 -0.3140 -1.1414 -1.1435
   33MOL   H20116905   7.021   3.860   5.909  2.7535  0.1841 -0.7025
   33MOL   H20216906   6.819   3.430   6.271  3.0103  0.7146  1.2555
   33MOL   H20316907   6.804   3.614   6.423 -1.3286  1.7505 -0.9526
   33MOL   H20416908   6.878   3.842   6.355  0.4353 -1.7244  2.2387
   33MOL   H20516909   6.974   3.872   6.117 -0.3989  1.0519  0.6147
   33MOL   H20616910   7.052   3.527   5.689  2.1783  0.1875  1.5093
   33MOL   H20716911   6.999   3.285   5.661  0.2224 -1.7022  1.7563
   33MOL   H20816912   6.906   3.151   5.845 -0.7573 -0.3487 -1.3677
   33MOL   H20916913   6.872   3.255   6.066  1.2524  1.3423  0.3717
   33MOL   C21016914   7.188   3.788   5.817  0.3506 -0.8288 -0.2460
   33MOL   C21116915   7.291   3.782   5.936  0.2371  0.2592  0.0173
   33MOL   N21216916   7.338   3.643   5.958 -0.2674  0.2044 -0.1131
   33MOL   C21316917   7.315   3.567   6.076  0.5127  0.0041  0.2045
   33MOL   C21416918   7.378   3.440   6.058  0.1479  0.3287  0.3120
   33MOL   C21516919   7.369   3.342   6.161  0.0734  0.3565  0.1069
   33MOL   C21616920   7.289   3.372   6.271 -0.5472  0.2431 -0.3616
   33MOL   C21716921   7.236   3.503   6.288 -0.4570 -0.4763 -1.3086
   33MOL   C21816922   7.248   3.602   6.189  0.2017 -0.5272  0.2153
   33MOL   C21916923   7.436   3.444   5.928  1.1063  0.7064  0.2090
   33MOL   C22016924   7.401   3.563   5.862 -1.3245  0.3185 -0.3755
   33MOL   C22116925   7.456   3.592   5.735  0.9557 -0.2825 -0.2309
   33MOL   C22216926   7.530   3.495   5.663  0.3261  0.8001 -0.0980
   33MOL   C22316927   7.546   3.369   5.719 -0.4820  0.6362 -0.1040
   33MOL   C22416928   7.501   3.345   5.849 -0.5353 -0.7976 -0.4094
   33MOL   H22516929   7.211   3.717   5.737  2.0414  0.3264 -0.8273
   33MOL   H22616930   7.207   3.881   5.763 -1.4558 -0.8219 -0.8946
   33MOL   H22716931   7.238   3.813   6.026  2.3746 -0.7487  1.6714
   33MOL   H22816932   7.414   3.246   6.141 -0.3349 -0.1477  1.6392
   33MOL   H22916933   7.282   3.295   6.347 -0.5630  0.0821 -0.5272
   33MOL   H23016934   7.178   3.514   6.378  2.0933 -0.7791  0.4105
   33MOL   H23116935   7.194   3.694   6.206  1.1738  0.2462 -0.8053
   33MOL   H23216936   7.435   3.685   5.684  0.7932  0.1488  0.6093
   33MOL   H23316937   7.549   3.522   5.560  0.1865 -1.0782 -0.6388
   33MOL   H23416938   7.597   3.289   5.667 -0.3774  1.3754 -1.1415
   33MOL   H23516939   7.518   3.245   5.885  2.6433 -0.5377 -1.0051
   33MOL   C23616940   7.414   3.870   5.922 -0.1190 -0.7481 -0.4817
   33MOL   C23716941   7.392   4.017   5.890  0.1547 -0.0852  0.4517
   33MOL   N23816942   7.267   4.075   5.951 -0.1742 -0.1972  0.7849
   33MOL   C23916943   7.168   4.147   5.880 -0.0650 -0.2450 -0.1198
   33MOL   C24016944   7.059   4.167   5.972  0.3491  0.1562  0.7537
   33MOL   C24116945   6.937   4.221   5.916 -0.2846  0.1995  0.4112
   33MOL   C24216946   6.932   4.255   5.780  0.1374  0.1418 -0.0983
   33MOL   C24316947   7.041   4.232   5.694  0.2850 -0.2691 -0.1404
   33MOL   C24416948   7.161   4.192   5.748 -0.1880  0.1785  0.3706
   33MOL   C24516949   7.100   4.122   6.099 -0.0037 -0.4777 -0.0960
   33MOL   C24616950   7.230   4.064   6.081  0.2919 -0.2405  0.2916
   33MOL   C24716951   7.300   4.009   6.194 -0.3352  0.6320 -0.1176
   33MOL   C24816952   7.240   4.017   6.317  0.0570  0.3650 -0.4797
   33MOL   C24916953   7.108   4.061   6.340 -0.4020 -0.4496 -0.3275
   33MOL   C25016954   7.036   4.113   6.232 -0.2555 -0.6018  0.2652
   33MOL   H25116955   7.462   3.861   6.019  1.0596 -1.8888 -1.1420
   33MOL   H25216956   7.476   3.830   5.841  1.6917 -0.0045  0.5107
   33MOL   H25316957   7.381   4.025   5.782 -2.0456  1.0050  0.7252
   33MOL   H25416958   6.844   4.231   5.970 -0.1347 -0.2123  0.7462
   33MOL   H25516959   6.851   4.303   5.728  2.2487 -0.3816 -4.1189
   33MOL   H25616960   7.046   4.273   5.594 -1.2939 -1.1723 -0.6019
   33MOL   H25716961   7.238   4.174   5.675  0.0990  0.7329  0.5372
   33MOL   H25816962   7.396   3.961   6.186 -0.8985 -0.4608 -0.4030
   33MOL   H25916963   7.296   3.977   6.400 -2.5670  0.0856  1.2022
   33MOL   H26016964   7.066   4.063   6.440 -0.5368 -0.4840 -0.3828
   33MOL   H26116965   6.936   4.152   6.245 -0.2026 -0.3320 -0.1194
   33MOL   C26216966   7.508   4.112   5.923  0.5050  0.4191  0.0734
   33MOL   C26316967   7.640   4.087   5.852  0.0243 -0.1100 -0.5397
   33MOL   N26416968   7.639   4.049   5.712  1.0906 -0.1705  0.0833
   33MOL   C26516969   7.690   3.927   5.660  0.4804  0.1835  0.0736
   33MOL   C26616970   7.677   3.923   5.515 -1.1862  0.2007 -0.2648
   33MOL   C26716971   7.718   3.808   5.439 -0.2685 -0.0558  0.1588
   33MOL   C26816972   7.778   3.701   5.506 -0.0298  1.0278 -0.3674
   33MOL   C26916973   7.793   3.702   5.647  0.0019 -0.1389  0.1944
   33MOL   C27016974   7.744   3.815   5.719 -0.5748  0.1535  0.3031
   33MOL   C27116975   7.612   4.050   5.476 -0.4823  0.9550 -0.2928
   33MOL   C27216976   7.590   4.116   5.602  0.8455 -0.5368 -0.7912
   33MOL   C27316977   7.511   4.232   5.607  0.2200  0.4925 -0.8303
   33MOL   C27416978   7.457   4.288   5.485  0.3421 -0.4834  0.1030
   33MOL   C27516979   7.492   4.226   5.362  0.3301 -0.6428  0.1107
   33MOL   C27616980   7.579   4.112   5.356  0.8517  0.0268 -0.3792
   33MOL   H27716981   7.487   4.219   5.916 -0.4294  0.1884 -0.7828
   33MOL   H27816982   7.512   4.108   6.032 -1.6243  0.1961  0.1646
   33MOL   H27916983   7.672   3.994   5.898  0.2394  0.0676 -0.3270
   33MOL   H28016984   7.709   3.801   5.332  1.5684 -0.9321  0.0476
   33MOL   H28116985   7.808   3.611   5.455 -0.7288  0.9830 -0.7144
   33MOL   H28216986   7.850   3.622   5.692 -1.0133 -0.7357  0.4475
   33MOL   H28316987   7.749   3.812   5.827 -2.2600 -0.7035  0.3802
   33MOL   H28416988   7.473   4.281   5.695 -0.6998 -0.0739 -0.9143
   33MOL   H28516989   7.390   4.373   5.488  1.5566  0.4525  1.4220
   33MOL   H28616990   7.446   4.253   5.268  2.7589 -0.5130 -1.0959
   33MOL   H28716991   7.606   4.067   5.262  0.5677 -0.0201 -0.4389
   33MOL   C28816992   7.748   4.193   5.880  0.0547  0.0998 -0.0005
   33MOL   C28916993   7.768   4.228   6.024  0.8290  0.3070  0.5529
   33MOL   N29016994   7.796   4.119   6.116 -0.3804  0.1132  0.1041
   33MOL   C29116995   7.723   4.096   6.231 -0.2829 -0.5222  0.4351
   33MOL   C29216996   7.754   3.967   6.283  0.1761 -0.5479 -0.0389
   33MOL   C29316997   7.681   3.919   6.398  0.2164  0.3944 -0.2586
   33MOL   C29416998   7.581   3.995   6.455 -0.3900  0.5407 -0.0133
   33MOL   C29516999   7.555   4.126   6.410 -0.0075  0.4780 -0.6376
   33MOL   C29617000   7.618   4.175   6.294  0.4645 -0.1682 -0.9140
   33MOL   C29717001   7.872   3.920   6.214  0.7176  0.2529  0.1310
   33MOL   C29817002   7.898   4.016   6.109  0.0535  0.6088 -0.3834
   33MOL   C29917003   8.010   3.997   6.024  0.3417  0.1980  0.3538
   33MOL   C30017004   8.105   3.897   6.040  0.2160 -0.5919 -0.9080
   33MOL   C30117005   8.081   3.803   6.145 -0.3190  0.2486 -0.0166
   33MOL   C30217006   7.969   3.819   6.228 -0.6275 -0.5019 -0.2289
   33MOL   H30317007   7.845   4.162   5.841  0.2560  1.7748 -0.8921
   33MOL   H30417008   7.727   4.279   5.816  2.4988  2.6818  2.5129
   33MOL   H30517009   7.671   4.259   6.062  0.6562  1.5191 -0.8333
   33MOL   H30617010   7.706   3.821   6.437 -0.7572  0.2732  0.0834
   33MOL   H30717011   7.533   3.958   6.544 -0.3744  3.0530  1.0848
   33MOL   H30817012   7.471   4.176   6.457 -0.4575  0.2889 -1.2455
   33MOL   H30917013   7.579   4.268   6.255 -0.2504 -0.0724  0.0170
   33MOL   H31017014   8.029   4.073   5.950 -1.2390  0.9986  0.7410
   33MOL   H31117015   8.194   3.889   5.980  0.0341  0.8814 -1.3856
   33MOL   H31217016   8.155   3.727   6.163 -1.4221 -0.7427  0.3709
   33MOL   H31317017   7.959   3.739   6.300  1.8450 -2.4182 -1.9340
   33MOL   C31417018   7.877   4.336   6.036  0.0793 -0.1701  0.6413
   33MOL   C31517019   7.844   4.474   5.981  0.1846  0.2102 -0.0802
   33MOL   N31617020   7.707   4.509   6.010  0.0866 -0.2093 -0.5261
   33MOL   C31717021   7.601   4.524   5.919 -0.4582  0.5118  0.4123
   33MOL   C31817022   7.476   4.528   5.982  0.0066  0.1565 -0.3271
   33MOL   C31917023   7.357   4.524   5.903 -0.9503  0.9891  0.0550
   33MOL   C32017024   7.356   4.547   5.762 -0.2019 -0.4158 -0.6759
   33MOL   C32117025   7.483   4.548   5.703  0.0482  0.3895  0.5683
   33MOL   C32217026   7.606   4.528   5.778 -0.1304  0.4629 -0.7227
   33MOL   C32317027   7.515   4.534   6.127  0.5055  0.0040 -0.2422
   33MOL   C32417028   7.656   4.536   6.134 -0.3254  0.6864 -0.1198
   33MOL   C32517029   7.719   4.557   6.261  0.1171  0.1448  0.2619
   33MOL   C32617030   7.634   4.551   6.378 -0.0056  0.6719  0.2129
   33MOL   C32717031   7.496   4.538   6.372 -0.5061  0.1254  0.3561
   33MOL   C32817032   7.433   4.531   6.246  1.1423  0.1707  0.7540
   33MOL   H32917033   7.902   4.355   6.140  1.7486 -4.0261  1.0416
   33MOL   H33017034   7.968   4.313   5.980 -0.8900  1.3300 -1.6373
   33MOL   H33117035   7.850   4.463   5.873 -2.1176  0.0951 -0.2125
   33MOL   H33217036   7.262   4.516   5.954 -0.4993  1.0272  0.9014
   33MOL   H33317037   7.265   4.563   5.706 -0.1933 -3.7112 -1.7333
   33MOL   H33417038   7.490   4.579   5.600  3.4599 -0.8572  0.3711
   33MOL   H33517039   7.699   4.550   5.727  0.2832 -1.0452 -0.6581
   33MOL   H33617040   7.824   4.577   6.271 -0.0177  0.7803  0.4162
   33MOL   H33717041   7.689   4.557   6.471  0.5536 -1.1840  0.0171
   33MOL   H33817042   7.436   4.523   6.461  0.0111  0.8618  0.8324
   33MOL   H33917043   7.327   4.519   6.231  0.8365  3.5822 -0.3054
   33MOL   C34017044   7.947   4.579   6.011  0.3550  0.2402 -0.5916
   33MOL   C34117045   7.901   4.723   6.032 -0.0353  0.7139 -0.4050
   33MOL   N34217046   8.006   4.809   6.094  0.1343  0.2289  0.7252
   33MOL   C34317047   7.986   4.871   6.225 -0.0921 -0.2126 -0.2139
   33MOL   C34417048   8.102   4.943   6.256 -0.4493 -0.0926 -1.2367
   33MOL   C34517049   8.109   5.012   6.380  1.1387 -0.0884 -0.3605
   33MOL   C34617050   8.001   5.007   6.473 -0.4403 -0.3668 -0.8251
   33MOL   C34717051   7.886   4.938   6.443 -0.1685  0.5149  0.5979
   33MOL   C34817052   7.875   4.868   6.319  0.3349  0.1268 -0.1122
   33MOL   C34917053   8.195   4.929   6.144  1.0550  0.5921 -0.2734
   33MOL   C35017054   8.132   4.841   6.052  0.3915 -0.0496 -0.4636
   33MOL   C35117055   8.200   4.801   5.933 -0.5681 -0.2703 -0.4242
   33MOL   C35217056   0.099   4.853   5.907  0.0711 -0.3954 -0.1002
   33MOL   C35317057   0.174   4.920   6.007  0.4396 -0.1162  0.1534
   33MOL   C35417058   0.102   4.970   6.121  0.0521  0.4266  0.6935
   33MOL   H35517059   8.000   4.546   6.101 -0.5068 -0.5576 -0.3736
   33MOL   H35617060   8.023   4.578   5.933  1.7007 -1.3499  0.6792
   33MOL   H35717061   7.812   4.734   6.095 -2.4366  0.4512 -3.5895
   33MOL   H35817062   8.191   5.076   6.409  0.8931  0.0837 -0.0280
   33MOL   H35917063   8.006   5.066   6.564  0.7040 -0.8298 -0.5774
   33MOL   H36017064   7.801   4.925   6.508  1.6585 -3.1545  2.3734
   33MOL   H36117065   7.787   4.813   6.290  0.4068  1.0790 -2.2285
   33MOL   H36217066   8.151   4.741   5.857  1.6187 -1.9215 -0.5748
   33MOL   H36317067   0.145   4.829   5.812  1.3032 -0.5015  0.5101
   33MOL   H36417068   0.275   4.951   5.983  1.2865 -3.6629 -1.0115
   33MOL   H36517069   0.147   5.027   6.202  1.2070  0.3651  0.1180
   33MOL   C36617070   7.851   4.783   5.893 -0.2252  0.2205  0.2113
   33MOL   C36717071   7.861   4.933   5.877  0.9484 -0.1207 -0.1747
   33MOL   N36817072   7.842   4.969   5.733  0.3220 -0.2589  0.2099
   33MOL   C36917073   7.930   5.052   5.658 -0.0446 -0.6169 -0.4168
   33MOL   C37017074   7.863   5.103   5.545  0.3332 -0.3674 -0.2434
   33MOL   C37117075   7.930   5.194   5.460 -0.0642  0.4847  0.1781
   33MOL   C37217076   8.068   5.219   5.476  0.4162 -1.0070 -0.4084
   33MOL   C37317077   8.136   5.173   5.592  0.2935 -0.0586 -0.7394
   33MOL   C37417078   8.063   5.086   5.683 -0.1846  0.1792  0.0417
   33MOL   C37517079   7.732   5.046   5.547  0.1175  0.4427 -0.2477
   33MOL   C37617080   7.719   4.973   5.664  0.2417 -0.3469  0.4964
   33MOL   C37717081   7.597   4.900   5.688  0.2388  0.6084 -0.1127
   33MOL   C37817082   7.495   4.907   5.596 -0.0791 -0.6153 -0.2676
   33MOL   C37917083   7.501   4.997   5.487 -0.0609  0.0705  0.2163
   33MOL   C38017084   7.621   5.061   5.468  0.0913  0.0312 -0.0683
   33MOL   H38117085   7.902   4.741   5.807  2.0579  1.6271  0.8207
   33MOL   H38217086   7.751   4.740   5.882  0.4581 -1.3259 -0.0640
   33MOL   H38317087   7.962   4.963   5.905  1.3119  0.1863 -1.7639
   33MOL   H38417088   7.873   5.232   5.376  0.8419  0.4685 -0.4455
   33MOL   H38517089   8.121   5.281   5.405  0.7133  0.3438  0.9746
   33MOL   H38617090   0.011   5.196   5.618  0.3655 -1.2954  0.0868
   33MOL   H38717091   8.107   5.048   5.774  1.2543  1.1613 -0.2224
   33MOL   H38817092   7.580   4.833   5.771  0.6732  0.0899 -0.4362
   33MOL   H38917093   7.404   4.851   5.609  0.7507 -2.2262 -1.2374
   33MOL   H39017094   7.425   4.999   5.411  1.2349 -0.2848 -1.1288
   33MOL   H39117095   7.629   5.126   5.382  2.2752  0.3798  0.3838
   33MOL   C39217096   7.760   5.002   5.966  0.2567  0.4483  1.0468
   33MOL   C39317097   7.772   5.158   5.952  0.2510  0.4946  0.0626
   33MOL   N39417098   7.652   5.230   5.993  0.0198  0.3410 -0.2113
   33MOL   C39517099   7.574   5.311   5.909  0.5144  0.1908 -0.1261
   33MOL   C39617100   7.475   5.377   5.988  0.0692  0.0871  0.8691
   33MOL   C39717101   7.391   5.467   5.924  0.3468  0.2328 -0.1496
   33MOL   C39817102   7.399   5.497   5.786 -0.3288  0.0755  0.6419
   33MOL   C39917103   7.493   5.428   5.705 -0.2412 -0.2474  0.1296
   33MOL   C40017104   7.578   5.330   5.768  0.4184 -0.4032 -0.3690
   33MOL   C40117105   7.489   5.328   6.125  0.3035 -0.2733  0.3709
   33MOL   C40217106   7.602   5.246   6.122 -0.5824  0.1920 -0.4718
   33MOL   C40317107   7.651   5.182   6.238 -0.1388  0.3893 -0.0639
   33MOL   C40417108   7.589   5.202   6.361  0.2302  0.1543 -0.5007
   33MOL   C40517109   7.468   5.280   6.367 -0.1983 -0.0360  1.1085
   33MOL   C40617110   7.424   5.349   6.252 -0.5968 -0.4140 -0.4385
   33MOL   H40717111   7.665   4.953   5.945  0.7214  1.0148 -2.7823
   33MOL   H40817112   7.779   4.981   6.071 -1.0806 -0.9620  1.0239
   33MOL   H40917113   7.778   5.174   5.844  0.9542 -0.2170 -0.0051
   33MOL   H41017114   7.315   5.514   5.984  0.7906  2.0972 -1.0089
   33MOL   H41117115   7.335   5.569   5.737 -0.5031 -0.0351  0.7065
   33MOL   H41217116   7.511   5.444   5.600  1.3430 -1.9270  0.1188
   33MOL   H41317117   7.660   5.291   5.709  1.3404  2.5062 -1.0813
   33MOL   H41417118   7.741   5.123   6.241 -0.4326  0.0065  1.5500
   33MOL   H41517119   7.622   5.155   6.453  2.8244  2.5277 -0.1413
   33MOL   H41617120   7.414   5.286   6.461  2.2489  0.6793  2.5187
   33MOL   H41717121   7.338   5.413   6.256 -0.7347 -0.6840  1.2990
   33MOL   C41817122   7.905   5.209   6.012  0.0834 -0.5113  0.1648
   33MOL   C41917123   7.926   5.361   6.019 -0.0182 -0.0464  0.0802
   33MOL   N42017124   8.042   5.384   6.105 -0.0513 -0.0423 -0.0724
   33MOL   C42117125   8.035   5.418   6.240  0.0247 -0.6239  0.6447
   33MOL   C42217126   8.171   5.413   6.292  0.5740 -0.3966  0.1068
   33MOL   C42317127   8.193   5.457   6.420 -0.8477 -0.0105 -0.3206
   33MOL   C42417128   8.086   5.480   6.510 -0.1322  0.0463 -0.0491
   33MOL   C42517129   7.955   5.482   6.462 -0.0526  0.2620  0.3316
   33MOL   C42617130   7.931   5.453   6.325 -0.1592 -0.7238  0.0000
   33MOL   C42717131   0.029   5.368   6.186 -0.3396 -0.4543  0.7314
   33MOL   C42817132   8.172   5.347   6.072 -0.1159 -0.7999  0.1792
   33MOL   C42917133   8.223   5.297   5.949  0.0772  0.2880 -0.2100
   33MOL   C43017134   0.133   5.258   5.940  0.6937 -0.2889  0.4628
   33MOL   C43117135   0.216   5.273   6.053  0.2131 -0.1753  0.0616
   33MOL   C43217136   0.163   5.330   6.170  0.5451  0.3391  0.4998
   33MOL   H43317137   7.920   5.173   6.113 -0.9377  0.3708  0.6338
   33MOL   H43417138   7.991   5.171   5.956 -0.7415  0.1387 -1.5748
   33MOL   H43517139   7.842   5.402   6.075 -0.6038 -1.9459  0.6675
   33MOL   H43617140   0.063   5.443   6.463 -0.2323  1.1763 -1.2934
   33MOL   H43717141   8.115   5.496   6.613  3.1087 -4.3253 -0.1538
   33MOL   H43817142   7.866   5.498   6.522 -0.6836 -1.2289 -0.1685
   33MOL   H43917143   7.830   5.447   6.286 -1.1952  3.1411  1.8869
   33MOL   H44017144   8.160   5.278   5.864  0.5457  0.4264 -0.5841
   33MOL   H44117145   0.168   5.216   5.847 -0.3360 -2.3302  0.9554
   33MOL   H44217146   0.322   5.253   6.051  0.0730 -1.3631  2.6411
   33MOL   H44317147   0.233   5.351   6.250 -0.5997  0.8939  1.3616
   33MOL   C44417148   7.933   5.424   5.875  0.3135 -0.3939  0.1938
   33MOL   C44517149   8.006   5.556   5.856  0.0266  0.2153  0.6543
   33MOL   N44617150   8.015   5.594   5.714 -0.1531  0.2334 -0.2053
   33MOL   C44717151   8.136   5.600   5.636 -0.2710 -0.0996  0.2410
   33MOL   C44817152   8.107   5.640   5.504 -0.0729  0.4543  0.3231
   33MOL   C44917153   8.211   5.665   5.417  0.4496 -0.5366 -0.2850
   33MOL   C45017154   0.119   5.634   5.448 -0.5628 -0.5065 -0.0001
   33MOL   C45117155   0.148   5.596   5.580 -0.6030 -0.1603 -0.3474
   33MOL   C45217156   0.043   5.573   5.668 -0.0996  0.0844  0.0809
   33MOL   C45317157   7.964   5.656   5.502 -0.6631  0.3505 -0.5285
   33MOL   C45417158   7.915   5.633   5.630  0.2204  0.1553  0.1640
   33MOL   C45517159   7.773   5.647   5.658  0.6614  0.5095  0.0572
   33MOL   C45617160   7.681   5.685   5.559 -0.2143 -0.0741  0.0768
   33MOL   C45717161   7.734   5.710   5.427  0.0242  0.1851 -0.5970
   33MOL   C45817162   7.874   5.702   5.400 -0.3329  0.8673  0.2261
   33MOL   H45917163   7.970   5.347   5.807  0.1689  1.4465 -2.0315
   33MOL   H46017164   7.829   5.425   5.841  0.5655 -1.1879 -0.6333
   33MOL   H46117165   8.107   5.532   5.889  0.0879  0.2879  0.5224
   33MOL   H46217166   8.184   5.701   5.318  1.9619 -1.8744 -1.2048
   33MOL   H46317167   0.197   5.661   5.379  0.1555  0.1869  1.0692
   33MOL   H46417168   0.253   5.582   5.602  0.0347  2.6741 -1.3931
   33MOL   H46517169   0.058   5.534   5.767 -0.6895  0.4192  0.3079
   33MOL   H46617170   7.743   5.640   5.761 -2.3763 -0.9353 -0.8528
   33MOL   H46717171   7.577   5.699   5.583 -1.1746 -1.6633 -2.8333
   33MOL   H46817172   7.680   5.754   5.345  1.2172 -3.0050 -3.1627
   33MOL   H46917173   7.919   5.732   5.306  0.7174  0.1404  0.4880
   33MOL   C47017174   7.961   5.673   5.949 -0.0113 -0.5704 -0.0632
   33MOL   C47117175   8.070   5.731   6.048  0.1051  0.6833 -0.0004
   33MOL   N47217176   8.178   5.781   5.970  0.1198  0.2889 -0.0820
   33MOL   C47317177   0.084   5.743   5.976  0.6446  0.0952 -0.2523
   33MOL   C47417178   0.161   5.806   5.880 -0.1714 -0.2675  0.0563
   33MOL   C47517179   0.295   5.779   5.867  0.6081  0.2099  0.3861
   33MOL   C47617180   0.355   5.683   5.948  0.5437 -0.1558 -0.0153
   33MOL   C47717181   0.278   5.618   6.052 -0.8209 -0.7567  0.0324
   33MOL   C47817182   0.143   5.650   6.059  0.5089  0.2856  0.7444
   33MOL   C47917183   0.077   5.900   5.825 -0.5227 -0.4898  0.2643
   33MOL   C48017184   8.174   5.888   5.879 -0.1941  0.2796  0.2151
   33MOL   C48117185   8.071   5.980   5.849  0.5332  1.1062  0.1940
   33MOL   C48217186   8.096   6.078   5.752 -0.1227 -0.0025  0.2026
   33MOL   C48317187   8.226   6.093   5.692 -0.4870 -0.5083 -0.0129
   33MOL   C48417188   0.096   6.006   5.734 -0.1998 -0.7615 -0.1889
   33MOL   H48517189   7.913   5.752   5.892 -0.6244  0.8034  2.3227
   33MOL   H48617190   7.879   5.631   6.008 -1.0696  1.9716  0.3021
   33MOL   H48717191   8.104   5.640   6.098  1.0832  1.4679  0.7816
   33MOL   H48817192   0.344   5.838   5.791 -2.3543 -0.5639 -2.2347
   33MOL   H48917193   0.462   5.671   5.935  0.3580 -1.5411 -0.2653
   33MOL   H49017194   0.337   5.559   6.120  0.6484 -0.1988 -0.7253
   33MOL   H49117195   0.074   5.599   6.125  0.0468 -1.2762 -0.9036
   33MOL   H49217196   7.974   5.969   5.894  0.7596 -0.1241  0.4047
   33MOL   H49317197   8.011   6.140   5.727  1.5632  1.2048 -2.8717
   33MOL   H49417198   0.018   6.175   5.624  2.1941 -1.7385 -0.7710
   33MOL   H49517199   0.187   6.006   5.676 -0.7821 -2.9165 -1.1401
   33MOL   C49617200   8.022   5.832   6.151 -0.5328  0.2749  0.2944
   33MOL   C49717201   8.104   5.841   6.286 -0.1319  0.1023  0.2785
   33MOL   N49817202   8.076   5.967   6.347 -0.0602 -0.0896  0.3144
   33MOL   C49917203   8.166   6.072   6.369  0.4846  0.1190  0.6039
   33MOL   C50017204   8.092   6.170   6.440 -0.1270  0.1426 -0.2628
   33MOL   C50117205   8.160   6.287   6.482  0.4859 -0.0820  0.2278
   33MOL   C50217206   0.068   6.309   6.462  0.1868  0.1511  0.1133
   33MOL   C50317207   0.130   6.211   6.381  0.0226 -0.3649  0.0156
   33MOL   C50417208   0.070   6.090   6.340  0.5948 -0.0864 -1.0692
   33MOL   C50517209   7.964   6.120   6.464  0.0127  0.2342  0.2560
   33MOL   C50617210   7.954   5.995   6.404  0.6083  0.0066  0.4642
   33MOL   C50717211   7.838   5.919   6.416 -0.7051  0.5060 -0.4616
   33MOL   C50817212   7.723   5.968   6.480 -0.4752  0.1631  0.6753
   33MOL   C50917213   7.730   6.095   6.540 -0.2088 -0.1683 -0.4366
   33MOL   C51017214   7.849   6.173   6.523 -0.0012  0.9210  0.5484
   33MOL   H51117215   8.019   5.932   6.107  0.7585 -0.1855 -0.8975
   33MOL   H51217216   7.919   5.804   6.174 -0.8107  1.7383  0.8705
   33MOL   H51317217   8.210   5.838   6.261  0.0821 -1.1655  1.2522
   33MOL   H51417218   8.103   6.364   6.532 -0.6686 -0.2916 -0.7528
   33MOL   H51517219   0.100   6.408   6.492  1.2195  0.4394 -1.8733
   33MOL   H51617220   0.229   6.235   6.345  0.0958 -0.2960  0.2584
   33MOL   H51717221   0.116   6.015   6.278 -0.5068 -1.6797  0.0092
   33MOL   H51817222   7.825   5.825   6.364  0.9648 -0.2109  0.3337
   33MOL   H51917223   7.626   5.922   6.477 -0.5664  0.4648 -1.4235
   33MOL   H52017224   7.644   6.148   6.580  0.5207  2.3125 -2.0075
   33MOL   H52117225   7.857   6.270   6.569 -1.0000  0.1924  2.3186
   33MOL   H52217226   8.100   5.756   6.355  0.1121 -0.8438 -0.8534
   34MOL     C117227   1.393   2.755   3.253  0.3348 -0.1745 -0.7891
   34MOL     C217228   1.401   2.686   3.390 -0.4706  0.1532  0.4125
   34MOL     N317229   1.526   2.699   3.458  0.7180 -0.1547 -0.3134
   34MOL     C417230   1.616   2.592   3.479  0.0608 -0.2938  0.2236
   34MOL     C517231   1.725   2.634   3.559  0.2397 -0.3987  0.4705
   34MOL     C617232   1.833   2.547   3.596  0.2880  0.7155  0.1185
   34MOL     C717233   1.833   2.415   3.540 -0.4213  0.4371 -0.3816
   34MOL     C817234   1.724   2.374   3.466 -0.6477 -0.2657 -0.2394
   34MOL     C917235   1.616   2.459   3.433  0.7266  1.0470  0.3273
   34MOL    C1017236   1.706   2.775   3.581  0.0361 -0.0755  0.3412
   34MOL    C1117237   1.582   2.812   3.520  0.0798 -0.2826 -0.8756
   34MOL    C1217238   1.540   2.949   3.520  0.6742  0.8117 -0.2431
   34MOL    C1317239   1.611   3.038   3.603  0.8145  0.9783  0.2137
   34MOL    C1417240   1.727   2.997   3.665 -0.2432 -0.2177  0.0771
   34MOL    C1517241   1.774   2.868   3.654  0.3292  0.0998 -0.0569
   34MOL    H1617242   1.490   2.735   3.207  2.1109 -3.0131  3.8482
   34MOL    H1717243   1.380   2.862   3.266 -0.0692 -0.2207 -0.7967
   34MOL    H1817244   1.384   2.582   3.364 -0.8358 -0.0882  1.5755
   34MOL    H1917245   1.919   2.581   3.651 -0.1781 -0.3892  1.5564
   34MOL    H2017246   1.905   2.338   3.560  0.7701  1.4221 -0.8449
   34MOL    H2117247   1.717   2.271   3.434  0.1877 -0.9566  1.7063
   34MOL    H2217248   1.531   2.423   3.376  1.2580 -2.1147  1.4366
   34MOL    H2317249   1.448   2.970   3.466  0.9390  1.5142 -0.4245
   34MOL    H2417250   1.580   3.141   3.615 -1.0695  0.4949 -0.3733
   34MOL    H2517251   1.792   3.066   3.717 -0.9132  0.1776  0.3986
   34MOL    H2617252   1.867   2.845   3.704 -0.8788 -3.3968  0.6810
   34MOL    H2717253   1.309   2.720   3.192 -1.2745  1.3120  0.5208
   34MOL    C2817254   1.284   2.728   3.485 -0.2410  0.1699 -0.1032
   34MOL    C2917255   1.144   2.663   3.460 -0.0871  0.6729 -0.2060
   34MOL    N3017256   1.151   2.517   3.424 -0.8255 -0.3680 -0.5600
   34MOL    C3117257   1.115   2.457   3.304  0.2796 -0.3714  0.4093
   34MOL    C3217258   1.139   2.315   3.306  0.0375 -0.7397  0.4086
   34MOL    C3317259   1.093   2.239   3.192 -0.1738 -0.7462 -0.3765
   34MOL    C3417260   1.046   2.297   3.078  0.2063  0.4926 -0.5822
   34MOL    C3517261   1.018   2.434   3.074  0.9933 -0.2734 -0.4242
   34MOL    C3617262   1.055   2.516   3.186  0.1492 -0.1134 -0.3975
   34MOL    C3717263   1.205   2.284   3.429  0.2487  0.2421 -0.2519
   34MOL    C3817264   1.204   2.408   3.503 -0.1427  0.1950 -0.3025
   34MOL    C3917265   1.267   2.415   3.625 -0.3469  0.3366  0.4942
   34MOL    C4017266   1.313   2.304   3.693 -0.2474 -0.2065 -0.5729
   34MOL    C4117267   1.308   2.184   3.625 -0.3055 -0.3223  0.6753
   34MOL    C4217268   1.247   2.168   3.499  0.4698 -0.5020  0.1409
   34MOL    H4317269   1.315   2.724   3.590  3.2414  0.4032 -1.0708
   34MOL    H4417270   1.271   2.836   3.480  1.1194  0.3215 -0.6962
   34MOL    H4517271   1.102   2.714   3.373  0.8973  1.3233 -0.3018
   34MOL    H4617272   1.091   2.132   3.185 -4.2274 -0.7188 -0.6775
   34MOL    H4717273   1.047   2.232   2.991  1.0661 -0.8362  0.3932
   34MOL    H4817274   0.981   2.474   2.981  0.1494  3.1286  1.3130
   34MOL    H4917275   1.032   2.621   3.186  0.7907  0.0338  0.0695
   34MOL    H5017276   1.278   2.510   3.676 -0.9176  0.3952  0.5149
   34MOL    H5117277   1.357   2.326   3.789  1.3314  0.7455 -1.4893
   34MOL    H5217278   1.348   2.102   3.683 -0.3047 -0.4995  0.4253
   34MOL    H5317279   1.238   2.076   3.444 -1.7858 -0.3494  0.2162
   34MOL    C5417280   1.050   2.686   3.581  0.1039 -0.1086 -0.1986
   34MOL    C5517281   1.035   2.842   3.629  0.1987 -0.4261  0.6648
   34MOL    N5617282   1.017   2.933   3.518 -0.0088 -0.0053 -0.3859
   34MOL    C5717283   1.098   3.045   3.502 -0.4361  0.4587 -0.0320
   34MOL    C5817284   1.057   3.121   3.392  0.8397  0.9107  0.6063
   34MOL    C5917285   1.120   3.236   3.353 -0.1328 -0.1732  0.2520
   34MOL    C6017286   1.227   3.285   3.427 -1.4206 -0.0896  0.1643
   34MOL    C6117287   1.259   3.226   3.547 -0.9037 -0.2933  0.6175
   34MOL    C6217288   1.200   3.102   3.578  0.0443  0.3821  0.4883
   34MOL    C6317289   0.948   3.050   3.331 -0.0422 -0.2983  0.4116
   34MOL    C6417290   0.921   2.940   3.416 -0.1626  0.4666 -0.8875
   34MOL    C6517291   0.813   2.855   3.395 -0.5547 -0.1149 -0.6126
   34MOL    C6617292   0.735   2.875   3.277 -0.5205  0.2920 -0.2985
   34MOL    C6717293   0.758   2.984   3.193  0.0604  0.4742  0.3491
   34MOL    C6817294   0.864   3.074   3.217 -0.1277 -0.9981  0.1989
   34MOL    H6917295   0.953   2.643   3.558 -0.3784  0.1280  1.3390
   34MOL    H7017296   1.087   2.626   3.664 -2.4638 -1.7462 -0.1959
   34MOL    H7117297   1.132   2.879   3.663  0.8931 -1.8319  0.2642
   34MOL    H7217298   1.095   3.285   3.261  0.5920 -1.7577 -0.8050
   34MOL    H7317299   1.285   3.371   3.394 -2.5014  1.2997  1.8071
   34MOL    H7417300   1.350   3.255   3.597 -0.1125  1.3539 -1.7145
   34MOL    H7517301   1.239   3.054   3.667  0.8029  1.0784  0.5292
   34MOL    H7617302   0.794   2.771   3.460 -0.3542  1.6570  1.7798
   34MOL    H7717303   0.648   2.816   3.250  0.5252 -0.8728 -1.2019
   34MOL    H7817304   0.701   2.992   3.102 -0.0541 -0.3571  0.3394
   34MOL    H7917305   0.891   3.163   3.161 -1.4217 -0.7033  0.0157
   34MOL    C8017306   0.937   2.865   3.759  0.0527  0.8120  0.4081
   34MOL    C8117307   1.001   2.819   3.897  1.0089  0.8636  0.1011
   34MOL    N8217308   1.133   2.870   3.919 -0.3577 -0.5848  0.8691
   34MOL    C8317309   1.254   2.796   3.930 -0.2387  1.0784 -0.0094
   34MOL    C8417310   1.368   2.883   3.940 -0.0304  0.7986 -0.1201
   34MOL    C8517311   1.496   2.822   3.932 -0.6240 -0.2049 -0.6255
   34MOL    C8617312   1.516   2.684   3.933 -0.4144  0.0137  0.0637
   34MOL    C8717313   1.402   2.597   3.946  0.2193  0.3275  0.7617
   34MOL    C8817314   1.270   2.656   3.939 -0.1068 -0.2171 -0.0818
   34MOL    C8917315   1.318   3.011   3.945 -0.1944  0.2545 -1.0019
   34MOL    C9017316   1.176   3.002   3.930  0.5589 -0.7572 -0.0131
   34MOL    C9117317   1.099   3.113   3.935  0.4028  0.7844  0.0713
   34MOL    C9217318   1.159   3.240   3.959  0.1175 -0.5973 -0.3393
   34MOL    C9317319   1.300   3.256   3.970 -0.8076  1.0989 -0.3824
   34MOL    C9417320   1.382   3.138   3.962 -1.0849  0.0320  0.0123
   34MOL    H9517321   0.914   2.971   3.769 -2.0227  0.3075  1.2476
   34MOL    H9617322   0.849   2.805   3.736  0.3695  1.1705 -1.8558
   34MOL    H9717323   1.016   2.713   3.879 -0.3530  0.9201 -1.5938
   34MOL    H9817324   1.573   2.895   3.911 -0.2701 -0.8483 -1.5866
   34MOL    H9917325   1.619   2.652   3.930 -0.1849  0.7691 -0.1252
   34MOL   H10017326   1.407   2.489   3.949  2.8666  0.4046  0.4287
   34MOL   H10117327   1.180   2.596   3.935  0.5262 -1.1896  0.0813
   34MOL   H10217328   0.995   3.107   3.910  1.2052 -0.4022 -3.2059
   34MOL   H10317329   1.104   3.333   3.966  1.7787  0.4392 -0.8948
   34MOL   H10417330   1.355   3.348   3.970 -0.2775  0.7883 -1.5789
   34MOL   H10517331   1.489   3.144   3.968 -1.1659  0.6698  1.0691
   34MOL   C10617332   0.904   2.822   4.018  0.6479  0.3112 -0.5796
   34MOL   C10717333   0.824   2.699   4.025 -0.3096 -0.2190  0.0650
   34MOL   N10817334   0.901   2.581   4.063 -0.0381 -0.8121  0.5201
   34MOL   C10917335   0.936   2.473   3.975 -0.3619  0.0583  1.0054
   34MOL   C11017336   0.989   2.364   4.051 -0.6656  0.1291 -0.0736
   34MOL   C11117337   1.018   2.247   3.985 -0.4226 -0.0914 -0.0611
   34MOL   C11217338   1.024   2.241   3.852  0.0570  0.2788 -0.6065
   34MOL   C11317339   0.973   2.346   3.774 -0.1461 -0.4535  0.0421
   34MOL   C11417340   0.922   2.461   3.836 -0.3347 -0.3730  0.0786
   34MOL   C11517341   1.001   2.415   4.185  0.1017  0.1266  0.6413
   34MOL   C11617342   0.952   2.547   4.186 -0.1055  0.9241 -0.1521
   34MOL   C11717343   0.968   2.627   4.305  0.2952  0.2693 -0.0950
   34MOL   C11817344   1.015   2.573   4.421  0.2472  0.2423 -0.0907
   34MOL   C11917345   1.055   2.439   4.426  0.1654 -0.0402 -0.9468
   34MOL   C12017346   1.056   2.361   4.304  0.6694  0.3665  0.6283
   34MOL   H12117347   0.956   2.849   4.110  0.4100 -1.2166  0.0142
   34MOL   H12217348   0.833   2.901   3.994  1.1986  0.6492 -1.0962
   34MOL   H12317349   0.786   2.685   3.924 -0.7050  1.0251  0.0308
   34MOL   H12417350   1.060   2.162   4.038 -2.1646  0.3462  2.1242
   34MOL   H12517351   1.076   2.160   3.802  1.4808  3.1265 -3.8846
   34MOL   H12617352   0.981   2.341   3.666  2.2546  1.5541  0.0679
   34MOL   H12717353   0.868   2.542   3.788 -2.0594 -1.5710 -0.0521
   34MOL   H12817354   0.942   2.732   4.304 -1.5741 -0.1630  1.2274
   34MOL   H12917355   1.029   2.636   4.508 -1.4652  0.0833  0.3219
   34MOL   H13017356   1.080   2.383   4.515 -4.3054 -0.0862  0.3579
   34MOL   H13117357   1.084   2.257   4.301  0.4881  0.3447 -0.6192
   34MOL   C13217358   0.707   2.694   4.123 -0.6999  0.3815  0.2978
   34MOL   C13317359   0.589   2.791   4.095 -0.0899 -0.2040  0.2930
   34MOL   N13417360   0.566   2.831   3.954  0.2437 -0.3695  0.1786
   34MOL   C13517361   0.541   2.964   3.913 -0.1822 -0.7859  0.0294
   34MOL   C13617362   0.519   2.960   3.773  0.3809  0.1920 -0.7184
   34MOL   C13717363   0.489   3.081   3.711  0.1315 -0.5005 -0.6516
   34MOL   C13817364   0.486   3.208   3.783  0.4591 -0.2722 -0.4866
   34MOL   C13917365   0.526   3.210   3.917 -0.0026  0.1151 -0.3426
   34MOL   C14017366   0.541   3.089   3.983  0.5239  0.0857  0.1636
   34MOL   C14117367   0.525   2.824   3.726 -0.2522  0.4439  0.5060
   34MOL   C14217368   0.557   2.746   3.840 -0.0102  0.1621 -0.3905
   34MOL   C14317369   0.567   2.606   3.819 -0.3630  0.4837 -0.3771
   34MOL   C14417370   0.567   2.548   3.691  1.0359  0.5000  1.1048
   34MOL   C14517371   0.532   2.634   3.579 -0.1684 -0.7091  0.4362
   34MOL   C14617372   0.505   2.765   3.597  0.4537  0.3078  0.3698
   34MOL   H14717373   0.670   2.592   4.125  1.2723 -0.3604  0.9059
   34MOL   H14817374   0.738   2.707   4.227  1.5978 -0.5869 -0.2328
   34MOL   H14917375   0.617   2.877   4.156 -1.7448 -0.5407  1.5707
   34MOL   H15017376   0.466   3.076   3.606 -0.7772  0.4548 -0.5086
   34MOL   H15117377   0.468   3.300   3.730  0.8716 -0.6227 -1.2504
   34MOL   H15217378   0.520   3.303   3.971 -2.7813 -0.4961  0.4768
   34MOL   H15317379   0.555   3.093   4.090 -2.3068 -0.7700  0.6201
   34MOL   H15417380   0.587   2.536   3.899 -1.2503 -2.7606 -2.8716
   34MOL   H15517381   0.591   2.444   3.675  0.7351  0.7792 -1.4028
   34MOL   H15617382   0.525   2.597   3.478  2.5653 -2.3929  0.8274
   34MOL   H15717383   0.485   2.822   3.508 -2.7106 -0.6075  0.4372
   34MOL   C15817384   0.459   2.737   4.148  0.1630  0.0950  0.2002
   34MOL   C15917385   0.441   2.736   4.305  0.1419 -0.0742  0.2200
   34MOL   N16017386   0.473   2.873   4.359  1.3155 -0.2634 -0.1167
   34MOL   C16117387   0.563   2.910   4.457  0.2636 -0.5094  0.9163
   34MOL   C16217388   0.547   3.051   4.485  0.4008  0.0431  0.0550
   34MOL   C16317389   0.626   3.111   4.582  0.1929 -0.4070 -0.3508
   34MOL   C16417390   0.726   3.036   4.647  0.1683 -0.2802  0.0661
   34MOL   C16517391   0.735   2.897   4.618 -0.4636  0.6665  0.8006
   34MOL   C16617392   0.656   2.832   4.526  0.0676  0.3806 -0.1327
   34MOL   C16717393   0.442   3.099   4.404  0.2491 -0.7007 -0.1478
   34MOL   C16817394   0.397   2.984   4.329  0.2392  0.2962 -0.4812
   34MOL   C16917395   0.291   3.006   4.240 -0.0179 -0.0333  0.5949
   34MOL   C17017396   0.226   3.134   4.224 -0.7478  0.4051 -0.3624
   34MOL   C17117397   0.278   3.249   4.296  0.3262  0.1430  0.3188
   34MOL   C17217398   0.379   3.226   4.387 -0.1660  1.0823  0.3807
   34MOL   H17317399   0.372   2.783   4.101 -0.0303  1.6904  2.1098
   34MOL   H17417400   0.445   2.632   4.121  0.3033  0.1900 -0.2521
   34MOL   H17517401   0.516   2.662   4.334  0.2407 -0.0755 -0.0371
   34MOL   H17617402   0.620   3.216   4.607 -0.0790 -0.2204 -1.1955
   34MOL   H17717403   0.784   3.084   4.724  1.5222  0.4604 -1.3839
   34MOL   H17817404   0.809   2.846   4.679  0.0284  2.0238  1.3682
   34MOL   H17917405   0.668   2.725   4.517  0.4079  0.3045  1.2042
   34MOL   H18017406   0.252   2.928   4.177  1.0943 -0.3455  0.2867
   34MOL   H18117407   0.140   3.147   4.159 -0.0313  0.8619 -1.2435
   34MOL   H18217408   0.228   3.344   4.283 -0.9861 -0.5977 -0.0474
   34MOL   H18317409   0.414   3.307   4.448  0.3365  0.9202  0.3065
   34MOL   C18417410   0.305   2.688   4.360  0.5821 -0.0770  0.0749
   34MOL   C18517411   0.270   2.539   4.343  0.6179 -0.1886 -0.0582
   34MOL   N18617412   0.387   2.456   4.331  0.1881  0.5225  0.3624
   34MOL   C18717413   0.433   2.393   4.215 -0.0949  0.8192 -0.5872
   34MOL   C18817414   0.562   2.333   4.237 -0.2608 -0.0202  0.4218
   34MOL   C18917415   0.629   2.262   4.129  0.5799  0.3239 -0.3555
   34MOL   C19017416   0.568   2.260   4.003  0.0849 -1.0545 -0.0519
   34MOL   C19117417   0.440   2.314   3.983  1.0322 -0.4785 -0.1108
   34MOL   C19217418   0.375   2.382   4.089 -0.2706 -0.2012 -0.6643
   34MOL   C19317419   0.588   2.359   4.375  0.2064 -0.1907  0.1365
   34MOL   C19417420   0.480   2.438   4.430  0.4279  0.1603  0.0229
   34MOL   C19517421   0.480   2.481   4.567  0.0678 -1.4465 -0.6765
   34MOL   C19617422   0.580   2.435   4.650 -0.3154  0.9379 -0.5380
   34MOL   C19717423   0.689   2.359   4.604 -0.5134  0.1631  0.4210
   34MOL   C19817424   0.694   2.329   4.463 -0.1042  0.9934 -0.2152
   34MOL   H19917425   0.307   2.718   4.465  0.8872 -0.3917  0.1647
   34MOL   H20017426   0.220   2.745   4.323  0.2690  0.4672  1.5815
   34MOL   H20117427   0.220   2.523   4.248 -0.1610  1.5917  0.0300
   34MOL   H20217428   0.721   2.210   4.154  0.2175 -0.1243  0.0504
   34MOL   H20317429   0.624   2.214   3.922 -1.3458 -1.1857 -0.9837
   34MOL   H20417430   0.408   2.304   3.880 -0.7017  0.4045  0.3333
   34MOL   H20517431   0.282   2.432   4.067 -0.6054 -1.1536 -1.4796
   34MOL   H20617432   0.399   2.537   4.613  1.8200  0.5480  0.0442
   34MOL   H20717433   0.578   2.456   4.756 -0.5578 -1.9880  0.0850
   34MOL   H20817434   0.768   2.332   4.672  0.8134  3.0607  0.0887
   34MOL   H20917435   0.779   2.280   4.418 -1.8648 -0.6355 -1.8482
   34MOL   C21017436   0.178   2.493   4.459  0.4703  0.6358 -0.0229
   34MOL   C21117437   0.029   2.526   4.438  0.0122 -0.2881 -0.5322
   34MOL   N21217438   8.216   2.482   4.299 -0.4109 -0.0713  0.2873
   34MOL   C21317439   8.143   2.565   4.215 -0.1213 -0.2694  0.4474
   34MOL   C21417440   8.125   2.503   4.090 -0.0292 -0.8444 -0.4257
   34MOL   C21517441   8.047   2.569   3.990 -0.0747 -0.7602  0.1369
   34MOL   C21617442   7.976   2.687   4.020 -0.4422  1.2371 -0.6520
   34MOL   C21717443   7.991   2.749   4.144  0.1484 -0.0718  0.4925
   34MOL   C21817444   8.078   2.690   4.238  0.1210  0.3923 -0.0778
   34MOL   C21917445   8.178   2.375   4.094 -0.2004  0.2956 -0.1456
   34MOL   C22017446   0.011   2.362   4.226  0.1581 -0.4228 -0.0259
   34MOL   C22117447   0.076   2.238   4.259  0.7802 -0.0004  1.2338
   34MOL   C22217448   0.090   2.132   4.167 -1.3227  0.2164  0.4173
   34MOL   C22317449   0.043   2.154   4.037  0.1589 -0.3303 -0.0570
   34MOL   C22417450   8.189   2.265   4.007 -1.0020  0.4786 -0.1865
   34MOL   H22517451   0.196   2.389   4.486  2.3457  0.8545 -0.3467
   34MOL   H22617452   0.203   2.543   4.552  1.4749 -0.3338  0.2410
   34MOL   H22717453   0.006   2.632   4.441  0.7366 -0.1522  2.2324
   34MOL   H22817454   8.037   2.521   3.893 -1.7184 -0.7549  0.2982
   34MOL   H22917455   7.913   2.735   3.947 -1.4733  1.8090  0.5973
   34MOL   H23017456   7.931   2.836   4.166 -3.3695 -1.9812 -1.0269
   34MOL   H23117457   8.092   2.737   4.334  0.5870  0.5797 -0.2378
   34MOL   H23217458   0.108   2.224   4.361 -0.7374  1.1695  1.8721
   34MOL   H23317459   0.135   2.040   4.200 -0.3864  0.5882  0.1816
   34MOL   H23417460   0.070   2.077   3.966 -1.0912  0.0830 -0.9961
   34MOL   H23517461   8.157   2.264   3.903  0.9141  1.2000 -0.8046
   34MOL   C23617462   8.156   2.474   4.535 -0.5566  1.2584 -0.2087
   34MOL   C23717463   8.180   2.505   4.688 -0.0879 -0.0082  0.6536
   34MOL   N23817464   8.172   2.648   4.720  0.0407 -0.5762  0.5372
   34MOL   C23917465   0.045   2.723   4.792 -0.1078  0.3014 -0.2063
   34MOL   C24017466   8.222   2.856   4.806  0.4074  0.0213 -0.4879
   34MOL   C24117467   0.075   2.957   4.861 -0.0694  0.0964  0.5403
   34MOL   C24217468   0.198   2.923   4.921 -0.2693  0.1932  0.6545
   34MOL   C24317469   0.240   2.782   4.921  0.0829 -0.3868 -0.4226
   34MOL   C24417470   0.163   2.683   4.859 -0.5260 -0.0955 -0.3476
   34MOL   C24517471   8.093   2.866   4.749 -0.2963 -0.0272 -0.9052
   34MOL   C24617472   8.062   2.738   4.691  0.2023 -0.3343  0.0784
   34MOL   C24717473   7.941   2.717   4.614  0.1266  0.5147 -0.2379
   34MOL   C24817474   7.860   2.824   4.591 -0.4394 -0.4738 -0.4474
   34MOL   C24917475   7.886   2.949   4.658  0.7514  0.1369 -0.4666
   34MOL   C25017476   8.004   2.972   4.735 -0.0773 -0.4387  0.2632
   34MOL   H25117477   8.056   2.505   4.503 -0.1200 -1.5486 -4.8246
   34MOL   H25217478   8.170   2.366   4.524 -0.2963  1.4416 -1.8147
   34MOL   H25317479   0.046   2.456   4.714 -0.0890 -0.3784 -0.0315
   34MOL   H25417480   0.032   3.056   4.864  1.2731  0.7052 -0.0062
   34MOL   H25517481   0.257   3.001   4.968  2.0438  0.7392 -2.9299
   34MOL   H25617482   0.339   2.767   4.959 -0.5910 -1.1293  1.0929
   34MOL   H25717483   0.202   2.583   4.847 -1.4672 -0.1665 -2.9828
   34MOL   H25817484   7.901   2.625   4.575 -1.2319  1.1917 -0.4987
   34MOL   H25917485   7.762   2.809   4.547 -1.3818 -3.0455  2.3708
   34MOL   H26017486   7.805   3.021   4.654  0.3012 -0.1033  2.8889
   34MOL   H26117487   8.013   3.072   4.775 -2.5285 -0.5621  1.2571
   34MOL   C26217488   8.085   2.423   4.778  0.1890  0.0292 -0.3848
   34MOL   C26317489   8.116   2.276   4.795  0.7336  0.7825  0.1828
   34MOL   N26417490   0.016   2.245   4.858  0.4984 -0.1017 -0.2889
   34MOL   C26517491   0.126   2.185   4.791  0.1923 -0.1979 -0.5195
   34MOL   C26617492   0.230   2.161   4.887 -0.0099  0.7072 -0.1213
   34MOL   C26717493   0.346   2.088   4.838 -0.3618 -1.2936  0.1023
   34MOL   C26817494   0.359   2.049   4.708  0.2239 -0.4494  0.4671
   34MOL   C26917495   0.255   2.079   4.614 -0.2564 -0.4950 -0.4822
   34MOL   C27017496   0.140   2.140   4.654 -0.0653  0.2594 -0.5410
   34MOL   C27117497   0.190   2.217   5.014  0.5874  0.6743 -0.6313
   34MOL   C27217498   0.058   2.274   4.988 -0.5205  0.4201 -0.6265
   34MOL   C27317499   8.226   2.352   5.091 -0.2062  0.5668 -0.7453
   34MOL   C27417500   0.054   2.357   5.221  0.2125  0.1251 -0.0374
   34MOL   C27517501   0.177   2.295   5.248 -0.6813 -0.0064 -0.1230
   34MOL   C27617502   0.239   2.224   5.143  0.0825  0.4048  0.1955
   34MOL   H27717503   8.069   2.472   4.874 -1.3971  1.5731 -1.3862
   34MOL   H27817504   7.985   2.442   4.737  1.0693  1.6812 -1.8568
   34MOL   H27917505   8.123   2.237   4.694 -0.9757 -0.4389  0.5183
   34MOL   H28017506   0.430   2.079   4.906 -1.2976 -0.7857  1.3676
   34MOL   H28117507   0.448   1.996   4.676  0.1449 -0.0091 -0.4962
   34MOL   H28217508   0.261   2.042   4.512 -2.9360  1.5428 -1.4239
   34MOL   H28317509   0.065   2.171   4.583 -0.2093  2.6576  0.6155
   34MOL   H28417510   8.141   2.417   5.075 -0.2747  0.6213 -0.1872
   34MOL   H28517511   0.010   2.410   5.303  2.6754 -0.2354  1.5842
   34MOL   H28617512   0.215   2.280   5.348 -1.2541 -2.0347 -0.1830
   34MOL   H28717513   0.322   2.160   5.169  0.0718  0.2632 -0.1193
   34MOL   C28817514   8.007   2.193   4.862 -1.2064 -0.2706 -0.2042
   34MOL   C28917515   7.868   2.198   4.795  0.2629  0.0162 -0.4221
   34MOL   N29017516   7.881   2.181   4.651 -0.0800  0.3879  0.2391
   34MOL   C29117517   7.828   2.267   4.553 -0.0249 -0.0272 -0.4387
   34MOL   C29217518   7.868   2.219   4.425  0.4454 -0.4582 -0.7682
   34MOL   C29317519   7.842   2.287   4.311 -0.0851 -0.3043  0.3201
   34MOL   C29417520   7.778   2.411   4.321  1.0164  0.0650 -0.0772
   34MOL   C29517521   7.726   2.459   4.451 -0.0206  0.7221  0.4467
   34MOL   C29617522   7.756   2.385   4.566 -0.5295  0.8732 -0.0425
   34MOL   C29717523   7.938   2.093   4.444  0.4460 -0.1039 -0.3931
   34MOL   C29817524   7.951   2.074   4.584 -0.1051  0.1934  0.0350
   34MOL   C29917525   8.014   1.958   4.630  0.6408  0.0450 -0.5001
   34MOL   C30017526   8.076   1.868   4.542  0.0386  0.6913 -0.0805
   34MOL   C30117527   8.049   1.885   4.406  0.3237  0.2553 -0.1683
   34MOL   C30217528   7.981   1.999   4.355  0.3543  0.2912  0.4263
   34MOL   H30317529   8.044   2.094   4.889  2.3242  1.3911  1.3886
   34MOL   H30417530   8.003   2.239   4.961  1.2761  3.5168 -1.7387
   34MOL   H30517531   7.820   2.295   4.810 -2.2675 -1.1103 -0.9990
   34MOL   H30617532   7.868   2.248   4.213  1.2512  2.2440 -0.3923
   34MOL   H30717533   7.761   2.478   4.238  1.3937  0.0575 -0.1621
   34MOL   H30817534   7.668   2.549   4.457 -3.8552 -1.6150  0.3682
   34MOL   H30917535   7.722   2.418   4.663 -0.3598 -1.0447  0.6912
   34MOL   H31017536   8.013   1.945   4.737 -4.1895  1.0506 -0.2858
   34MOL   H31117537   8.125   1.780   4.583  1.4557  0.2391 -2.6508
   34MOL   H31217538   8.102   1.814   4.344 -1.0946 -1.0286  0.0530
   34MOL   H31317539   7.962   2.014   4.250  0.1597 -0.8441  0.3012
   34MOL   C31417540   7.772   2.101   4.862  0.8474  0.0288 -0.9673
   34MOL   C31517541   7.732   2.157   5.006 -0.3074 -0.4002  0.4947
   34MOL   N31617542   7.660   2.286   4.996 -0.2139  0.8004  0.3340
   34MOL   C31717543   7.702   2.412   5.038  0.1769  0.1403  1.0351
   34MOL   C31817544   7.611   2.516   5.006  0.3902 -0.1047 -0.1810
   34MOL   C31917545   7.642   2.647   5.047  0.0926  0.0047 -0.5727
   34MOL   C32017546   7.767   2.687   5.097 -0.1892 -0.8444 -0.0543
   34MOL   C32117547   7.858   2.583   5.125  0.0410 -1.1340 -0.1772
   34MOL   C32217548   7.823   2.443   5.114 -0.1036 -0.4209 -0.1725
   34MOL   C32317549   7.497   2.448   4.947  0.4821  0.1269 -0.0156
   34MOL   C32417550   7.531   2.308   4.941 -0.4829  0.1737 -0.2685
   34MOL   C32517551   7.441   2.216   4.876  0.1415 -0.3599 -0.3187
   34MOL   C32617552   7.319   2.266   4.832 -0.2749 -0.0398 -0.3275
   34MOL   C32717553   7.282   2.402   4.849 -0.2374  0.2926 -0.6135
   34MOL   C32817554   7.372   2.492   4.911 -0.0912  0.0136  0.0981
   34MOL   H32917555   7.679   2.102   4.805  0.1547 -0.1547  0.1362
   34MOL   H33017556   7.796   1.994   4.859 -1.6594 -0.5561 -1.2234
   34MOL   H33117557   7.821   2.181   5.064 -0.3527  0.3179  0.2744
   34MOL   H33217558   7.558   2.715   5.036 -1.5201 -1.5975  1.6538
   34MOL   H33317559   7.785   2.792   5.115 -0.2778 -0.7001 -0.7737
   34MOL   H33417560   7.953   2.609   5.170  0.1142 -0.6117 -0.6197
   34MOL   H33517561   7.893   2.371   5.153 -0.2392 -0.5967 -0.2554
   34MOL   H33617562   7.463   2.114   4.851 -1.3777 -1.4477  2.4968
   34MOL   H33717563   7.245   2.206   4.780  0.9664 -1.2521 -0.7127
   34MOL   H33817564   7.185   2.424   4.807 -0.6236  2.0298  1.1380
   34MOL   H33917565   7.358   2.598   4.924 -0.3819  0.0660 -0.6097
   34MOL   C34017566   7.649   2.063   5.094  0.2226  0.4836 -0.0771
   34MOL   C34117567   7.721   1.937   5.155  0.2611 -0.5796 -0.2332
   34MOL   N34217568   7.858   1.960   5.196  0.0319  0.8581  0.3559
   34MOL   C34317569   7.973   1.917   5.132 -0.2429 -0.2335  0.7433
   34MOL   C34417570   8.083   1.961   5.203 -1.0294  0.2561 -0.5425
   34MOL   C34517571   8.208   1.927   5.144  0.3272 -0.2583  0.1721
   34MOL   C34617572   8.220   1.857   5.019  0.4441  0.2684 -0.5810
   34MOL   C34717573   8.103   1.806   4.957  0.1215  0.0548  0.2533
   34MOL   C34817574   7.983   1.836   5.017 -0.6445 -0.8527 -0.1896
   34MOL   C34917575   8.037   2.026   5.324  0.1449 -0.2194  0.0601
   34MOL   C35017576   7.899   2.035   5.303 -0.9645  0.8839 -0.1980
   34MOL   C35117577   7.823   2.107   5.392  0.3195 -0.0860  0.3179
   34MOL   C35217578   7.882   2.161   5.504 -0.0614 -0.0928 -0.3892
   34MOL   C35317579   8.024   2.157   5.525  0.3618  0.0608  0.3826
   34MOL   C35417580   8.099   2.091   5.433  0.9438 -0.1231  0.4416
   34MOL   H35517581   7.600   2.121   5.172 -0.4225  0.7053 -0.6415
   34MOL   H35617582   7.562   2.032   5.036  0.2215  2.6514 -1.3059
   34MOL   H35717583   7.733   1.866   5.073 -1.2148 -1.4952  0.3201
   34MOL   H35817584   0.073   1.950   5.195 -0.0083 -2.0243  1.5923
   34MOL   H35917585   0.094   1.855   4.981  0.2166  0.6680 -1.2111
   34MOL   H36017586   8.108   1.764   4.858  1.0185  0.0124  0.3186
   34MOL   H36117587   7.893   1.804   4.966  0.4800 -0.5202 -2.4265
   34MOL   H36217588   7.716   2.113   5.382 -0.0090 -3.4332  1.2052
   34MOL   H36317589   7.816   2.227   5.559 -1.7334 -0.9381 -1.3673
   34MOL   H36417590   8.053   2.215   5.611  1.4585  3.7600 -2.3941
   34MOL   H36517591   8.205   2.090   5.452  1.4650  1.4951 -2.1765
   34MOL   C36617592   7.645   1.857   5.261 -0.1270  0.1543  0.2635
   34MOL   C36717593   7.731   1.772   5.367  0.4234 -0.1669  0.1371
   34MOL   N36817594   7.650   1.751   5.494  0.6530  0.5949  0.3877
   34MOL   C36917595   7.690   1.781   5.627 -0.0344  0.3360 -0.3838
   34MOL   C37017596   7.585   1.765   5.715  0.2230 -0.1304 -0.3100
   34MOL   C37117597   7.606   1.790   5.852 -0.3649  0.8197 -0.2447
   34MOL   C37217598   7.739   1.822   5.895  0.0682 -0.6022 -0.4650
   34MOL   C37317599   7.844   1.836   5.806  0.0944 -0.0815  0.3527
   34MOL   C37417600   7.821   1.822   5.671 -0.0436 -0.3994 -0.0098
   34MOL   C37517601   7.478   1.707   5.633 -0.0439  0.2479 -0.4195
   34MOL   C37617602   7.532   1.675   5.506 -0.2239 -0.3642 -0.1164
   34MOL   C37717603   7.455   1.616   5.402  0.1854  0.4210  0.5251
   34MOL   C37817604   7.326   1.581   5.433 -0.0631 -0.2342  0.9895
   34MOL   C37917605   7.274   1.596   5.563 -0.5501 -0.2447  0.0305
   34MOL   C38017606   7.346   1.662   5.662  0.4716  0.5541 -0.5424
   34MOL   H38117607   7.589   1.936   5.311  2.0000  2.3352 -0.7689
   34MOL   H38217608   7.563   1.797   5.220 -0.0083 -0.4786  0.9420
   34MOL   H38317609   7.818   1.829   5.401 -0.0628  0.9322 -0.4049
   34MOL   H38417610   7.534   1.780   5.932 -0.1618 -1.1763 -0.3037
   34MOL   H38517611   7.756   1.838   6.000  3.3378  0.1852 -1.0653
   34MOL   H38617612   7.945   1.865   5.833  0.1794  0.9437 -1.0441
   34MOL   H38717613   7.902   1.855   5.608 -0.7342  0.8857 -0.2356
   34MOL   H38817614   7.497   1.593   5.305 -0.8045 -2.4200  0.7318
   34MOL   H38917615   7.266   1.534   5.356 -0.6546 -0.1376  1.3844
   34MOL   H39017616   7.172   1.574   5.592 -0.5851 -0.1642 -0.0305
   34MOL   H39117617   7.306   1.671   5.762 -0.7478  1.7311 -1.1234
   34MOL   C39217618   7.789   1.639   5.320  0.2038 -0.0270  0.2018
   34MOL   C39317619   7.899   1.587   5.414 -0.3388  0.4409 -0.7576
   34MOL   N39417620   7.916   1.442   5.401  0.1319  0.1184  0.6789
   34MOL   C39517621   7.874   1.354   5.501 -0.1265  0.0707 -0.6910
   34MOL   C39617622   7.891   1.220   5.458  0.5543  0.3389 -0.0314
   34MOL   C39717623   7.869   1.117   5.550  0.4736  0.1618  0.4700
   34MOL   C39817624   7.818   1.147   5.680 -0.4970  0.1027 -0.7271
   34MOL   C39917625   7.787   1.278   5.714  0.3582 -0.1391  0.4194
   34MOL   C40017626   7.823   1.386   5.630  0.0333  0.9609 -0.3582
   34MOL   C40117627   7.948   1.224   5.329 -0.1315 -0.0462 -0.0134
   34MOL   C40217628   7.965   1.362   5.294 -0.0726 -0.1950 -0.4161
   34MOL   C40317629   8.012   1.396   5.170  0.3751  0.1882  0.2448
   34MOL   C40417630   8.057   1.299   5.077 -0.2271  0.1919 -0.8699
   34MOL   C40517631   8.033   1.165   5.110  0.0849 -0.1435  0.4532
   34MOL   C40617632   7.981   1.126   5.235 -0.5718 -0.4178  0.0193
   34MOL   H40717633   7.712   1.563   5.305 -0.4377  0.7105 -0.2927
   34MOL   H40817634   7.831   1.655   5.221  0.6836 -0.2632  0.3706
   34MOL   H40917635   7.869   1.612   5.516 -0.6720  1.6315 -1.1414
   34MOL   H41017636   7.890   1.014   5.523 -1.2896 -0.6749  2.2006
   34MOL   H41117637   7.795   1.067   5.749  0.8264  1.1059  0.9112
   34MOL   H41217638   7.736   1.308   5.805 -1.0731  0.3883 -0.5466
   34MOL   H41317639   7.807   1.484   5.673 -1.8172  0.3601  0.3889
   34MOL   H41417640   8.025   1.498   5.136 -0.2267  0.5637  1.1041
   34MOL   H41517641   8.099   1.331   4.983  0.8086  0.3076 -0.3751
   34MOL   H41617642   8.058   1.087   5.040 -0.1570  1.5219 -1.5016
   34MOL   H41717643   7.966   1.021   5.260  2.5593 -1.3551 -1.8090
   34MOL   C41817644   8.034   1.652   5.391 -0.1618  0.5085 -0.8745
   34MOL   C41917645   8.145   1.628   5.501  0.6314  0.5715  0.0813
   34MOL   N42017646   0.016   1.518   5.460  0.1186  0.1602 -0.0299
   34MOL   C42117647   0.023   1.383   5.504 -0.5265 -0.2402  0.0481
   34MOL   C42217648   0.131   1.314   5.443  0.7729 -0.0131 -0.1216
   34MOL   C42317649   0.157   1.179   5.470 -0.3506  0.1100  0.6693
   34MOL   C42417650   0.067   1.104   5.550 -0.1203 -0.1396 -0.4389
   34MOL   C42517651   8.202   1.180   5.628  0.2128  0.1338 -0.0509
   34MOL   C42617652   8.176   1.317   5.602 -0.2341  0.9686 -0.0834
   34MOL   C42717653   0.200   1.420   5.363  0.1699  0.1506  0.0074
   34MOL   C42817654   0.121   1.533   5.364 -0.2186 -0.0058  0.0725
   34MOL   C42917655   0.150   1.642   5.281 -0.1370 -1.3034  0.2551
   34MOL   C43017656   0.264   1.637   5.201 -0.7192 -0.0322  0.2009
   34MOL   C43117657   0.340   1.521   5.187 -0.3989  0.5334 -0.8204
   34MOL   C43217658   0.303   1.411   5.262  0.1545 -0.5014 -0.4029
   34MOL   H43317659   8.072   1.629   5.291 -0.6715 -0.5094 -0.8444
   34MOL   H43417660   8.021   1.760   5.388 -0.3374  0.5130  0.0691
   34MOL   H43517661   8.089   1.577   5.579  1.4322 -0.4444  0.0006
   34MOL   H43617662   0.237   1.131   5.416 -0.7465  0.6602 -0.4253
   34MOL   H43717663   0.092   1.003   5.579 -0.9679 -0.7934 -1.9073
   34MOL   H43817664   8.133   1.148   5.705 -2.5366  0.2614 -2.3657
   34MOL   H43917665   8.104   1.366   5.667 -0.0129 -0.3164  1.1317
   34MOL   H44017666   0.091   1.732   5.283 -0.4454 -1.3948 -2.3417
   34MOL   H44117667   0.297   1.721   5.142 -0.1160  0.9736  1.9493
   34MOL   H44217668   0.429   1.513   5.127  1.9657 -0.4217  2.6676
   34MOL   H44317669   0.359   1.321   5.241 -1.0183 -1.0926 -1.0444
   34MOL   C44417670   8.210   1.761   5.560 -0.1827 -0.0077  0.4206
   34MOL   C44517671   0.121   1.748   5.632  0.6992 -0.0427 -0.3188
   34MOL   N44617672   0.178   1.883   5.657  0.3844  0.0696  0.1897
   34MOL   C44717673   0.297   1.933   5.590 -0.7947  0.1279  0.5749
   34MOL   C44817674   0.319   2.067   5.637  0.1339  0.3504 -0.1106
   34MOL   C44917675   0.434   2.131   5.590  0.3081  0.3700  0.3950
   34MOL   C45017676   0.516   2.070   5.497  0.2353  0.2322  0.0306
   34MOL   C45117677   0.491   1.945   5.444 -0.6459  0.7658 -0.0077
   34MOL   C45217678   0.383   1.871   5.493  0.0562 -0.2128 -0.1346
   34MOL   C45317679   0.219   2.104   5.735 -0.2427  0.2257 -0.1971
   34MOL   C45417680   0.128   1.992   5.736  0.8427  0.8236 -0.6834
   34MOL   C45517681   0.013   1.997   5.809  0.3441 -0.0917 -0.4920
   34MOL   C45617682   8.209   2.114   5.884  0.5295 -0.0222  0.1838
   34MOL   C45717683   0.070   2.220   5.892 -0.1903  0.4438  0.4315
   34MOL   C45817684   0.187   2.220   5.813 -0.1813  0.3237 -0.6948
   34MOL   H45917685   8.211   1.839   5.484  0.9925  1.7584  2.1681
   34MOL   H46017686   8.140   1.801   5.633  2.0205 -0.2822  2.7972
   34MOL   H46117687   0.182   1.699   5.556 -0.4235  1.3676 -2.1774
   34MOL   H46217688   0.449   2.235   5.616  0.6694  1.1773 -2.8295
   34MOL   H46317689   0.597   2.127   5.454 -1.5178  1.5976 -1.5322
   34MOL   H46417690   0.556   1.904   5.367 -0.6145  0.1606  0.3355
   34MOL   H46517691   0.358   1.771   5.464  0.1447 -0.8514  1.9014
   34MOL   H46617692   8.185   1.906   5.830 -0.5270  0.7509  0.9363
   34MOL   H46717693   8.116   2.113   5.940  0.2313  1.4970 -0.2712
   34MOL   H46817694   0.042   2.315   5.935  1.8395  0.5755  1.5292
   34MOL   H46917695   0.259   2.300   5.821  1.6971 -1.2904 -1.0717
   34MOL   C47017696   0.122   1.660   5.764  0.2011  0.1359 -0.0401
   34MOL   C47117697   0.261   1.621   5.818 -0.0153 -0.5514 -1.3220
   34MOL   N47217698   0.238   1.545   5.939 -0.3571  0.1962 -0.7166
   34MOL   C47317699   0.247   1.599   6.067  0.1387  0.4783 -1.3117
   34MOL   C47417700   0.243   1.494   6.165 -0.6778 -0.1155 -0.6507
   34MOL   C47517701   0.258   1.534   6.301 -0.8118 -0.0916  0.1002
   34MOL   C47617702   0.289   1.668   6.337 -0.1910  0.2456  0.2361
   34MOL   C47717703   0.293   1.767   6.238  0.9197  0.3701 -0.2647
   34MOL   C47817704   0.271   1.733   6.102 -0.1826  0.3640 -0.2466
   34MOL   C47917705   0.213   1.375   6.100 -0.9298 -0.2778  0.4253
   34MOL   C48017706   0.223   1.406   5.960  0.0667  0.2395 -0.6205
   34MOL   C48117707   0.197   1.309   5.866  0.0723  0.1386 -0.1521
   34MOL   C48217708   0.173   1.176   5.907 -0.2503 -0.4343  0.6000
   34MOL   C48317709   0.159   1.139   6.042  0.0782  0.7842 -0.1127
   34MOL   C48417710   0.184   1.237   6.135 -0.4211 -0.1074  0.0405
   34MOL   H48517711   0.081   1.725   5.840 -0.5964 -0.5183  0.0963
   34MOL   H48617712   0.062   1.571   5.745 -1.3212  0.5620  2.4936
   34MOL   H48717713   0.317   1.711   5.844  1.0230 -2.3550  3.1006
   34MOL   H48817714   0.239   1.456   6.374 -1.3193 -0.8102 -0.7872
   34MOL   H48917715   0.313   1.687   6.440 -2.6076 -3.8725  1.6762
   34MOL   H49017716   0.312   1.868   6.274  0.9585  0.0216  0.7186
   34MOL   H49117717   0.285   1.810   6.027 -0.0035 -0.1783 -0.7772
   34MOL   H49217718   0.198   1.333   5.761  0.7418  2.1241  0.2830
   34MOL   H49317719   0.162   1.093   5.838 -1.2044  0.0278  0.1898
   34MOL   H49417720   0.138   1.039   6.077  1.1170  1.2837  2.0156
   34MOL   H49517721   0.179   1.201   6.236 -0.4936  0.6342  0.3032
   34MOL   C49617722   0.349   1.553   5.704  0.3154 -0.1232  0.5089
   34MOL   C49717723   0.482   1.484   5.739  0.0394  0.1334 -0.0341
   34MOL   N49817724   0.527   1.394   5.633  0.0405  0.2740  0.5235
   34MOL   C49917725   0.578   1.443   5.507 -0.2527  0.5385  0.5151
   34MOL   C50017726   0.602   1.333   5.425  0.3787 -0.2785 -0.2791
   34MOL   C50117727   0.644   1.370   5.293 -0.8936  0.6604 -0.6049
   34MOL   C50217728   0.680   1.502   5.256  0.9854  0.5510 -0.5714
   34MOL   C50317729   0.657   1.604   5.344  0.4511 -0.0645  0.0312
   34MOL   C50417730   0.612   1.575   5.474 -0.2729 -0.1469  0.3976
   34MOL   C50517731   0.573   1.218   5.493 -0.0816  0.7916 -0.2461
   34MOL   C50617732   0.522   1.252   5.625  0.1002 -0.1529  1.1399
   34MOL   C50717733   0.473   1.161   5.719  0.2120  0.1756  0.2211
   34MOL   C50817734   0.481   1.026   5.679  0.1471  0.3502  0.0529
   34MOL   C50917735   0.534   0.986   5.556 -0.2304  0.2642 -0.3718
   34MOL   C51017736   0.576   1.084   5.468 -0.3171 -0.0443 -0.8367
   34MOL   H51117737   0.281   1.488   5.650  0.9630  0.8975 -1.5804
   34MOL   H51217738   0.368   1.630   5.630  1.3821  1.5088  2.4154
   34MOL   H51317739   0.456   1.421   5.825  0.6249 -1.4631 -0.9955
   34MOL   H51417740   0.652   1.298   5.212 -0.1623 -0.5992  0.5828
   34MOL   H51517741   0.704   1.521   5.152  1.3178  1.4679 -0.3327
   34MOL   H51617742   0.681   1.706   5.320 -0.7275  0.4932  1.1720
   34MOL   H51717743   0.596   1.653   5.548 -1.0982  0.4864 -0.4296
   34MOL   H51817744   0.426   1.184   5.814 -0.1141 -0.6151  0.2540
   34MOL   H51917745   0.441   0.958   5.753  0.5920 -1.3689 -1.2584
   34MOL   H52017746   0.526   0.882   5.525  1.5717  0.3536 -1.2052
   34MOL   H52117747   0.619   1.050   5.374  0.3445 -0.3032 -0.4449
   34MOL   H52217748   0.563   1.556   5.748  2.4900 -2.1009 -3.2278
   35MOL     C117749   0.058   4.968   4.731  0.1681 -0.7325 -0.1163
   35MOL     C217750   8.226   5.095   4.662  0.1622  0.0323  0.2012
   35MOL     N317751   0.014   5.204   4.755  0.0129  0.0567  0.1325
   35MOL     C417752   8.128   5.258   4.819 -0.7439 -0.0911  0.0808
   35MOL     C517753   8.178   5.356   4.913 -0.0522  0.3053  0.5555
   35MOL     C617754   8.084   5.422   4.999  0.1590  0.1348 -0.2087
   35MOL     C717755   7.948   5.394   4.984 -0.3865 -0.6488 -0.4668
   35MOL     C817756   7.899   5.295   4.892  0.0052 -0.0762  0.8071
   35MOL     C917757   7.990   5.230   4.807  0.3636 -0.5188  0.0703
   35MOL    C1017758   0.084   5.377   4.892  0.7076 -0.1306 -0.1253
   35MOL    C1117759   0.123   5.280   4.795  0.5763 -0.5456  0.3638
   35MOL    C1217760   0.258   5.269   4.752 -0.4723  0.6455  0.0857
   35MOL    C1317761   0.353   5.358   4.805  0.2578 -0.0923  0.6195
   35MOL    C1417762   0.313   5.457   4.904  0.4350  0.3876  0.1437
   35MOL    C1517763   0.177   5.460   4.948 -0.4060  0.4399  0.0045
   35MOL    H1617764   8.216   4.958   4.814  0.0233  2.9310  0.2709
   35MOL    H1717765   0.161   4.982   4.762 -0.1281  1.0005  0.1579
   35MOL    H1817766   8.119   5.075   4.667 -0.2449  1.9338 -0.4388
   35MOL    H1917767   8.108   5.497   5.072  0.7427 -0.0636 -0.1881
   35MOL    H2017768   7.880   5.432   5.059  0.2445  0.6389 -0.5316
   35MOL    H2117769   7.796   5.265   4.880  0.0391 -0.2615  0.9696
   35MOL    H2217770   7.951   5.163   4.732  1.4074 -0.5875 -0.4296
   35MOL    H2317771   0.290   5.205   4.670 -1.2481  1.8267 -1.1680
   35MOL    H2417772   0.458   5.343   4.784  0.0600 -0.8341  0.1037
   35MOL    H2517773   0.385   5.522   4.952  0.4017  1.8572 -1.7169
   35MOL    H2617774   0.149   5.531   5.025 -1.3403  0.7915 -0.6502
   35MOL    H2717775   0.053   4.880   4.667 -3.0629  0.2069 -1.2898
   35MOL    C2817776   0.049   5.133   4.524  0.5252  0.1382  0.3881
   35MOL    C2917777   0.011   5.032   4.405  0.4198 -0.3041  0.4370
   35MOL    N3017778   8.120   4.961   4.423 -0.0090  0.5257 -0.0639
   35MOL    C3117779   8.108   4.823   4.436  0.7635  0.6910 -0.6602
   35MOL    C3217780   7.975   4.787   4.427  1.1404 -0.0191 -0.0452
   35MOL    C3317781   7.933   4.653   4.432 -1.0912  0.0546 -0.1483
   35MOL    C3417782   8.035   4.550   4.443 -0.2300  0.7436 -0.2524
   35MOL    C3517783   8.174   4.581   4.447 -0.2279 -0.4897 -0.0874
   35MOL    C3617784   8.206   4.716   4.435 -0.1129 -0.6420  0.4562
   35MOL    C3717785   7.898   4.911   4.441 -0.0793 -0.7299  0.5184
   35MOL    C3817786   7.990   5.017   4.445 -0.1467  0.2745 -0.5651
   35MOL    C3917787   7.951   5.152   4.449  0.0364  0.1289  1.6173
   35MOL    C4017788   7.813   5.184   4.460  0.4470  0.1121  0.3052
   35MOL    C4117789   7.722   5.083   4.466 -0.2294 -0.7408  0.1722
   35MOL    C4217790   7.765   4.948   4.458  0.1142  0.2458 -0.4176
   35MOL    H4317791   0.012   5.231   4.496 -0.4899 -0.1509  0.6896
   35MOL    H4417792   0.157   5.128   4.531  0.5055 -0.8007  0.1627
   35MOL    H4517793   0.093   4.961   4.404  2.2746  1.8096 -1.5774
   35MOL    H4617794   7.830   4.622   4.422 -0.4331 -2.1851 -0.1972
   35MOL    H4717795   7.995   4.452   4.459  0.6645  0.5380  0.7783
   35MOL    H4817796   0.019   4.502   4.459 -1.4510 -2.2369 -3.4910
   35MOL    H4917797   0.081   4.748   4.419 -0.7421  0.4643 -1.4831
   35MOL    H5017798   8.010   5.240   4.429 -0.0678  0.3835  2.3929
   35MOL    H5117799   7.782   5.287   4.469 -0.5642 -0.0596 -1.0060
   35MOL    H5217800   7.616   5.102   4.479 -0.2292 -0.9779  0.5274
   35MOL    H5317801   7.687   4.874   4.446 -1.7080  1.9250  0.5647
   35MOL    C5417802   0.023   5.086   4.261 -0.6756 -0.0380  0.4778
   35MOL    C5517803   0.170   5.133   4.238 -0.1834 -0.1828  0.0397
   35MOL    N5617804   0.282   5.038   4.246 -0.3460 -0.1609 -0.0460
   35MOL    C5717805   0.418   5.064   4.273  0.2501 -0.5929  0.1438
   35MOL    C5817806   0.500   4.947   4.274 -0.5588 -1.0201  0.6248
   35MOL    C5917807   0.637   4.959   4.304 -0.7946  0.3321 -0.0574
   35MOL    C6017808   0.695   5.080   4.335  0.5710  0.1958 -1.0409
   35MOL    C6117809   0.615   5.197   4.338 -0.5331  0.0966 -0.5732
   35MOL    C6217810   0.479   5.189   4.312 -0.1446 -0.0702 -0.2379
   35MOL    C6317811   0.414   4.847   4.229 -0.0498  0.1226 -1.0698
   35MOL    C6417812   0.284   4.900   4.212 -0.5093 -0.0977  0.0749
   35MOL    C6517813   0.181   4.814   4.166  0.2767 -0.1049 -0.8535
   35MOL    C6617814   0.211   4.680   4.132  0.5796  0.4058 -0.0496
   35MOL    C6717815   0.337   4.629   4.149  0.0919 -0.0021  0.6846
   35MOL    C6817816   0.440   4.714   4.198  0.8503  0.0308 -0.4241
   35MOL    H6917817   8.211   5.018   4.185 -1.4814  0.1712  0.7128
   35MOL    H7017818   8.183   5.172   4.260 -0.1159  0.3921 -0.2997
   35MOL    H7117819   0.189   5.212   4.310  2.1116  0.5738 -1.3747
   35MOL    H7217820   0.697   4.869   4.293  1.7082  2.1471 -1.8201
   35MOL    H7317821   0.800   5.096   4.355  0.5600 -0.6390 -0.3502
   35MOL    H7417822   0.658   5.289   4.376  0.9752 -0.2449 -1.4291
   35MOL    H7517823   0.416   5.276   4.301 -1.8195 -1.3555 -0.8734
   35MOL    H7617824   0.079   4.849   4.157 -0.1437 -0.8812  0.7704
   35MOL    H7717825   0.132   4.615   4.095 -0.1554  1.2354  0.0443
   35MOL    H7817826   0.345   4.529   4.108  1.3726  0.6620 -0.7531
   35MOL    H7917827   0.535   4.664   4.213  0.9455  0.2601 -0.2583
   35MOL    C8017828   0.171   5.189   4.101  0.3170 -0.7001 -0.7834
   35MOL    C8117829   0.086   5.317   4.061 -0.6937  0.2568  0.3179
   35MOL    N8217830   0.120   5.438   4.135 -0.2635  0.2032 -0.7057
   35MOL    C8317831   0.047   5.502   4.235  0.1525 -0.5056  0.0438
   35MOL    C8417832   0.122   5.610   4.294 -0.0790  0.0492 -0.2318
   35MOL    C8517833   0.058   5.688   4.392  0.2591 -0.0612  0.1187
   35MOL    C8617834   8.149   5.673   4.423 -0.7638  0.1048  0.3477
   35MOL    C8717835   8.081   5.567   4.364  0.1736 -0.4631  0.2871
   35MOL    C8817836   8.142   5.480   4.273  0.0322  0.2166  0.4737
   35MOL    C8917837   0.251   5.599   4.238  0.1688  0.4347 -0.6677
   35MOL    C9017838   0.245   5.498   4.135 -0.2586  0.2525 -0.3941
   35MOL    C9117839   0.357   5.472   4.052 -0.1672 -0.0261 -0.5180
   35MOL    C9217840   0.479   5.528   4.093 -0.2285  0.1316  0.7687
   35MOL    C9317841   0.494   5.614   4.200 -0.7434 -0.6604  0.3582
   35MOL    C9417842   0.378   5.656   4.265 -1.0207 -0.5178 -0.1996
   35MOL    H9517843   0.274   5.214   4.075 -0.3970  1.8218 -1.3483
   35MOL    H9617844   0.148   5.108   4.031  1.6999 -1.6255 -0.1927
   35MOL    H9717845   8.208   5.295   4.081 -0.6539 -1.5472 -1.2600
   35MOL    H9817846   0.113   5.765   4.443  0.9424 -1.5343  1.6498
   35MOL    H9917847   8.113   5.726   4.510 -0.7739  0.2570  0.2490
   35MOL   H10017848   7.986   5.536   4.403  0.1933 -0.4006  0.3851
   35MOL   H10117849   8.090   5.394   4.233  0.3069  0.1280  0.3060
   35MOL   H10217850   0.352   5.405   3.968  0.2106 -0.1185 -0.4639
   35MOL   H10317851   0.561   5.482   4.040 -0.4566 -0.6892  1.1269
   35MOL   H10417852   0.592   5.643   4.236 -0.5339  1.5355 -1.8824
   35MOL   H10517853   0.382   5.725   4.348 -1.3533  0.2563 -0.8228
   35MOL   C10617854   0.091   5.334   3.907 -0.0207  0.4354  0.6276
   35MOL   C10717855   8.208   5.259   3.829 -0.0855 -0.0382 -0.3794
   35MOL   N10817856   8.074   5.315   3.855 -0.1617 -0.3025 -0.1949
   35MOL   C10917857   7.972   5.254   3.935 -0.0091 -0.5129 -0.4641
   35MOL   C11017858   7.859   5.337   3.945  0.4886  0.1785  0.6801
   35MOL   C11117859   7.744   5.289   4.016 -0.1348 -0.1925  0.3267
   35MOL   C11217860   7.747   5.162   4.077  0.4212  0.7408 -0.0450
   35MOL   C11317861   7.861   5.077   4.069 -0.2948 -0.2190  0.5841
   35MOL   C11417862   7.974   5.128   4.000  0.8369 -0.0177  1.0425
   35MOL   C11517863   7.897   5.464   3.884  0.4478  0.5542 -0.4339
   35MOL   C11617864   8.032   5.450   3.832 -0.3567 -0.9011  0.1661
   35MOL   C11717865   8.092   5.563   3.773 -0.5889  0.6621 -0.5137
   35MOL   C11817866   8.029   5.687   3.769  0.3247  0.0173  0.0362
   35MOL   C11917867   7.896   5.699   3.821 -0.0547 -0.3459  0.8410
   35MOL   C12017868   7.831   5.584   3.869  0.4896  0.1842  0.5293
   35MOL   H12117869   0.083   5.442   3.892 -0.3113  0.2864 -0.2761
   35MOL   H12217870   0.187   5.305   3.866  0.0767 -1.1260  1.9102
   35MOL   H12317871   8.203   5.156   3.866 -0.3613 -0.1696 -0.7851
   35MOL   H12417872   7.658   5.353   4.026 -0.0416 -0.1112  0.6370
   35MOL   H12517873   7.664   5.124   4.135  0.8450  1.9388  1.3564
   35MOL   H12617874   7.854   4.983   4.121 -2.5547  0.2641  1.2277
   35MOL   H12717875   8.056   5.058   3.993  1.0773  0.1207  2.3986
   35MOL   H12817876   8.188   5.554   3.724 -1.1111 -1.5568 -1.2028
   35MOL   H12917877   8.068   5.768   3.710  0.2175 -0.6914 -1.0076
   35MOL   H13017878   7.840   5.790   3.802  1.3017 -0.1198 -2.3591
   35MOL   H13117879   7.725   5.584   3.888 -0.1375 -0.7864 -2.6270
   35MOL   C13217880   0.010   5.247   3.682 -0.1029 -0.5383 -0.1159
   35MOL   C13317881   0.145   5.175   3.639 -0.6033 -1.0076 -1.0617
   35MOL   N13417882   0.168   5.051   3.709  0.0817 -0.0830 -0.4490
   35MOL   C13517883   0.291   5.020   3.768 -0.3227  0.1274 -0.7378
   35MOL   C13617884   0.287   4.883   3.818  0.8206  0.7073  0.8405
   35MOL   C13717885   0.403   4.828   3.884  0.2103 -0.6913 -0.8857
   35MOL   C13817886   0.527   4.906   3.894  0.6362  0.3720  0.2761
   35MOL   C13917887   0.525   5.039   3.854  0.0935  0.0489  0.9812
   35MOL   C14017888   0.405   5.100   3.794  0.4717  0.0131  0.3093
   35MOL   C14117889   0.152   4.830   3.789  0.1313 -0.5692 -0.1138
   35MOL   C14217890   0.085   4.939   3.724 -0.6300  0.1392  0.2901
   35MOL   C14317891   8.182   4.924   3.681  0.2569  1.0088  0.3117
   35MOL   C14417892   8.112   4.805   3.715  0.5133  0.0308  0.1976
   35MOL   C14517893   8.177   4.697   3.776  0.2438 -0.2414 -1.3530
   35MOL   C14617894   0.084   4.704   3.804 -0.0729  0.0755  0.4861
   35MOL   H14717895   8.146   5.198   3.646 -1.0901  1.6147 -0.6134
   35MOL   H14817896   0.008   5.345   3.634  1.8954  0.1763  1.1842
   35MOL   H14917897   0.225   5.243   3.671 -2.3367  0.7504 -0.3217
   35MOL   H15017898   0.402   4.729   3.927  2.3255 -0.1035  0.6370
   35MOL   H15117899   0.620   4.865   3.932  0.1704 -0.9744  0.0111
   35MOL   H15217900   0.613   5.099   3.872 -0.5154  1.5101 -0.8009
   35MOL   H15317901   0.409   5.204   3.765  1.3796  0.5031  2.0938
   35MOL   H15417902   8.124   5.008   3.647 -1.2045 -0.1397 -0.1004
   35MOL   H15517903   8.006   4.802   3.692  0.2747  4.6414  0.2627
   35MOL   H15617904   8.117   4.608   3.788  3.5614 -2.5711 -1.2055
   35MOL   H15717905   0.136   4.629   3.861  0.8557 -0.1082 -0.5791
   35MOL   C15817906   0.155   5.152   3.486 -0.9747 -0.3556  0.6769
   35MOL   C15917907   0.167   5.278   3.402 -0.1193  0.1189  0.3281
   35MOL   N16017908   0.293   5.351   3.421 -0.3311 -0.4043 -0.9869
   35MOL   C16117909   0.304   5.471   3.493  0.0166  0.7640  0.0551
   35MOL   C16217910   0.441   5.500   3.512 -0.0779 -0.0589 -0.2772
   35MOL   C16317911   0.479   5.616   3.583 -0.3719 -0.0014  1.1398
   35MOL   C16417912   0.381   5.699   3.635  0.3957 -0.2025 -0.3299
   35MOL   C16517913   0.245   5.678   3.607 -0.2726  0.5578  0.4828
   35MOL   C16617914   0.206   5.566   3.532  0.6605 -0.4884  0.2380
   35MOL   C16717915   0.516   5.395   3.441 -0.5436 -0.3896 -0.3362
   35MOL   C16817916   0.422   5.304   3.391 -0.5336 -0.2199 -0.3422
   35MOL   C16917917   0.463   5.185   3.324 -0.3345  0.1088 -0.0113
   35MOL   C17017918   0.604   5.160   3.293 -0.8524 -0.2091  0.0410
   35MOL   C17117919   0.695   5.253   3.335  0.9647  0.0806  0.0916
   35MOL   C17217920   0.653   5.367   3.406  0.7159 -0.0935 -0.2213
   35MOL   H17317921   0.230   5.075   3.469 -2.5553 -1.7470 -0.2553
   35MOL   H17417922   0.062   5.104   3.454 -0.7667 -0.2824 -0.0508
   35MOL   H17517923   0.090   5.350   3.431 -0.9729  0.4019 -2.5471
   35MOL   H17617924   0.583   5.644   3.574 -0.8120  1.2728 -0.3331
   35MOL   H17717925   0.418   5.783   3.693 -0.2669 -0.1464  0.0150
   35MOL   H17817926   0.178   5.752   3.649 -1.7481 -0.7183  0.4480
   35MOL   H17917927   0.102   5.545   3.517  0.7346  1.1032 -2.8673
   35MOL   H18017928   0.392   5.111   3.292 -0.7118  0.6714 -0.4964
   35MOL   H18117929   0.631   5.077   3.229 -1.7327 -0.2160 -0.3259
   35MOL   H18217930   0.801   5.240   3.318  0.9282  1.2298 -1.1585
   35MOL   H18317931   0.725   5.445   3.428 -1.2070  1.6808 -0.1380
   35MOL   C18417932   0.127   5.248   3.250  0.7769 -0.1892  1.3191
   35MOL   C18517933   8.210   5.244   3.210 -0.1613  0.4007 -0.0969
   35MOL   N18617934   8.125   5.345   3.282 -0.0942 -0.0816  0.3673
   35MOL   C18717935   8.026   5.320   3.377 -0.5365 -0.2030 -0.0721
   35MOL   C18817936   7.974   5.444   3.428 -0.2087  0.1143  0.1160
   35MOL   C18917937   7.877   5.443   3.523  0.3674 -0.1648 -0.1715
   35MOL   C19017938   7.825   5.323   3.570  0.8244 -0.0982  0.4365
   35MOL   C19117939   7.868   5.198   3.513 -0.2591  0.0628 -0.1191
   35MOL   C19217940   7.975   5.195   3.429  0.3922  0.6260  0.4102
   35MOL   C19317941   8.050   5.552   3.364  0.2206  0.1769 -0.5199
   35MOL   C19417942   8.143   5.486   3.278  0.4699  0.4152  0.1224
   35MOL   C19517943   0.004   5.571   3.207  0.0128  0.1861 -0.0676
   35MOL   C19617944   0.002   5.710   3.218  0.1329 -0.6323 -0.2817
   35MOL   C19717945   8.132   5.770   3.297 -0.4710 -0.1606 -0.3811
   35MOL   C19817946   8.042   5.693   3.364  0.2785  0.0105  0.2628
   35MOL   H19917947   0.175   5.321   3.184 -0.9938  0.5312  0.8111
   35MOL   H20017948   0.175   5.161   3.204 -0.7568  0.8852 -2.4989
   35MOL   H20117949   8.163   5.152   3.243 -0.0840  0.5437  0.4213
   35MOL   H20217950   7.850   5.540   3.561  4.4142  2.1769 -2.8930
   35MOL   H20317951   7.755   5.321   3.651 -0.7340 -0.9315 -0.8942
   35MOL   H20417952   7.813   5.108   3.537  1.1669 -0.4850  1.1539
   35MOL   H20517953   8.012   5.098   3.401 -1.4617 -0.3012  1.1484
   35MOL   H20617954   0.080   5.531   3.141  0.1376  0.1982  0.0697
   35MOL   H20717955   0.061   5.775   3.156 -1.6877  2.0018  0.6944
   35MOL   H20817956   8.129   5.877   3.285  3.1220  0.3465  2.4118
   35MOL   H20917957   7.965   5.736   3.426 -2.2020 -1.1809 -1.9254
   35MOL   C21017958   8.194   5.240   3.054 -0.1123 -0.4097 -0.0670
   35MOL   C21117959   8.059   5.284   3.003  0.0555 -0.0758 -0.6484
   35MOL   N21217960   8.064   5.283   2.857  0.1806 -0.8350 -0.2379
   35MOL   C21317961   8.061   5.391   2.771 -0.0500  0.2705  0.2083
   35MOL   C21417962   8.050   5.348   2.638 -0.6133 -0.9171 -0.0205
   35MOL   C21517963   8.041   5.452   2.541 -0.2776 -0.0896  0.1932
   35MOL   C21617964   8.039   5.593   2.575 -0.4858 -0.1292  0.9710
   35MOL   C21717965   8.063   5.626   2.707 -0.5687  1.0527 -0.5102
   35MOL   C21817966   8.064   5.527   2.807 -0.4639  0.2207  0.2327
   35MOL   C21917967   8.048   5.207   2.647 -0.4014  0.3571  0.1657
   35MOL   C22017968   8.062   5.163   2.781  0.5679  0.0993  0.6049
   35MOL   C22117969   8.061   5.028   2.819 -0.4212 -0.1316 -0.2485
   35MOL   C22217970   8.056   4.933   2.720  0.0566  0.1796  0.0736
   35MOL   C22317971   8.045   4.972   2.585  0.1457 -0.3933 -0.5090
   35MOL   C22417972   8.040   5.107   2.548 -0.6261  0.2391  0.5182
   35MOL   H22517973   0.033   5.317   3.015 -1.3476 -0.4351 -2.2955
   35MOL   H22617974   0.007   5.156   2.997  3.7293  0.7564  0.8188
   35MOL   H22717975   8.045   5.387   3.038  1.2541 -0.5309  1.2390
   35MOL   H22817976   8.023   5.431   2.436  2.5643 -2.5511  0.1075
   35MOL   H22917977   8.018   5.665   2.497 -1.8454  0.3929  1.8005
   35MOL   H23017978   8.067   5.729   2.737  4.8121  0.5799  0.9861
   35MOL   H23117979   8.074   5.550   2.912  2.2423 -2.4558  0.6592
   35MOL   H23217980   8.066   4.997   2.922 -1.0392 -0.2192 -0.2432
   35MOL   H23317981   8.047   4.827   2.741 -1.8422  0.1385 -0.8324
   35MOL   H23417982   8.038   4.897   2.507 -1.7109 -0.0207 -0.7040
   35MOL   H23517983   8.033   5.124   2.441  0.6710 -1.9849  0.0522
   35MOL   C23617984   7.931   5.210   3.058 -0.6211 -0.1653  0.2780
   35MOL   C23717985   7.818   5.302   3.099 -0.2619 -0.4108  0.6444
   35MOL   N23817986   7.777   5.399   2.995  0.8701 -0.1496  0.1638
   35MOL   C23917987   7.784   5.538   3.003 -0.7452 -0.0783  0.6658
   35MOL   C24017988   7.731   5.593   2.885 -0.1300  0.5319 -0.0392
   35MOL   C24117989   7.721   5.740   2.872  0.2158  0.1786 -0.3226
   35MOL   C24217990   7.764   5.813   2.981  0.3459 -0.0488  1.1356
   35MOL   C24317991   7.823   5.752   3.092 -0.3640  0.1266 -0.1320
   35MOL   C24417992   7.825   5.617   3.113  0.6217  0.0557  0.1075
   35MOL   C24517993   7.708   5.487   2.789 -0.1716  0.2622 -0.0452
   35MOL   C24617994   7.740   5.369   2.859  0.4486  1.1168  0.1392
   35MOL   C24717995   7.712   5.239   2.800 -0.0468  0.2319  0.2799
   35MOL   C24817996   7.668   5.236   2.665  0.1554 -0.0442  0.3567
   35MOL   C24917997   7.634   5.354   2.595 -0.3661  0.7190 -0.0683
   35MOL   C25017998   7.664   5.477   2.658  0.2572 -0.4521  0.2534
   35MOL   H25117999   7.894   5.138   2.985 -0.2355  0.5305 -0.6124
   35MOL   H25218000   7.952   5.158   3.151 -0.0110  0.0011  0.2383
   35MOL   H25318001   7.846   5.365   3.183 -1.1463  1.0826 -0.1574
   35MOL   H25418002   7.678   5.788   2.785  2.1976 -0.0251 -1.4313
   35MOL   H25518003   7.754   5.919   2.963 -0.3616  0.1139  2.3762
   35MOL   H25618004   7.863   5.818   3.168  0.5927 -1.4461  0.7523
   35MOL   H25718005   7.861   5.561   3.197  0.3890 -1.4973 -0.8116
   35MOL   H25818006   7.722   5.149   2.859 -1.6295 -0.0302  0.1635
   35MOL   H25918007   7.639   5.143   2.620  1.3383  1.0317 -2.7139
   35MOL   H26018008   7.582   5.351   2.501  1.0262  2.3638 -0.9290
   35MOL   H26118009   7.634   5.571   2.614 -0.7145 -1.0020 -0.2684
   35MOL   C26218010   7.705   5.213   3.153 -0.4639 -0.0809 -0.0183
   35MOL   C26318011   7.565   5.287   3.171 -0.3381  0.4588 -0.4264
   35MOL   N26418012   7.455   5.194   3.168  0.1615  0.6427  0.1266
   35MOL   C26518013   7.375   5.167   3.053  0.1292 -0.0456  0.0086
   35MOL   C26618014   7.268   5.078   3.093  0.2567  0.4573 -0.4252
   35MOL   C26718015   7.173   5.043   2.993 -0.6780  0.0884  0.8466
   35MOL   C26818016   7.178   5.093   2.862  0.3361 -0.2802 -0.6091
   35MOL   C26918017   7.285   5.176   2.823  0.3336 -0.1567 -1.0145
   35MOL   C27018018   7.376   5.222   2.925  0.2035 -0.6751 -0.3701
   35MOL   C27118019   7.280   5.043   3.230  0.0602 -0.4091  0.0543
   35MOL   C27218020   7.397   5.117   3.272  0.0733 -0.1459 -0.1104
   35MOL   C27318021   7.429   5.095   3.410  0.4861 -0.1906  0.6534
   35MOL   C27418022   7.358   5.013   3.492 -0.2543  0.6443 -0.3746
   35MOL   C27518023   7.245   4.938   3.449  1.0593 -0.0553  0.1706
   35MOL   C27618024   7.205   4.960   3.316  1.0587  0.0031 -0.3559
   35MOL   H27718025   7.682   5.144   3.073 -0.4265  1.7756 -1.6668
   35MOL   H27818026   7.732   5.159   3.244  1.9840 -0.2876 -0.8185
   35MOL   H27918027   7.548   5.347   3.081 -0.2480 -0.2040 -0.8872
   35MOL   H28018028   7.089   4.980   3.017 -0.3361 -0.0456  1.7152
   35MOL   H28118029   7.102   5.072   2.788 -0.5519  0.0529  0.2038
   35MOL   H28218030   7.294   5.202   2.718 -1.7704  0.8542 -0.9636
   35MOL   H28318031   7.448   5.299   2.902 -1.1180  0.5893 -0.2950
   35MOL   H28418032   7.519   5.138   3.451 -0.2051  2.9283 -0.9670
   35MOL   H28518033   7.391   4.985   3.591 -3.1440 -0.2010  0.3978
   35MOL   H28618034   7.184   4.885   3.521  0.3119 -0.8893 -1.0568
   35MOL   H28718035   7.113   4.923   3.275  1.1484 -1.3212  0.6064
   35MOL   C28818036   7.560   5.381   3.292 -0.6804 -0.3493  0.0390
   35MOL   C28918037   7.431   5.467   3.308 -0.0730  0.6639 -0.2448
   35MOL   N29018038   7.437   5.520   3.448 -0.0440 -0.3426 -0.3130
   35MOL   C29118039   7.353   5.480   3.552 -0.4903 -0.3665  0.6568
   35MOL   C29218040   7.378   5.560   3.669 -0.6162  0.5028  0.4162
   35MOL   C29318041   7.295   5.539   3.784  0.2569  1.2282 -0.6726
   35MOL   C29418042   7.194   5.440   3.786  0.3598 -1.0876 -0.0200
   35MOL   C29518043   7.177   5.363   3.670  0.2695 -0.8151 -0.4797
   35MOL   C29618044   7.255   5.380   3.560  0.5521  0.0501 -0.1183
   35MOL   C29718045   7.486   5.648   3.635  0.7403 -0.4556  0.4468
   35MOL   C29818046   7.525   5.622   3.498  0.4188 -0.9892  0.4401
   35MOL   C29918047   7.630   5.694   3.433 -0.0847 -0.3913 -0.2901
   35MOL   C30018048   7.697   5.797   3.506 -0.5713 -0.3094  0.6488
   35MOL   C30118049   7.654   5.837   3.634  0.1701  0.2992  0.2082
   35MOL   C30218050   7.554   5.760   3.691 -0.7310  0.5475 -0.0448
   35MOL   H30318051   7.601   5.333   3.381  2.6310 -2.2558 -2.4073
   35MOL   H30418052   7.638   5.453   3.267 -0.6216 -1.0957 -2.0606
   35MOL   H30518053   7.344   5.401   3.296  1.1102 -1.0568  0.5649
   35MOL   H30618054   7.305   5.600   3.872 -0.4398 -1.4353  1.3190
   35MOL   H30718055   7.129   5.418   3.870  1.4770 -0.5734  0.9982
   35MOL   H30818056   7.103   5.285   3.663  0.4742 -0.9841 -0.7877
   35MOL   H30918057   7.237   5.329   3.467  2.0829 -1.4826  0.3875
   35MOL   H31018058   7.670   5.677   3.334 -0.1636  0.9684 -0.5572
   35MOL   H31118059   7.773   5.853   3.454 -2.5505  0.2840 -1.6964
   35MOL   H31218060   7.704   5.921   3.680 -0.0930  1.8614 -2.2806
   35MOL   H31318061   7.528   5.787   3.792  0.7529  1.3170  0.1456
   35MOL   C31418062   7.421   5.574   3.190  0.0603  0.8713 -0.3144
   35MOL   C31518063   7.354   5.706   3.204 -0.2554  0.4156  0.1035
   35MOL   N31618064   7.363   5.806   3.095 -0.5843  0.6342  0.2375
   35MOL   C31718065   7.422   5.932   3.109  0.1401  0.2997 -0.0877
   35MOL   C31818066   7.400   6.010   2.991 -0.2414  0.5469 -0.1571
   35MOL   C31918067   7.441   6.148   2.990 -0.1681  0.2496  0.2283
   35MOL   C32018068   7.498   6.208   3.106  0.4199  0.8068 -0.3815
   35MOL   C32118069   7.526   6.132   3.222 -0.0525 -0.1897 -0.2640
   35MOL   C32218070   7.487   5.993   3.216  0.3438 -0.1140 -0.6502
   35MOL   C32318071   7.343   5.918   2.898  0.2457 -0.6714  0.2769
   35MOL   C32418072   7.320   5.798   2.965  0.6900  0.1988  0.3775
   35MOL   C32518073   7.262   5.686   2.896  0.2406 -0.2732 -0.8602
   35MOL   C32618074   7.227   5.697   2.756  0.9056 -0.1789 -0.6210
   35MOL   C32718075   7.250   5.821   2.694  0.5175 -0.5050  0.4168
   35MOL   C32818076   7.309   5.928   2.760 -0.2096 -0.3732 -0.2297
   35MOL   H32918077   7.523   5.592   3.156 -0.6286  1.6923 -2.0030
   35MOL   H33018078   7.372   5.525   3.107  2.5147 -0.1654 -1.1991
   35MOL   H33118079   7.391   5.761   3.290  1.7413  0.1568 -0.5526
   35MOL   H33218080   7.426   6.213   2.905  3.1536  1.7514  0.7314
   35MOL   H33318081   7.532   6.309   3.117  3.1657 -0.0877 -0.4269
   35MOL   H33418082   7.580   6.181   3.301 -0.9285  0.6259 -0.1591
   35MOL   H33518083   7.505   5.939   3.309 -1.7827 -1.6819 -1.1160
   35MOL   H33618084   7.237   5.593   2.945  1.1866  0.0480  0.2532
   35MOL   H33718085   7.171   5.617   2.710  0.1227  0.4526 -0.7785
   35MOL   H33818086   7.230   5.827   2.589 -0.9974 -0.4111  0.7063
   35MOL   H33918087   7.318   6.027   2.718  1.5217 -0.4883 -0.1662
   35MOL   C34018088   7.209   5.695   3.245 -0.4450  0.1707 -0.1383
   35MOL   C34118089   7.130   5.825   3.252 -0.6304  0.1247  0.1038
   35MOL   N34218090   6.988   5.800   3.214 -0.3649 -0.1647 -0.6278
   35MOL   C34318091   6.922   5.830   3.097 -0.2536 -0.3931  0.7831
   35MOL   C34418092   6.789   5.780   3.103  0.1863  0.1209 -0.5011
   35MOL   C34518093   6.697   5.814   2.996  0.1788 -0.1521 -0.0520
   35MOL   C34618094   6.746   5.861   2.873  0.4955 -0.4579 -0.3456
   35MOL   C34718095   6.883   5.904   2.860  0.1352 -0.2049 -0.3702
   35MOL   C34818096   6.963   5.892   2.976 -0.5893 -1.3350  0.1421
   35MOL   C34918097   6.770   5.729   3.231 -0.1348 -0.5865 -0.8447
   35MOL   C35018098   6.894   5.730   3.298 -0.0456  0.4941 -0.4842
   35MOL   C35118099   6.908   5.668   3.429 -0.0614  0.7367  0.3311
   35MOL   C35218100   6.796   5.615   3.496  0.0111 -0.0509 -0.1546
   35MOL   C35318101   6.672   5.620   3.426  0.8763  0.5596 -0.0640
   35MOL   C35418102   6.658   5.682   3.304  0.1448 -0.0828  0.1881
   35MOL   H35518103   7.152   5.632   3.176  1.3684 -0.2901 -1.2549
   35MOL   H35618104   7.197   5.648   3.342  0.1106  2.5275  1.1021
   35MOL   H35718105   7.164   5.883   3.166 -2.0126 -1.0013 -1.2351
   35MOL   H35818106   6.594   5.784   3.005  0.3399 -0.8575 -0.5430
   35MOL   H35918107   6.679   5.868   2.789 -0.3740 -2.2893  0.1875
   35MOL   H36018108   6.928   5.942   2.769 -0.5217 -0.1618 -0.6827
   35MOL   H36118109   7.062   5.935   2.968 -1.8867  1.0341 -4.7482
   35MOL   H36218110   7.003   5.667   3.481 -0.0556 -1.7053  0.3538
   35MOL   H36318111   6.819   5.565   3.589  2.0029  0.3381 -0.4140
   35MOL   H36418112   6.594   5.576   3.487  0.4190 -0.2920 -1.2597
   35MOL   H36518113   6.557   5.694   3.268 -0.0106  0.4935  0.7917
   35MOL   C36618114   7.156   5.899   3.387 -0.1109 -0.1191  0.4612
   35MOL   C36718115   7.089   6.035   3.410 -0.3717  0.2180 -0.2101
   35MOL   N36818116   7.022   6.045   3.539 -0.0934 -0.4968  0.0367
   35MOL   C36918117   6.883   6.051   3.563 -0.3970  0.0170  0.4808
   35MOL   C37018118   6.848   6.067   3.696  0.8141  0.3456  0.1682
   35MOL   C37118119   6.713   6.085   3.738 -0.5450  0.1563  0.8334
   35MOL   C37218120   6.607   6.089   3.640  0.3357 -0.2211 -0.0779
   35MOL   C37318121   6.643   6.065   3.508  0.1803  0.5697  0.2473
   35MOL   C37418122   6.777   6.044   3.468 -0.3758  0.3625 -0.7214
   35MOL   C37518123   6.971   6.081   3.758  0.4332 -0.4587  0.0599
   35MOL   C37618124   7.080   6.057   3.669 -0.2084  0.6793 -0.2724
   35MOL   C37718125   7.214   6.045   3.705  0.2557  0.1741 -0.6129
   35MOL   C37818126   7.243   6.058   3.844 -0.2268 -0.2666  0.5072
   35MOL   C37918127   7.140   6.089   3.938 -0.4429  0.5279 -0.3627
   35MOL   C38018128   7.006   6.098   3.894 -0.3778 -0.2369  0.4816
   35MOL   H38118129   7.127   5.829   3.465  1.3414 -0.4078  0.7582
   35MOL   H38218130   7.263   5.909   3.406 -0.2052  3.2090 -0.3368
   35MOL   H38318131   7.004   6.027   3.342  1.0343 -0.3569 -1.9199
   35MOL   H38418132   6.691   6.097   3.842  0.2439 -0.7719  1.1127
   35MOL   H38518133   6.501   6.097   3.658  0.7447  3.6812  1.0320
   35MOL   H38618134   6.557   6.046   3.445  0.4277  0.2050  0.0169
   35MOL   H38718135   6.795   6.021   3.365  2.6426 -1.0171  0.0680
   35MOL   H38818136   7.288   6.030   3.627  0.8058  1.4802 -0.3615
   35MOL   H38918137   7.347   6.045   3.869  0.2647  2.1064 -0.2165
   35MOL   H39018138   7.159   6.082   4.045 -1.2136  0.8350 -0.2009
   35MOL   H39118139   6.924   6.115   3.963  0.2937  0.6371  1.0772
   35MOL   C39218140   7.160   6.171   3.367 -0.7377 -0.0649  0.7439
   35MOL   C39318141   7.065   6.293   3.377  0.7076 -0.3311 -0.0370
   35MOL   N39418142   7.136   6.417   3.424 -0.7313  0.7019 -0.7064
   35MOL   C39518143   7.124   6.476   3.550  0.2403  0.2095 -1.4105
   35MOL   C39618144   7.196   6.598   3.556 -0.1989 -0.4528  1.0104
   35MOL   C39718145   7.208   6.666   3.681  0.1416  0.0514  0.0936
   35MOL   C39818146   7.138   6.619   3.796  0.7575 -0.0714 -0.1915
   35MOL   C39918147   7.061   6.504   3.791 -0.2619  0.3777  0.0047
   35MOL   C40018148   7.059   6.431   3.669 -0.2013  0.6193  0.3194
   35MOL   C40118149   7.252   6.612   3.428 -0.3677  0.5849 -0.9947
   35MOL   C40218150   7.219   6.496   3.348  0.2371 -0.4098  0.0463
   35MOL   C40318151   7.270   6.490   3.216  0.1905  0.1550 -0.7109
   35MOL   C40418152   7.341   6.591   3.162 -0.4036 -0.3757 -0.4610
   35MOL   C40518153   7.369   6.704   3.241 -0.3119  0.1156  0.4658
   35MOL   C40618154   7.335   6.708   3.373 -0.3011  0.7966 -0.4288
   35MOL   H40718155   7.248   6.175   3.431 -0.2491  0.8476  0.0365
   35MOL   H40818156   7.199   6.163   3.265  0.1917 -1.8226  1.2162
   35MOL   H40918157   6.995   6.279   3.459  1.1189  1.1752  0.5889
   35MOL   H41018158   7.277   6.749   3.675 -1.4504  1.4154 -0.0565
   35MOL   H41118159   7.153   6.666   3.892 -0.6471 -0.5536  0.2676
   35MOL   H41218160   7.023   6.453   3.878  1.1277  0.1753  0.5161
   35MOL   H41318161   7.005   6.337   3.673 -0.9497  1.0777  1.2856
   35MOL   H41418162   7.250   6.396   3.166 -1.1298 -0.8910  1.6898
   35MOL   H41518163   7.385   6.599   3.064 -0.3554  0.7663 -0.3542
   35MOL   H41618164   7.443   6.775   3.206 -0.6640 -0.1586 -0.8620
   35MOL   H41718165   7.356   6.793   3.436 -0.3110 -1.5781  2.9114
   35MOL   C41818166   6.980   6.324   3.255  0.6471  0.6944 -0.4901
   35MOL   C41918167   6.888   6.444   3.247  0.3784 -0.9492  0.4451
   35MOL   N42018168   6.865   6.485   3.109  0.4938 -0.0340  0.0562
   35MOL   C42118169   6.901   6.605   3.056 -0.4751  0.3910 -0.1384
   35MOL   C42218170   6.850   6.621   2.924  0.3010 -0.1806  0.6641
   35MOL   C42318171   6.871   6.738   2.847  0.3419  0.7548 -0.1798
   35MOL   C42418172   6.944   6.844   2.901  0.0813  0.0840 -0.7353
   35MOL   C42518173   6.993   6.829   3.032  0.4674 -0.0150 -0.5991
   35MOL   C42618174   6.979   6.710   3.102  0.1204  0.2064 -0.3104
   35MOL   C42718175   6.773   6.499   2.903 -0.0057 -0.4058 -0.0235
   35MOL   C42818176   6.791   6.417   3.015 -1.0413 -0.0753  0.6494
   35MOL   C42918177   6.734   6.290   3.026  0.5135 -0.0045  0.3585
   35MOL   C43018178   6.648   6.251   2.924  0.1589  0.0725  0.0993
   35MOL   C43118179   6.635   6.324   2.805  0.2210  0.2088 -0.5461
   35MOL   C43218180   6.694   6.450   2.799  0.1910 -0.0943 -0.0358
   35MOL   H43318181   7.046   6.334   3.169 -0.0323  0.0720 -1.0944
   35MOL   H43418182   6.925   6.238   3.216  0.2570  1.4433 -1.6035
   35MOL   H43518183   6.945   6.527   3.289 -0.2422 -0.4403  0.2929
   35MOL   H43618184   6.827   6.743   2.748 -0.9772  0.7886  0.3875
   35MOL   H43718185   6.967   6.932   2.843  0.9020 -0.5471 -1.4046
   35MOL   H43818186   7.059   6.908   3.067  0.8861 -1.5783  2.2488
   35MOL   H43918187   7.023   6.710   3.201 -0.7155  0.7037  0.0709
   35MOL   H44018188   6.752   6.221   3.107 -0.6174  0.6730  1.2114
   35MOL   H44118189   6.597   6.156   2.918  0.0206  0.1364  0.2542
   35MOL   H44218190   6.572   6.293   2.723  2.1582  0.8435 -2.3151
   35MOL   H44318191   6.687   6.497   2.702 -0.4947 -0.4871 -0.1724
   35MOL   C44418192   6.753   6.420   3.319 -0.1641  0.0262  0.2030
   35MOL   C44518193   6.719   6.526   3.433 -0.2812  0.2088 -0.0964
   35MOL   N44618194   6.706   6.659   3.382  0.4885  0.3625 -1.0939
   35MOL   C44718195   6.785   6.768   3.428  0.3335  0.0991  0.1717
   35MOL   C44818196   6.752   6.887   3.349 -1.0804  0.0100  0.2200
   35MOL   C44918197   6.821   7.005   3.374 -0.4323 -0.0155 -0.2001
   35MOL   C45018198   6.929   7.010   3.466 -0.0286  0.4594 -0.3979
   35MOL   C45118199   6.963   6.900   3.543 -0.5534  0.8538 -0.3671
   35MOL   C45218200   6.888   6.779   3.526 -0.7529 -0.6985 -0.4402
   35MOL   C45318201   6.640   6.853   3.272  0.2285  0.4509  0.0520
   35MOL   C45418202   6.614   6.715   3.291 -0.1790 -0.0253 -0.5657
   35MOL   C45518203   6.511   6.656   3.215 -0.5797  0.5631  0.3276
   35MOL   C45618204   6.417   6.729   3.138 -0.5152 -0.1705 -0.9055
   35MOL   C45718205   6.447   6.864   3.115 -0.6716  0.2187  0.4429
   35MOL   C45818206   6.559   6.917   3.179  0.0140  0.2165  0.6030
   35MOL   H45918207   6.670   6.404   3.251 -0.4953 -1.6965  0.9789
   35MOL   H46018208   6.763   6.322   3.367  2.1559  0.6428  1.0791
   35MOL   H46118209   6.804   6.523   3.502 -0.2200  0.4553 -0.1620
   35MOL   H46218210   6.800   7.091   3.313  3.2303 -0.0690 -1.6420
   35MOL   H46318211   6.975   7.107   3.475 -1.4481  1.4751 -3.3436
   35MOL   H46418212   7.043   6.906   3.615 -0.4521  3.3807 -0.6273
   35MOL   H46518213   6.925   6.693   3.582  0.3161  0.1333  0.1531
   35MOL   H46618214   6.486   6.551   3.220 -0.6552  0.6364  1.5805
   35MOL   H46718215   6.332   6.687   3.087 -0.2339 -1.5066 -0.2777
   35MOL   H46818216   6.387   6.925   3.050 -2.6887 -0.2624  1.8142
   35MOL   H46918217   6.581   7.015   3.138 -1.2930  0.1042 -0.4159
   35MOL   C47018218   6.601   6.481   3.514 -0.0521 -0.9835  0.3479
   35MOL   C47118219   6.585   6.539   3.658 -0.4891  1.0738 -0.4252
   35MOL   N47218220   6.451   6.584   3.681  0.6582  0.4767 -0.4436
   35MOL   C47318221   6.409   6.712   3.721 -0.1071 -0.1093  0.1201
   35MOL   C47418222   6.270   6.713   3.725 -0.4139 -0.4028 -0.5354
   35MOL   C47518223   6.202   6.830   3.755 -0.1358 -0.2348 -0.5207
   35MOL   C47618224   6.270   6.948   3.786  0.1893 -0.4214  0.5159
   35MOL   C47718225   6.409   6.947   3.783 -0.3647 -0.0980  0.2328
   35MOL   C47818226   6.483   6.827   3.753  0.5738  0.0509 -0.0875
   35MOL   C47918227   6.216   6.582   3.680  0.3046 -0.0193 -0.6589
   35MOL   C48018228   6.336   6.504   3.661  0.0151 -0.4556  0.4082
   35MOL   C48118229   6.327   6.365   3.631  0.1097  0.2950  0.0555
   35MOL   C48218230   6.200   6.308   3.595  0.4417  0.2600  0.2933
   35MOL   C48318231   6.086   6.395   3.606 -0.4128 -0.1365  0.1852
   35MOL   C48418232   6.092   6.523   3.657 -0.2763  0.3928 -0.2939
   35MOL   H48518233   6.515   6.506   3.453 -0.6000  0.0990  1.5413
   35MOL   H48618234   6.600   6.372   3.523  2.2577 -1.1859 -1.3256
   35MOL   H48718235   6.644   6.631   3.652  1.3520 -0.1070 -1.0156
   35MOL   H48818236   6.095   6.819   3.745 -0.1506 -0.5545 -0.0421
   35MOL   H48918237   6.215   7.032   3.825 -0.3326 -1.0327  1.1064
   35MOL   H49018238   6.461   7.038   3.809  4.0477 -2.0806 -1.0325
   35MOL   H49118239   6.590   6.830   3.765  0.4430  0.8670  0.9086
   35MOL   H49218240   6.420   6.309   3.623  0.5097  1.0154 -0.4260
   35MOL   H49318241   6.204   6.206   3.560 -3.1677 -0.2604  1.1558
   35MOL   H49418242   5.984   6.367   3.586 -0.0461 -1.6920  0.4236
   35MOL   H49518243   6.000   6.577   3.670  0.5208  1.2074  2.1854
   35MOL   C49618244   6.643   6.448   3.773  0.6114 -0.3290 -0.7114
   35MOL   C49718245   6.585   6.485   3.914  0.0319  0.3966 -0.4223
   35MOL   N49818246   6.643   6.384   4.002  0.3148  0.6370  0.3175
   35MOL   C49918247   6.597   6.255   4.025 -0.2707  0.3063  0.6890
   35MOL   C50018248   6.684   6.184   4.109 -0.1817  0.0744 -0.2581
   35MOL   C50118249   6.644   6.057   4.154 -0.0996  0.6737 -0.0213
   35MOL   C50218250   6.524   5.995   4.104  0.8159 -0.8579 -0.0225
   35MOL   C50318251   6.439   6.065   4.013  0.0932  0.2769 -0.4573
   35MOL   C50418252   6.475   6.196   3.974 -0.0388  0.2684  0.0096
   35MOL   C50518253   6.797   6.269   4.133  0.3478  0.3474  0.1741
   35MOL   C50618254   6.767   6.394   4.067 -0.4915  0.3156 -0.4415
   35MOL   C50718255   6.855   6.504   4.081  0.3359 -0.4782  0.2409
   35MOL   C50818256   6.967   6.496   4.165 -0.9611 -0.3717  0.2582
   35MOL   C50918257   6.998   6.370   4.220 -0.1172  0.4353  0.0107
   35MOL   C51018258   6.912   6.259   4.203 -0.3183  0.1412 -0.2574
   35MOL   H51118259   6.628   6.343   3.745  1.3418 -0.3825 -0.9186
   35MOL   H51218260   6.750   6.466   3.781  0.2430  0.1909  4.7286
   35MOL   H51318261   6.477   6.492   3.917  0.0500  0.3669  0.3567
   35MOL   H51418262   6.712   6.009   4.223  1.2485 -0.0784 -1.8094
   35MOL   H51518263   6.487   5.896   4.124  1.2515 -0.8464  0.8708
   35MOL   H51618264   6.348   6.028   3.970 -0.5509 -0.9713  1.8895
   35MOL   H51718265   6.405   6.249   3.911  0.3508  0.1440 -0.5279
   35MOL   H51818266   6.826   6.604   4.050  0.2400 -0.0223  1.7796
   35MOL   H51918267   7.031   6.582   4.174  1.0953 -1.9915  1.6155
   35MOL   H52018268   7.092   6.364   4.273 -0.9153  0.6314  1.4593
   35MOL   H52118269   6.942   6.171   4.259 -1.7755  0.5142  1.1724
   35MOL   H52218270   6.621   6.586   3.938  0.4606  0.9188 -3.0344
   36MOL     C118271   5.590   1.058   4.413 -0.1419 -0.0758  0.5238
   36MOL     C218272   5.491   0.966   4.485 -0.5580  0.3628 -0.4216
   36MOL     N318273   5.369   1.040   4.517  0.1486  0.3954 -0.1639
   36MOL     C418274   5.305   1.055   4.644 -0.0271 -0.3084 -0.3020
   36MOL     C518275   5.176   1.113   4.634 -0.0317  0.5275  0.1976
   36MOL     C618276   5.102   1.127   4.751 -0.8015 -0.3457  0.3173
   36MOL     C718277   5.156   1.106   4.879 -0.0198 -0.2098 -0.6183
   36MOL     C818278   5.287   1.060   4.891 -0.0305  0.1548 -0.1353
   36MOL     C918279   5.359   1.029   4.771  0.2167 -0.4492  0.3369
   36MOL    C1018280   5.153   1.127   4.491  0.1734  0.7509  0.0994
   36MOL    C1118281   5.276   1.096   4.421 -0.0294 -1.1766  0.4380
   36MOL    C1218282   5.273   1.099   4.278  0.2380 -0.2618 -0.1363
   36MOL    C1318283   5.154   1.115   4.208  0.2491  1.2165  0.0377
   36MOL    C1418284   5.038   1.151   4.276  0.6530  0.0793  0.0729
   36MOL    C1518285   5.039   1.163   4.414  0.4093  0.1885  0.2496
   36MOL    H1618286   5.657   1.004   4.346  0.5758 -0.4521  1.5305
   36MOL    H1718287   5.651   1.121   4.477 -0.2390  0.7246 -0.1660
   36MOL    H1818288   5.545   0.936   4.575  0.2431 -0.8886 -1.3185
   36MOL    H1918289   4.998   1.155   4.747 -0.0404  2.6471  0.0145
   36MOL    H2018290   5.091   1.126   4.963  1.7489  1.0810  0.5044
   36MOL    H2118291   5.330   1.034   4.986  1.2403 -1.0921 -1.0254
   36MOL    H2218292   5.459   0.991   4.783 -0.5646 -2.3063  1.0497
   36MOL    H2318293   5.360   1.058   4.229 -2.0836 -4.1775 -1.2210
   36MOL    H2418294   5.158   1.102   4.101  1.4154  1.7068  0.0194
   36MOL    H2518295   4.949   1.166   4.217 -0.5631  0.3667  1.9458
   36MOL    H2618296   4.944   1.179   4.463  1.0057  2.5021  0.7375
   36MOL    H2718297   5.537   1.123   4.344 -0.3750  2.1653  2.7451
   36MOL    C2818298   5.464   0.834   4.404  0.0388 -0.0423 -0.1844
   36MOL    C2918299   5.330   0.752   4.431 -0.6098 -0.4727  0.0770
   36MOL    N3018300   5.306   0.652   4.330  0.4164  0.7926  0.1871
   36MOL    C3118301   5.199   0.653   4.244  0.6628  0.4475  0.2001
   36MOL    C3218302   5.198   0.536   4.166 -0.2089  1.1634 -0.4916
   36MOL    C3318303   5.092   0.523   4.068  0.0594  0.7230 -0.7643
   36MOL    C3418304   4.993   0.619   4.050 -0.1046 -0.2580  0.3299
   36MOL    C3518305   5.002   0.735   4.126  0.0542  0.0726 -0.0092
   36MOL    C3618306   5.103   0.749   4.224  0.3532  0.6137 -0.2091
   36MOL    C3718307   5.314   0.458   4.206 -0.5969  0.6051 -0.1036
   36MOL    C3818308   5.384   0.539   4.298  0.1488  0.2709 -0.5400
   36MOL    C3918309   5.516   0.498   4.342  0.4593 -0.3469  0.0379
   36MOL    C4018310   5.576   0.378   4.300 -0.2646  0.0972 -0.2987
   36MOL    C4118311   5.501   0.296   4.217 -0.6754  0.0914 -0.5583
   36MOL    C4218312   5.372   0.333   4.172  0.1336 -0.4225 -0.3458
   36MOL    H4318313   5.464   0.853   4.297 -1.3618 -3.3102 -0.8025
   36MOL    H4418314   5.553   0.771   4.412 -0.0847 -0.3148 -0.9446
   36MOL    H4518315   5.251   0.826   4.439 -2.3239 -2.2645  0.2833
   36MOL    H4618316   5.086   0.433   4.008  0.7620  0.8612 -1.0485
   36MOL    H4718317   4.920   0.616   3.970 -0.0910 -0.5918  0.3301
   36MOL    H4818318   4.933   0.815   4.107 -0.8025 -0.4193  0.9678
   36MOL    H4918319   5.094   0.840   4.282 -0.8425  0.6920 -0.5038
   36MOL    H5018320   5.568   0.560   4.415  0.6193 -0.1783 -0.2187
   36MOL    H5118321   5.671   0.346   4.340 -0.4100 -1.4993 -1.1565
   36MOL    H5218322   5.553   0.208   4.183 -0.9922 -1.2761  2.3242
   36MOL    H5318323   5.313   0.277   4.100  0.3636  0.7148 -1.4340
   36MOL    C5418324   5.333   0.681   4.570  0.0488 -1.0497 -0.2614
   36MOL    C5518325   5.193   0.618   4.604 -0.0070 -0.8193 -0.1788
   36MOL    N5618326   5.206   0.520   4.719  0.4268 -0.0527  0.2491
   36MOL    C5718327   5.227   0.383   4.718 -0.0555 -0.0519 -0.1437
   36MOL    C5818328   5.224   0.333   4.851 -0.3660 -0.2759  0.5872
   36MOL    C5918329   5.228   0.193   4.869 -0.2448 -0.1986  0.4344
   36MOL    C6018330   5.225   0.112   4.759 -0.0099  0.1491  0.3348
   36MOL    C6118331   5.238   0.160   4.625  0.1355 -0.6223 -0.4083
   36MOL    C6218332   5.241   0.295   4.607  0.3980 -0.4045 -0.0896
   36MOL    C6318333   5.236   0.451   4.935  0.1923  0.1648  0.5497
   36MOL    C6418334   5.219   0.558   4.849  0.4552 -0.3028  0.0541
   36MOL    C6518335   5.231   0.689   4.904 -0.3868  0.0702 -0.2822
   36MOL    C6618336   5.254   0.706   5.042 -0.1268  0.1952  0.3771
   36MOL    C6718337   5.266   0.597   5.125  0.2671 -0.7856 -0.7544
   36MOL    C6818338   5.254   0.473   5.075 -0.1274 -0.0226 -0.3641
   36MOL    H6918339   5.410   0.604   4.571  1.1621 -0.0641 -3.0059
   36MOL    H7018340   5.374   0.747   4.647 -0.5889 -1.6271  0.5630
   36MOL    H7118341   5.169   0.552   4.520 -0.7421 -0.1705 -0.4918
   36MOL    H7218342   5.213   0.153   4.969 -1.4843  1.5585  0.9686
   36MOL    H7318343   5.203   0.010   4.786  0.9103 -0.3249 -0.6604
   36MOL    H7418344   5.240   0.089   4.543 -1.6315  0.4651 -1.4306
   36MOL    H7518345   5.251   0.339   4.509  1.5235 -2.4175 -0.9175
   36MOL    H7618346   5.225   0.777   4.842 -0.8280 -1.4772 -2.5167
   36MOL    H7718347   5.267   0.804   5.086  3.1773  0.2473 -0.5596
   36MOL    H7818348   5.271   0.601   5.233  0.9542 -1.8929 -0.7429
   36MOL    H7918349   5.240   0.388   5.141 -1.0378  1.8598  1.9351
   36MOL    C8018350   5.072   0.718   4.615 -0.3857  0.4214 -0.1374
   36MOL    C8118351   4.945   0.661   4.689 -0.1373 -0.0407  0.3002
   36MOL    N8218352   4.850   0.771   4.702  0.8749  0.1658  0.1702
   36MOL    C8318353   4.807   0.810   4.827 -0.3523 -0.3606  0.4623
   36MOL    C8418354   4.709   0.908   4.806  0.3447 -0.4104  0.3842
   36MOL    C8518355   4.638   0.961   4.921 -0.7232 -0.7138 -0.3845
   36MOL    C8618356   4.670   0.921   5.056 -0.0086  0.1673  0.6529
   36MOL    C8718357   4.775   0.827   5.070 -0.1653 -0.1200 -0.3777
   36MOL    C8818358   4.842   0.772   4.962  0.1779  0.6418 -0.1800
   36MOL    C8918359   4.699   0.938   4.667  0.1286 -0.0818 -0.2199
   36MOL    C9018360   4.787   0.844   4.605  0.7230  0.2842  0.4080
   36MOL    C9118361   4.792   0.841   4.461 -0.3092  0.2231 -0.4284
   36MOL    C9218362   4.706   0.919   4.384  0.1919  0.0756  0.2838
   36MOL    C9318363   4.625   1.017   4.445 -0.0290  0.0161 -1.1576
   36MOL    C9418364   4.622   1.027   4.589  0.0390 -0.0590  0.2694
   36MOL    H9518365   5.107   0.802   4.675  1.0870  0.7350 -1.3866
   36MOL    H9618366   5.057   0.758   4.515 -0.9798 -1.1120 -0.6673
   36MOL    H9718367   4.978   0.630   4.789 -1.3813  0.0733  0.7619
   36MOL    H9818368   4.563   1.039   4.920 -0.7733 -0.7517  0.3302
   36MOL    H9918369   4.615   0.961   5.140 -1.7067 -0.2127 -0.2481
   36MOL   H10018370   4.804   0.806   5.172 -1.8616 -0.2461  0.0905
   36MOL   H10118371   4.937   0.724   4.985  0.9977  1.4589 -1.7337
   36MOL   H10218372   4.860   0.767   4.421 -0.5058 -0.3672  0.3099
   36MOL   H10318373   4.701   0.903   4.278 -1.2801 -0.8531  0.4723
   36MOL   H10418374   4.561   1.076   4.381  0.3373  0.5661 -1.0163
   36MOL   H10518375   4.556   1.091   4.646  1.7353  0.8235  1.2721
   36MOL   C10618376   4.886   0.541   4.623  0.5273 -0.4922 -0.1754
   36MOL   C10718377   4.795   0.457   4.710 -0.4323 -0.4045 -0.8975
   36MOL   N10818378   4.719   0.364   4.622 -0.0226  0.1188  0.0009
   36MOL   C10918379   4.575   0.367   4.605 -0.2095 -0.6395 -0.3870
   36MOL   C11018380   4.543   0.273   4.503  0.1364  0.4661 -0.1226
   36MOL   C11118381   4.403   0.262   4.473 -0.2000  0.0103  0.3777
   36MOL   C11218382   4.308   0.348   4.533  0.7673  0.2137 -0.6427
   36MOL   C11318383   4.343   0.445   4.625  0.5803  0.1802 -0.2762
   36MOL   C11418384   4.473   0.445   4.671  0.4555  0.4732 -0.1067
   36MOL   C11518385   4.661   0.217   4.457 -0.5438 -0.5745 -0.1166
   36MOL   C11618386   4.770   0.268   4.535  0.0479 -0.3376 -0.1103
   36MOL   C11718387   4.894   0.212   4.523 -0.6587  0.7937  0.0142
   36MOL   C11818388   4.913   0.108   4.429 -0.0939  0.1489 -0.1400
   36MOL   C11918389   4.813   0.071   4.346  0.0752 -0.2683 -0.3394
   36MOL   C12018390   4.683   0.120   4.357 -0.9146 -0.4049 -0.5648
   36MOL   H12118391   4.841   0.576   4.529 -0.2288  0.6983  0.6203
   36MOL   H12218392   4.957   0.475   4.574  0.0910 -0.9227 -0.2379
   36MOL   H12318393   4.723   0.522   4.759  2.6705  1.3461  1.4692
   36MOL   H12418394   4.374   0.181   4.408  1.4860  0.3635 -0.8509
   36MOL   H12518395   4.206   0.343   4.497  1.6505  0.3387 -3.3360
   36MOL   H12618396   4.274   0.517   4.666  1.0757  0.5878 -0.1479
   36MOL   H12718397   4.507   0.516   4.745 -2.1500  2.8504 -1.0658
   36MOL   H12818398   4.979   0.240   4.585 -0.2034  0.8230 -0.6198
   36MOL   H12918399   5.012   0.068   4.419 -0.2563 -0.6253  1.2285
   36MOL   H13018400   4.831   8.226   4.267 -1.5681  0.0191 -0.9833
   36MOL   H13118401   4.599   0.085   4.301 -1.5388  2.4113 -1.5038
   36MOL   C13218402   4.870   0.384   4.821 -0.0267 -0.0014 -0.0614
   36MOL   C13318403   4.792   0.297   4.919 -0.1929  0.1660 -0.4131
   36MOL   N13418404   4.879   0.223   5.013  0.1695 -0.2024  0.3800
   36MOL   C13518405   4.925   0.091   5.002 -0.5918 -0.1621  0.3228
   36MOL   C13618406   4.990   0.051   5.123  0.0409  0.1901  0.6195
   36MOL   C13718407   5.037   8.144   5.133 -0.9606 -0.1161 -0.2910
   36MOL   C13818408   5.032   8.049   5.028 -0.1019  0.4691  0.2949
   36MOL   C13918409   4.966   8.090   4.912 -0.2327  0.3283 -0.0388
   36MOL   C14018410   4.918   8.224   4.895 -0.7162  0.8403  0.1507
   36MOL   C14118411   4.984   0.166   5.205 -0.7147 -0.3437  0.2781
   36MOL   C14218412   4.925   0.272   5.132  0.0586 -0.3384  0.1692
   36MOL   C14318413   4.936   0.403   5.171  0.0584  1.0893  0.5405
   36MOL   C14418414   4.999   0.434   5.298 -0.3076 -0.2766  0.1888
   36MOL   C14518415   5.052   0.330   5.379 -0.3654  0.5500 -0.1432
   36MOL   C14618416   5.039   0.200   5.330 -0.1073 -0.3008 -0.2802
   36MOL   H14718417   4.949   0.326   4.773 -1.5911  0.0095 -2.7181
   36MOL   H14818418   4.920   0.460   4.882 -2.0449  1.5308 -0.2738
   36MOL   H14918419   4.758   0.217   4.854 -1.4069  0.1001  0.2929
   36MOL   H15018420   5.086   8.112   5.224  2.3284  2.2385 -1.1568
   36MOL   H15118421   5.074   7.952   5.052  0.6103  0.9864  1.1411
   36MOL   H15218422   4.962   8.022   4.829 -1.9936  2.4264 -1.7268
   36MOL   H15318423   4.873   0.017   4.799 -0.9532 -1.9820 -0.3757
   36MOL   H15418424   4.894   0.489   5.120 -0.9669  1.3638  1.8050
   36MOL   H15518425   5.013   0.536   5.331 -2.6524  0.5308 -1.1946
   36MOL   H15618426   5.113   0.349   5.466  0.2417  2.5164 -0.9638
   36MOL   H15718427   5.078   0.120   5.391  0.3806 -0.8825 -1.3416
   36MOL   C15818428   4.666   0.361   4.989 -0.5059 -0.3273 -0.2931
   36MOL   C15918429   4.584   0.258   5.077  0.3193  0.0670  0.3881
   36MOL   N16018430   4.522   0.326   5.196  0.4863  0.5303  0.1152
   36MOL   C16118431   4.556   0.310   5.328 -0.0213 -0.4147 -0.1038
   36MOL   C16218432   4.471   0.384   5.415  0.3354  0.4090 -0.4190
   36MOL   C16318433   4.490   0.379   5.557 -0.1166  0.5499  0.0719
   36MOL   C16418434   4.590   0.292   5.620 -0.4084 -1.1899 -0.2537
   36MOL   C16518435   4.681   0.224   5.530  0.3947  0.4919 -0.1086
   36MOL   C16618436   4.659   0.233   5.389  0.2555 -0.3158 -0.1986
   36MOL   C16718437   4.383   0.462   5.328 -0.4068  0.5219  0.1400
   36MOL   C16818438   4.417   0.422   5.193  0.2249  0.3310  0.1722
   36MOL   C16918439   4.338   0.477   5.088 -0.5502 -0.3098  0.2608
   36MOL   C17018440   4.237   0.569   5.110  0.3822 -0.0549 -0.6127
   36MOL   C17118441   4.195   0.609   5.237  0.5881  0.3357 -0.3794
   36MOL   C17218442   4.272   0.553   5.345 -0.9300  0.6957  0.2235
   36MOL   H17318443   4.702   0.450   5.042 -1.0898  0.1062 -0.6263
   36MOL   H17418444   4.606   0.400   4.908  0.2350 -0.7656 -1.0611
   36MOL   H17518445   4.647   0.178   5.118 -0.1010  0.0903  1.0958
   36MOL   H17618446   4.430   0.440   5.622  0.9541  1.6123  0.0751
   36MOL   H17718447   4.605   0.295   5.727 -0.1712  1.4998 -0.3278
   36MOL   H17818448   4.768   0.170   5.564  0.8422  1.9207  1.1026
   36MOL   H17918449   4.729   0.177   5.328  0.8599  0.4111 -0.1869
   36MOL   H18018450   4.365   0.455   4.986 -0.1087 -2.4300  0.8044
   36MOL   H18118451   4.195   0.622   5.026  1.9899 -0.0110 -1.4083
   36MOL   H18218452   4.111   0.671   5.263 -1.6094 -3.4209  1.9485
   36MOL   H18318453   4.252   0.588   5.445 -2.0685  0.8699 -0.0514
   36MOL   C18418454   4.471   0.180   5.002  0.3355  0.4531 -0.2739
   36MOL   C18518455   4.406   0.071   5.088  0.3614 -0.5329 -0.3713
   36MOL   N18618456   4.280   0.036   5.029 -0.3218 -0.6192 -0.3112
   36MOL   C18718457   4.159   0.048   5.101  0.5766  0.2662 -0.1029
   36MOL   C18818458   4.058   8.215   5.028 -0.0249  0.4145 -0.0736
   36MOL   C18918459   3.932   8.208   5.084 -0.0880  0.4495 -0.5869
   36MOL   C19018460   3.902   0.031   5.214  0.2760 -1.0248  0.3554
   36MOL   C19118461   4.005   0.077   5.289 -0.7406  0.0354  0.6024
   36MOL   C19218462   4.139   0.094   5.232 -0.5198 -0.1164  0.2386
   36MOL   C19318463   4.115   8.177   4.902  0.3415 -0.0469 -0.1051
   36MOL   C19418464   4.252   8.208   4.904 -0.0836 -0.4980  0.1116
   36MOL   C19518465   4.334   8.170   4.791  0.5289 -0.0561 -0.3388
   36MOL   C19618466   4.278   8.118   4.672 -0.4670 -0.3416 -0.4396
   36MOL   C19718467   4.145   8.076   4.679 -0.2601 -0.0490  0.4932
   36MOL   C19818468   4.062   8.114   4.788 -0.5576  0.3380  0.6044
   36MOL   H19918469   4.393   0.247   4.965  0.7636  0.9527 -0.2720
   36MOL   H20018470   4.509   0.135   4.911  1.4625  0.1844  0.3185
   36MOL   H20118471   4.398   0.105   5.191  2.5273  0.7013 -0.5784
   36MOL   H20218472   3.852   8.151   5.039  1.3004 -0.6548 -1.7060
   36MOL   H20318473   3.800   0.018   5.248 -0.0238 -0.3804 -0.2917
   36MOL   H20418474   3.985   0.115   5.388 -2.9427  0.3775  0.0595
   36MOL   H20518475   4.215   0.136   5.296 -0.7296  0.6562 -0.0143
   36MOL   H20618476   4.440   8.185   4.804  0.2858  0.7298  0.8151
   36MOL   H20718477   4.349   8.109   4.591 -0.9486 -1.5021 -0.7450
   36MOL   H20818478   4.112   8.026   4.589  1.2675  0.3136 -0.2784
   36MOL   H20918479   3.956   8.094   4.787 -0.6028  0.6263 -1.9213
   36MOL   C21018480   4.500   8.180   5.096 -0.5627  0.3973 -0.0296
   36MOL   C21118481   4.438   8.054   5.164  0.3853  0.3504  0.8144
   36MOL   N21218482   4.512   7.935   5.134 -0.0370  0.2835 -0.9278
   36MOL   C21318483   4.471   7.834   5.047 -0.0977  0.4981  0.1655
   36MOL   C21418484   4.546   7.717   5.069  0.1724 -0.3140 -0.3867
   36MOL   C21518485   4.508   7.596   4.998 -0.4357 -0.3063 -0.5042
   36MOL   C21618486   4.398   7.592   4.911 -1.3612  0.3831 -0.4286
   36MOL   C21718487   4.328   7.708   4.884 -0.3705 -0.6204 -0.4387
   36MOL   C21818488   4.359   7.824   4.965 -0.8891  0.2420 -0.2994
   36MOL   C21918489   4.653   7.755   5.161  0.0467  0.4097  1.0330
   36MOL   C22018490   4.624   7.887   5.201 -0.1913  0.0789  0.5051
   36MOL   C22118491   4.714   7.945   5.289 -0.5635  0.9921 -0.6100
   36MOL   C22218492   4.824   7.874   5.343  0.5960 -0.3879 -0.2256
   36MOL   C22318493   4.847   7.740   5.294  0.0673 -0.2699 -0.0154
   36MOL   C22418494   4.753   7.682   5.212  0.3967 -0.2137  0.6292
   36MOL   H22518495   4.538   8.152   4.997 -0.7701 -1.2651  0.3473
   36MOL   H22618496   4.583   8.214   5.159 -0.7455  3.0353 -1.1141
   36MOL   H22718497   4.343   8.038   5.114  1.4515  1.7376 -1.7656
   36MOL   H22818498   4.561   7.502   5.012 -1.3230 -0.6680  0.5557
   36MOL   H22918499   4.365   7.502   4.863 -2.8006 -0.6524  2.4075
   36MOL   H23018500   4.232   7.714   4.836 -1.3467  1.2546  1.6709
   36MOL   H23118501   4.290   7.905   4.953 -2.9549 -1.5973 -1.1086
   36MOL   H23218502   4.702   8.047   5.324  1.1934  0.6565  1.0659
   36MOL   H23318503   4.888   7.919   5.418 -0.9449 -0.7243  1.3242
   36MOL   H23418504   4.936   7.688   5.327 -0.3079 -1.4508 -0.8274
   36MOL   H23518505   4.774   7.584   5.172  0.8849  0.0972  0.1079
   36MOL   C23618506   4.408   8.077   5.313  0.3255  0.4206 -0.0463
   36MOL   C23718507   4.354   7.950   5.387  1.0339 -0.3459 -0.6064
   36MOL   N23818508   4.364   7.966   5.537 -0.1148  0.1935 -0.1509
   36MOL   C23918509   4.457   7.902   5.619  0.3857 -0.4043  0.1373
   36MOL   C24018510   4.434   7.944   5.752  0.8061  0.7701 -0.0459
   36MOL   C24118511   4.502   7.880   5.856  0.4231 -0.1091 -0.7044
   36MOL   C24218512   4.602   7.781   5.823  0.1695  0.3577  0.1075
   36MOL   C24318513   4.635   7.751   5.689  0.2546 -0.3977 -0.6463
   36MOL   C24418514   4.563   7.811   5.591 -0.2594 -0.6384 -0.0767
   36MOL   C24518515   4.325   8.042   5.748 -0.1022 -0.3751  0.0715
   36MOL   C24618516   4.290   8.050   5.616  1.3238 -0.5145 -0.3759
   36MOL   C24718517   4.206   8.149   5.569 -0.1621 -0.5784 -0.5912
   36MOL   C24818518   4.126   8.214   5.664  0.3704 -0.0501 -0.0970
   36MOL   C24918519   4.160   8.206   5.805  0.1833 -0.3814 -0.2814
   36MOL   C25018520   4.255   8.113   5.846 -0.3170 -0.0097  0.2288
   36MOL   H25118521   4.489   8.121   5.372 -0.6818  1.5904  0.4670
   36MOL   H25218522   4.326   8.148   5.320  0.8487  0.8156  2.5358
   36MOL   H25318523   4.414   7.864   5.358  0.0221 -0.5169 -2.2832
   36MOL   H25418524   4.488   7.911   5.958  3.1109 -1.3287  0.0973
   36MOL   H25518525   4.647   7.737   5.911 -1.0392  0.0728  0.5963
   36MOL   H25618526   4.711   7.678   5.667 -1.0605 -1.0548 -3.2563
   36MOL   H25718527   4.582   7.776   5.491 -0.7101 -1.5355  0.1469
   36MOL   H25818528   4.182   8.159   5.464  1.4076 -1.1974 -1.0138
   36MOL   H25918529   4.049   0.053   5.627 -1.2760 -0.9832  1.5769
   36MOL   H26018530   4.105   0.032   5.882 -0.0801  1.8519 -1.9645
   36MOL   H26118531   4.272   8.100   5.952 -3.5574  1.3279  1.0062
   36MOL   C26218532   4.218   7.912   5.330  0.1772  0.3778 -0.1886
   36MOL   C26318533   4.137   7.805   5.401 -0.4133  0.6282  0.5763
   36MOL   N26418534   4.001   7.791   5.344 -0.3774 -0.3241 -0.3788
   36MOL   C26518535   3.900   7.877   5.382 -0.4096 -0.8222  0.8414
   36MOL   C26618536   3.784   7.845   5.305 -0.9267 -0.2306  0.1713
   36MOL   C26718537   3.675   7.925   5.319  0.2373 -0.5522 -0.2911
   36MOL   C26818538   3.669   8.037   5.409 -0.7128  0.7726 -0.2641
   36MOL   C26918539   3.781   8.069   5.492 -0.4645  0.2822  0.2933
   36MOL   C27018540   3.895   7.982   5.480  0.5162  0.1109  0.7048
   36MOL   C27118541   3.814   7.733   5.223  0.0635  0.1580  0.3767
   36MOL   C27218542   3.956   7.715   5.235 -0.3826  0.4052 -0.1019
   36MOL   C27318543   4.017   7.622   5.149 -0.4901  0.0295 -0.4909
   36MOL   C27418544   3.942   7.546   5.056 -0.1754 -0.1355  0.0161
   36MOL   C27518545   3.803   7.548   5.054  0.2185  0.7219 -0.1261
   36MOL   C27618546   3.739   7.645   5.135  0.0703  0.3619  0.2607
   36MOL   H27718547   4.149   7.997   5.334 -1.1678 -0.5452 -2.4199
   36MOL   H27818548   4.223   7.887   5.224 -1.0968  1.5916 -0.5577
   36MOL   H27918549   4.120   7.847   5.500 -2.4518  0.1626  0.4593
   36MOL   H28018550   3.582   7.905   5.269 -1.6569  2.6259  1.7374
   36MOL   H28118551   3.572   8.083   5.417 -1.3656 -0.7691  1.0679
   36MOL   H28218552   3.777   8.159   5.553 -0.1327  0.8619 -0.5355
   36MOL   H28318553   3.987   8.010   5.529  0.4899  1.5051 -0.0146
   36MOL   H28418554   4.123   7.603   5.147 -0.6438 -0.9019  0.1257
   36MOL   H28518555   3.996   7.490   4.982  0.4223 -0.5486  0.7579
   36MOL   H28618556   3.748   7.499   4.975  1.3785 -0.3739 -0.2532
   36MOL   H28718557   3.634   7.666   5.118  0.6914  1.2997 -2.7917
   36MOL   C28818558   4.213   7.672   5.422  0.0539  0.2776 -0.1584
   36MOL   C28918559   4.198   7.631   5.567  0.5010  0.0062  0.4734
   36MOL   N29018560   4.056   7.616   5.608  0.4028  0.0018 -0.1796
   36MOL   C29118561   3.975   7.696   5.682  0.3480  0.5418  0.4778
   36MOL   C29218562   3.845   7.639   5.690 -0.5628 -0.6016  0.2939
   36MOL   C29318563   3.747   7.700   5.768  0.0623 -0.3684  0.5476
   36MOL   C29418564   3.776   7.825   5.823 -0.0614  0.4017 -0.2313
   36MOL   C29518565   3.907   7.875   5.821  0.5477  0.0827  0.3832
   36MOL   C29618566   4.006   7.810   5.753 -1.1221 -0.5861 -0.0034
   36MOL   C29718567   3.846   7.511   5.624 -0.0035  0.5273 -0.2130
   36MOL   C29818568   3.975   7.503   5.561  0.5510 -0.2446 -0.8141
   36MOL   C29918569   4.001   7.389   5.477  0.2245 -0.6965 -0.9228
   36MOL   C30018570   3.908   7.285   5.461 -0.6246 -0.2964 -0.4878
   36MOL   C30118571   3.787   7.295   5.533  0.5895 -0.2135 -0.7491
   36MOL   C30218572   3.760   7.402   5.624 -0.1400  0.1013  0.0357
   36MOL   H30318573   4.180   7.588   5.361 -0.6499 -0.4887  1.2670
   36MOL   H30418574   4.322   7.683   5.418  0.3126 -2.1270 -0.4209
   36MOL   H30518575   4.240   7.710   5.630  1.7674 -1.5885  1.6878
   36MOL   H30618576   3.642   7.676   5.777 -0.0349 -0.8733 -1.5685
   36MOL   H30718577   3.703   7.882   5.877  1.2061  0.3460  1.5811
   36MOL   H30818578   3.931   7.966   5.874 -2.8418 -0.0358  2.2984
   36MOL   H30918579   4.108   7.843   5.759 -1.6301  0.7196  1.9298
   36MOL   H31018580   4.096   7.372   5.428  0.7542  2.0518 -0.8761
   36MOL   H31118581   3.927   7.195   5.405  0.0177 -0.0502 -0.6683
   36MOL   H31218582   3.724   7.208   5.518  1.7292 -1.0723 -0.5998
   36MOL   H31318583   3.672   7.402   5.687  1.0516  0.4550  1.7152
   36MOL   C31418584   4.291   7.509   5.590 -0.6315 -0.1518 -0.6212
   36MOL   C31518585   4.298   7.466   5.742  0.6396  0.0841 -0.6757
   36MOL   N31618586   4.180   7.395   5.787 -0.0141 -0.2032 -0.0783
   36MOL   C31718587   4.089   7.440   5.884 -0.1351 -0.4687 -0.3288
   36MOL   C31818588   3.983   7.344   5.906  0.3493 -0.1809 -0.5798
   36MOL   C31918589   3.877   7.373   5.994 -0.0708  0.1098  0.2378
   36MOL   C32018590   3.879   7.491   6.070  0.8104  0.7121  0.1200
   36MOL   C32118591   3.990   7.580   6.068  0.3451  0.5109  0.3969
   36MOL   C32218592   4.087   7.558   5.965  0.2246  0.1603  0.1286
   36MOL   C32318593   4.017   7.236   5.823  0.3056 -0.3166  0.7201
   36MOL   C32418594   4.131   7.273   5.741 -0.2301  0.3710 -0.1205
   36MOL   C32518595   4.174   7.190   5.636  0.4620 -0.2797  0.0970
   36MOL   C32618596   4.116   7.063   5.623 -0.4829  0.5450  0.0913
   36MOL   C32718597   4.007   7.014   5.707 -0.0419  0.7529 -1.0995
   36MOL   C32818598   3.956   7.109   5.806  0.1913 -0.1861  0.2623
   36MOL   H32918599   4.271   7.424   5.525 -0.9328 -1.2009  0.8169
   36MOL   H33018600   4.394   7.533   5.566 -0.4073  0.5646  0.9566
   36MOL   H33118601   4.299   7.554   5.807 -0.0104  0.5548 -1.3011
   36MOL   H33218602   3.791   7.310   6.012  0.4773 -0.8025 -0.2644
   36MOL   H33318603   3.795   7.520   6.132 -2.2485 -0.4467 -3.3299
   36MOL   H33418604   4.000   7.660   6.140  1.0718  1.3093 -0.5666
   36MOL   H33518605   4.171   7.626   5.963 -0.6709  1.2695  0.0084
   36MOL   H33618606   4.250   7.220   5.567  3.2745 -0.3277  3.0432
   36MOL   H33718607   4.151   7.002   5.542 -1.4221 -1.1750  0.9474
   36MOL   H33818608   3.967   6.916   5.687  0.9944 -0.2271  1.4365
   36MOL   H33918609   3.863   7.094   5.859 -0.1158 -0.2522 -0.2986
   36MOL   C34018610   4.427   7.382   5.770 -0.7998  0.1343  0.2564
   36MOL   C34118611   4.446   7.325   5.914 -0.2592 -0.6039  0.3532
   36MOL   N34218612   4.541   7.214   5.916 -0.7188 -1.1873  0.3017
   36MOL   C34318613   4.511   7.076   5.922 -0.0618  0.1651 -0.6637
   36MOL   C34418614   4.626   6.995   5.914 -0.0938 -0.5160  0.0655
   36MOL   C34518615   4.621   6.853   5.913 -0.2678 -0.5662  0.0991
   36MOL   C34618616   4.493   6.795   5.924  0.4485 -0.2100  0.2696
   36MOL   C34718617   4.376   6.874   5.932 -0.2186 -0.9231  0.3685
   36MOL   C34818618   4.389   7.014   5.938 -0.3643  0.0658  0.5205
   36MOL   C34918619   4.735   7.087   5.906 -0.5882  0.3610 -0.4647
   36MOL   C35018620   4.680   7.220   5.902 -0.3192 -0.0830  0.1171
   36MOL   C35118621   4.762   7.329   5.886 -0.0494 -0.2378 -0.8173
   36MOL   C35218622   4.902   7.311   5.891 -0.0659  0.3412  0.3430
   36MOL   C35318623   4.959   7.182   5.899  0.5423  0.5550  0.3064
   36MOL   C35418624   4.873   7.072   5.895 -0.2477 -0.2468  0.0879
   36MOL   H35518625   4.425   7.295   5.705  0.7100 -0.1566  0.5677
   36MOL   H35618626   4.514   7.443   5.745 -1.2598  1.2938  1.4067
   36MOL   H35718627   4.349   7.298   5.956 -1.0978 -1.2221 -1.9420
   36MOL   H35818628   4.707   6.788   5.912 -0.7762 -1.2518 -0.3175
   36MOL   H35918629   4.486   6.688   5.908  0.6982  0.2008 -2.7038
   36MOL   H36018630   4.274   6.840   5.943 -1.4403  2.4741  0.2365
   36MOL   H36118631   4.298   7.074   5.936 -0.3828  0.0215 -0.4523
   36MOL   H36218632   4.713   7.425   5.894  2.0553  0.6279  2.5863
   36MOL   H36318633   4.972   7.393   5.898 -1.0178  1.1495  0.5716
   36MOL   H36418634   5.067   7.169   5.900  0.3454 -1.3225  0.7670
   36MOL   H36518635   4.918   6.973   5.894  0.0096 -0.1242 -1.8437
   36MOL   C36618636   4.482   7.447   6.004  0.2657  0.1681  0.2874
   36MOL   C36718637   4.545   7.430   6.148 -0.4936  0.0296  0.0804
   36MOL   N36818638   4.602   7.551   6.205 -0.2148 -0.6045  0.4961
   36MOL   C36918639   4.731   7.574   6.250  0.2586 -0.0797  0.8020
   36MOL   C37018640   4.752   7.712   6.275 -0.2157  0.3227  0.0333
   36MOL   C37118641   4.883   7.751   6.317  0.2468 -0.1668  0.3433
   36MOL   C37218642   4.989   7.663   6.308  0.0907 -0.3321  0.0248
   36MOL   C37318643   4.963   7.531   6.287 -0.0614 -0.3336 -0.5629
   36MOL   C37418644   4.834   7.486   6.261 -0.0216 -0.1713 -0.1433
   36MOL   C37518645   4.627   7.780   6.258 -0.3213  0.2762 -0.4989
   36MOL   C37618646   4.535   7.676   6.224 -0.0778  0.5855 -0.3877
   36MOL   C37718647   4.403   7.708   6.211 -0.4434  0.0310  0.2718
   36MOL   C37818648   4.357   7.838   6.206  0.7666 -0.3814 -0.0692
   36MOL   C37918649   4.448   7.943   6.234 -0.2969 -0.3748  0.3747
   36MOL   C38018650   4.585   7.914   6.267  0.3631  0.0804  0.4515
   36MOL   H38118651   4.536   7.529   5.956  0.2168  0.3283  0.5080
   36MOL   H38218652   4.382   7.487   6.025 -0.8256 -3.8764  3.3124
   36MOL   H38318653   4.623   7.355   6.131 -0.9133 -0.4037  0.0520
   36MOL   H38418654   4.896   7.854   6.346  1.8950 -0.0569 -0.7132
   36MOL   H38518655   5.090   7.688   6.336 -0.6145  0.0774  2.2937
   36MOL   H38618656   5.043   7.460   6.304  0.5075 -0.0856 -2.1033
   36MOL   H38718657   4.806   7.383   6.247  0.4889 -0.4652  0.9329
   36MOL   H38818658   4.334   7.627   6.188 -1.4788  1.8746 -3.6109
   36MOL   H38918659   4.255   7.864   6.180  0.1307 -3.5191 -0.9901
   36MOL   H39018660   4.414   8.045   6.235 -2.5054 -1.0786 -0.0489
   36MOL   H39118661   4.653   7.992   6.296  0.1649  0.1200  0.8178
   36MOL   C39218662   4.451   7.363   6.247  0.2118  0.0082  0.0450
   36MOL   C39318663   4.516   7.301   6.375  0.7257 -0.6683 -0.2840
   36MOL   N39418664   4.421   7.293   6.486 -0.3782 -0.4022  0.5441
   36MOL   C39518665   4.436   7.348   6.616  0.2199 -0.8562  0.4635
   36MOL   C39618666   4.344   7.295   6.705 -0.2777  0.3608 -0.1707
   36MOL   C39718667   4.358   7.337   6.839 -0.3041  0.7713 -0.1702
   36MOL   C39818668   4.463   7.424   6.881  0.4401  0.6173  0.3602
   36MOL   C39918669   4.562   7.463   6.791 -1.1651 -0.1627 -0.7241
   36MOL   C40018670   4.543   7.434   6.657  0.7915  0.7314  0.4889
   36MOL   C40118671   4.250   7.211   6.629  0.5733  0.5463  0.2297
   36MOL   C40218672   4.305   7.212   6.495 -0.3288 -0.1288 -0.0883
   36MOL   C40318673   4.239   7.130   6.400  0.1667  0.0199  0.4068
   36MOL   C40418674   4.119   7.065   6.427 -0.1853 -0.0502  0.7782
   36MOL   C40518675   4.072   7.070   6.558  0.3206 -0.7627  0.7873
   36MOL   C40618676   4.141   7.131   6.661  1.6429 -0.4998  0.1792
   36MOL   H40718677   4.395   7.450   6.282 -0.2640  0.6129 -2.1431
   36MOL   H40818678   4.371   7.310   6.195 -2.1748  1.6884  1.8601
   36MOL   H40918679   4.602   7.359   6.410  0.9329 -0.2098 -1.5611
   36MOL   H41018680   4.295   7.289   6.913  1.4103 -0.4585  0.5442
   36MOL   H41118681   4.468   7.438   6.988  1.2348 -0.6554  0.4985
   36MOL   H41218682   4.648   7.513   6.833 -1.0846 -0.7821 -0.1404
   36MOL   H41318683   4.615   7.477   6.589  0.0803  1.1988  0.0182
   36MOL   H41418684   4.285   7.116   6.303 -0.7605  0.4663 -0.1102
   36MOL   H41518685   4.072   7.006   6.350 -0.3374  1.7048 -0.5225
   36MOL   H41618686   3.981   7.015   6.577 -0.3610  0.1961  0.3103
   36MOL   H41718687   4.104   7.121   6.762  1.3983 -2.5974 -0.0891
   36MOL   C41818688   4.587   7.164   6.346 -0.2082 -0.2186 -0.2215
   36MOL   C41918689   4.594   7.048   6.444 -0.3650  0.3325 -0.4122
   36MOL   N42018690   4.613   6.928   6.360 -0.0553 -0.4353 -0.0246
   36MOL   C42118691   4.518   6.830   6.343 -0.5244  1.1700  0.5624
   36MOL   C42218692   4.573   6.724   6.262  0.3093 -0.1583  0.3046
   36MOL   C42318693   4.490   6.616   6.231  0.1684 -0.1911 -0.0089
   36MOL   C42418694   4.355   6.616   6.274 -0.6493  0.0826 -0.6405
   36MOL   C42518695   4.300   6.721   6.351 -0.1013  0.1426 -0.0402
   36MOL   C42618696   4.389   6.822   6.393 -0.2050  1.1616  0.9110
   36MOL   C42718697   4.710   6.755   6.235  0.1999  0.3659  0.3307
   36MOL   C42818698   4.734   6.885   6.294 -0.5704  0.7732 -0.1335
   36MOL   C42918699   4.854   6.947   6.271 -0.5045 -0.0709 -0.3920
   36MOL   C43018700   4.963   6.881   6.213 -0.3996  0.2375  0.6186
   36MOL   C43118701   4.944   6.751   6.156  0.3613 -0.1671 -0.1168
   36MOL   C43218702   4.811   6.694   6.163 -0.2634 -0.3889  0.2563
   36MOL   H43318703   4.542   7.121   6.257 -0.4613 -2.4810  0.9691
   36MOL   H43418704   4.687   7.194   6.316  0.0959  0.0581  1.0310
   36MOL   H43518705   4.495   7.036   6.488 -0.5498 -0.8190 -1.1221
   36MOL   H43618706   4.524   6.534   6.169  0.6551 -0.7506  0.9786
   36MOL   H43718707   4.292   6.532   6.248 -0.7711  0.3128 -1.1020
   36MOL   H43818708   4.194   6.724   6.371 -0.3496 -1.7566 -0.9371
   36MOL   H43918709   4.346   6.903   6.450  1.7377  2.7835  0.1565
   36MOL   H44018710   4.872   7.044   6.315 -2.3287 -0.3775  1.1357
   36MOL   H44118711   5.066   6.914   6.210 -0.2898 -0.1252  0.3698
   36MOL   H44218712   5.018   6.696   6.101  2.2740 -0.7859  2.9460
   36MOL   H44318713   4.793   6.592   6.134 -1.6134 -0.2696  0.6775
   36MOL   C44418714   4.696   7.072   6.560  0.2159  0.2551  0.7741
   36MOL   C44518715   4.693   6.954   6.669 -0.0822  0.1916 -0.2454
   36MOL   N44618716   4.801   6.977   6.774  0.1099 -0.0039 -1.4065
   36MOL   C44718717   4.917   6.898   6.790  0.0797 -0.4618  0.3579
   36MOL   C44818718   4.984   6.932   6.914  0.6420 -0.2610 -0.0080
   36MOL   C44918719   5.107   6.871   6.949 -0.5989 -0.7791  0.2309
   36MOL   C45018720   5.160   6.772   6.867 -0.1762  0.2873  0.1275
   36MOL   C45118721   5.090   6.734   6.753 -0.0953 -0.5108  0.7001
   36MOL   C45218722   4.970   6.799   6.710  0.4178  0.0640 -0.8379
   36MOL   C45318723   4.907   7.040   6.968 -0.1736  0.6490 -0.0591
   36MOL   C45418724   4.799   7.068   6.878  0.1206  0.2774  1.0569
   36MOL   C45518725   4.713   7.178   6.904  0.1525  0.0605  0.6942
   36MOL   C45618726   4.720   7.255   7.018  0.0334  0.6066  0.6821
   36MOL   C45718727   4.824   7.218   7.108  0.5042 -0.5033 -0.4684
   36MOL   C45818728   4.923   7.118   7.078 -0.1259  0.9458  0.1922
   36MOL   H45918729   4.800   7.076   6.528 -0.2627  0.3435 -0.8370
   36MOL   H46018730   4.692   7.164   6.619  0.8569  1.1974 -0.6289
   36MOL   H46118731   4.716   6.865   6.611  1.1838  1.9106 -2.5160
   36MOL   H46218732   5.153   6.893   7.044 -2.7061 -1.1354  1.3519
   36MOL   H46318733   5.249   6.720   6.900  0.3754  0.7887 -0.5458
   36MOL   H46418734   5.119   6.649   6.693  0.2845  0.4472 -0.4817
   36MOL   H46518735   4.914   6.761   6.626  0.9441  1.5821 -1.8907
   36MOL   H46618736   4.632   7.194   6.834 -0.4200 -1.0546  1.1010
   36MOL   H46718737   4.652   7.335   7.040 -1.8163 -1.2017  1.7498
   36MOL   H46818738   4.845   7.282   7.193  2.5202 -1.9592  0.1750
   36MOL   H46918739   5.008   7.111   7.145 -0.7639  0.7995  0.9943
   36MOL   C47018740   4.551   6.936   6.728  0.1322 -0.1452  0.3998
   36MOL   C47118741   4.539   6.851   6.859  0.8312 -0.0131  0.9078
   36MOL   N47218742   4.401   6.843   6.888 -0.1590  0.2472 -0.1359
   36MOL   C47318743   4.338   6.928   6.976  0.7972  0.0792 -0.2389
   36MOL   C47418744   4.207   6.882   7.001  0.8644  0.1984 -0.3323
   36MOL   C47518745   4.131   6.939   7.108 -0.0798  0.6593 -0.2493
   36MOL   C47618746   4.181   7.042   7.176 -0.2370  0.5110  0.5078
   36MOL   C47718747   4.307   7.099   7.145 -0.2547 -0.2200  0.3796
   36MOL   C47818748   4.392   7.038   7.045  0.1677 -0.4231  0.3723
   36MOL   C47918749   4.180   6.776   6.901  0.4074 -0.5281  0.1259
   36MOL   C48018750   4.299   6.760   6.829 -0.2629 -0.1264 -0.0499
   36MOL   C48118751   4.306   6.674   6.721 -0.0629  0.2522  0.5533
   36MOL   C48218752   4.193   6.598   6.684 -0.5890  0.2988  0.1393
   36MOL   C48318753   4.075   6.617   6.752 -0.5036 -0.1213  0.4436
   36MOL   C48418754   4.067   6.709   6.858  0.1589  0.0283 -0.3570
   36MOL   H48518755   4.512   7.038   6.734 -2.1185 -0.9193 -0.8256
   36MOL   H48618756   4.491   6.891   6.650 -0.7729  0.4566  0.7476
   36MOL   H48718757   4.588   6.899   6.944 -2.5955  1.5215  2.1293
   36MOL   H48818758   4.041   6.890   7.141 -0.2179  2.4634  2.1623
   36MOL   H48918759   4.115   7.077   7.254 -1.8208  1.0274 -1.0305
   36MOL   H49018760   4.340   7.188   7.195  0.3595 -0.9406  1.2585
   36MOL   H49118761   4.492   7.077   7.029 -0.2137  0.5141  0.2300
   36MOL   H49218762   4.395   6.662   6.661 -0.1583  0.1710  0.4303
   36MOL   H49318763   4.204   6.523   6.607  0.1098 -0.0460  0.5690
   36MOL   H49418764   3.986   6.568   6.715 -0.2746 -0.9702  1.0086
   36MOL   H49518765   3.978   6.725   6.917  1.7376 -0.6819  2.3538
   36MOL   C49618766   4.609   6.712   6.844  0.5276 -0.1019 -0.2207
   36MOL   C49718767   4.583   6.599   6.948  0.1938 -1.0094  1.2560
   36MOL   N49818768   4.617   6.634   7.083 -0.2056  0.0436  0.3053
   36MOL   C49918769   4.527   6.633   7.192 -0.3438 -0.1453  0.2735
   36MOL   C50018770   4.599   6.637   7.312  0.3471 -0.0713 -0.0428
   36MOL   C50118771   4.517   6.628   7.430  0.2059 -0.0942  0.4429
   36MOL   C50218772   4.377   6.607   7.430 -0.1918 -0.4271 -0.1276
   36MOL   C50318773   4.308   6.613   7.307  0.1368  0.1861  0.1628
   36MOL   C50418774   4.382   6.621   7.187 -0.0251 -0.3601 -0.2981
   36MOL   C50518775   4.738   6.649   7.275 -0.2639 -0.0012 -0.0178
   36MOL   C50618776   4.744   6.641   7.134 -0.0997 -0.1794  0.9881
   36MOL   C50718777   4.867   6.621   7.073 -0.7945 -0.1794  0.3581
   36MOL   C50818778   4.986   6.618   7.148  0.3771  0.0844  0.3499
   36MOL   C50918779   4.986   6.633   7.288  0.1450 -0.2699  0.1156
   36MOL   C51018780   4.860   6.654   7.346 -0.2821  0.6827  0.1409
   36MOL   H51118781   4.595   6.668   6.745 -1.1300 -1.8338  0.7483
   36MOL   H51218782   4.717   6.724   6.839  0.7031 -1.3175  0.6585
   36MOL   H51318783   4.649   6.519   6.915  0.8209 -0.3025  0.7656
   36MOL   H51418784   4.581   6.637   7.516  0.1348 -0.8065  0.5684
   36MOL   H51518785   4.328   6.594   7.525  2.2054 -2.8059  0.8593
   36MOL   H51618786   4.201   6.598   7.304  0.1915 -0.6030  1.9287
   36MOL   H51718787   4.329   6.613   7.093 -0.2372 -1.5308 -0.0960
   36MOL   H51818788   4.867   6.593   6.969 -1.1319  1.0133  0.0275
   36MOL   H51918789   5.083   6.612   7.100  0.7996  0.4344  1.1570
   36MOL   H52018790   5.076   6.637   7.346  0.3281 -2.0580 -0.0404
   36MOL   H52118791   4.863   6.678   7.451 -0.0234 -2.3911  0.8672
   36MOL   H52218792   4.480   6.565   6.937  0.2693 -1.0312  0.6109
   37MOL     C118793   2.827   6.129   6.899  0.5540  0.5161  1.1038
   37MOL     C218794   2.678   6.093   6.922 -0.5929 -0.8412 -0.2765
   37MOL     N318795   2.611   6.178   7.013  0.0821 -0.1992  0.3180
   37MOL     C418796   2.531   6.133   7.119  0.1891 -0.2972  0.1914
   37MOL     C518797   2.466   6.244   7.177  0.2591  1.2854  0.3619
   37MOL     C618798   2.387   6.227   7.294  0.2418  0.5251 -0.2715
   37MOL     C718799   2.378   6.099   7.357 -0.1465 -0.0956  0.5035
   37MOL     C818800   2.446   5.991   7.295 -0.0663  0.6565  0.2634
   37MOL     C918801   2.516   6.005   7.176 -0.0085  0.7262 -0.4299
   37MOL    C1018802   2.502   6.363   7.103  0.8819  0.8282 -0.0866
   37MOL    C1118803   2.588   6.314   7.000  0.2784  0.8633  0.4601
   37MOL    C1218804   2.630   6.402   6.900 -0.6997  0.3032 -0.0245
   37MOL    C1318805   2.615   6.543   6.920 -0.2841 -0.2615 -0.7953
   37MOL    C1418806   2.540   6.591   7.027 -0.1945  0.1633  0.4806
   37MOL    C1518807   2.475   6.499   7.106  0.0929 -0.3891 -0.0505
   37MOL    H1618808   2.883   6.159   6.987  2.3310  0.3465  0.0758
   37MOL    H1718809   2.841   6.207   6.824 -0.8804 -0.4512 -0.1938
   37MOL    H1818810   2.689   5.991   6.959 -0.7249 -0.0895  1.8813
   37MOL    H1918811   2.347   6.314   7.344 -0.3900 -0.0937  0.3005
   37MOL    H2018812   2.333   6.077   7.452 -0.8202  1.2174  0.5020
   37MOL    H2118813   2.428   5.890   7.329 -2.1896  0.7416 -0.5169
   37MOL    H2218814   2.559   5.924   7.120  0.3943  0.6877 -0.0739
   37MOL    H2318815   2.691   6.362   6.820 -0.8791  2.2385 -1.1718
   37MOL    H2418816   2.660   6.609   6.847  1.0245  0.5844  0.7490
   37MOL    H2518817   2.532   6.698   7.040  0.7884  0.2625  0.3509
   37MOL    H2618818   2.418   6.533   7.190 -1.1253 -2.2565 -0.0881
   37MOL    H2718819   2.882   6.038   6.872 -1.2209 -0.6127  1.2606
   37MOL    C2818820   2.603   6.096   6.784  0.2409  0.1645  0.0195
   37MOL    C2918821   2.643   5.989   6.682  0.3275 -0.0149  0.0800
   37MOL    N3018822   2.655   5.852   6.731 -0.2892  0.0446 -0.0998
   37MOL    C3118823   2.771   5.775   6.720 -0.6583 -0.2811 -0.1195
   37MOL    C3218824   2.750   5.649   6.787  0.0111 -0.5332 -0.9633
   37MOL    C3318825   2.856   5.554   6.789  0.4035  0.3165  0.1853
   37MOL    C3418826   2.982   5.570   6.716  0.4135  0.5524 -0.2404
   37MOL    C3518827   2.996   5.695   6.649  0.2942  0.0404  0.1101
   37MOL    C3618828   2.893   5.794   6.646 -0.5441 -0.5212  0.5500
   37MOL    C3718829   2.619   5.651   6.850  0.3940 -0.5106  0.1219
   37MOL    C3818830   2.568   5.783   6.822  0.2631  0.0253 -0.2290
   37MOL    C3918831   2.442   5.815   6.873 -0.2751 -0.5207 -0.5034
   37MOL    C4018832   2.367   5.720   6.944 -0.0656 -0.0503  0.3009
   37MOL    C4118833   2.430   5.600   6.985 -0.1596  0.3976  0.3310
   37MOL    C4218834   2.549   5.567   6.933 -0.2846 -0.4049  0.5055
   37MOL    H4318835   2.497   6.098   6.805  0.5389 -1.1497  1.7866
   37MOL    H4418836   2.613   6.195   6.737 -1.4438  0.1057 -0.4737
   37MOL    H4518837   2.737   6.026   6.642  0.0336  0.0797 -0.5409
   37MOL    H4618838   2.827   5.461   6.836  0.6992  0.2809  0.2972
   37MOL    H4718839   3.056   5.491   6.712 -0.6169 -0.4022 -0.6651
   37MOL    H4818840   3.093   5.698   6.602  1.9471  0.7182  3.4002
   37MOL    H4918841   2.909   5.889   6.598 -1.6619  0.4943  2.1665
   37MOL    H5018842   2.389   5.906   6.848  0.0516 -0.6061 -1.5301
   37MOL    H5118843   2.269   5.741   6.985  0.9358 -0.3922  2.9614
   37MOL    H5218844   2.376   5.541   7.057  2.0080 -2.4605 -0.3237
   37MOL    H5318845   2.585   5.473   6.974 -0.7768 -0.1949  1.4183
   37MOL    C5418846   2.545   5.998   6.569  0.1994  0.4465  0.0619
   37MOL    C5518847   2.562   6.129   6.477  0.6051 -0.2879 -0.4778
   37MOL    N5618848   2.697   6.147   6.432 -0.3440 -0.3453 -0.1967
   37MOL    C5718849   2.775   6.256   6.466 -0.6660  0.1392 -0.0008
   37MOL    C5818850   2.905   6.238   6.420  0.5393  0.1097  0.5693
   37MOL    C5918851   3.000   6.338   6.443  0.3443 -0.1292  0.0024
   37MOL    C6018852   2.969   6.461   6.506  0.7665  0.6005 -0.1702
   37MOL    C6118853   2.838   6.470   6.565  0.2280 -0.2297 -0.6681
   37MOL    C6218854   2.742   6.378   6.531  0.3361 -0.3712 -0.6074
   37MOL    C6318855   2.908   6.110   6.344  0.2288 -0.3361  0.5636
   37MOL    C6418856   2.774   6.064   6.346 -0.2924  0.3961 -0.0451
   37MOL    C6518857   2.735   5.938   6.282  0.6351  0.2988 -0.3676
   37MOL    C6618858   2.834   5.868   6.211 -0.2227 -0.1936  0.5975
   37MOL    C6718859   2.971   5.910   6.205  0.2401 -0.3891  0.1340
   37MOL    C6818860   3.007   6.030   6.269  0.0671 -0.1646 -0.6244
   37MOL    H6918861   2.568   5.910   6.509 -1.0132 -0.9593  1.6160
   37MOL    H7018862   2.439   5.994   6.595  0.4677  0.1066  1.1125
   37MOL    H7118863   2.537   6.218   6.534  3.2768  0.4299 -0.3577
   37MOL    H7218864   3.096   6.319   6.397 -0.1729 -0.9326 -0.7538
   37MOL    H7318865   3.044   6.537   6.519  1.0881  0.8256 -2.8909
   37MOL    H7418866   2.808   6.560   6.615  1.8888  0.8269 -1.5195
   37MOL    H7518867   2.645   6.404   6.571  0.0006 -2.3097 -0.1244
   37MOL    H7618868   2.635   5.898   6.289  1.2625 -1.0716  1.0006
   37MOL    H7718869   2.807   5.771   6.171 -0.2642  0.9838 -2.3635
   37MOL    H7818870   3.045   5.850   6.154  0.5808  0.4717 -0.4013
   37MOL    H7918871   3.110   6.062   6.260 -0.1024  0.3560 -0.7093
   37MOL    C8018872   2.460   6.127   6.361  0.2416  0.2696 -0.0095
   37MOL    C8118873   2.300   6.136   6.394  0.2278 -0.5755  0.3596
   37MOL    N8218874   2.286   6.216   6.514 -0.4921  0.3825  1.0873
   37MOL    C8318875   2.227   6.167   6.631 -0.5518  0.0585 -0.1636
   37MOL    C8418876   2.253   6.258   6.737 -0.8940 -0.5001  0.2723
   37MOL    C8518877   2.224   6.221   6.870 -0.2450  0.1201 -0.2983
   37MOL    C8618878   2.160   6.096   6.897 -0.2060  0.0542  0.2939
   37MOL    C8718879   2.122   6.011   6.795  0.3593 -0.2674  0.3344
   37MOL    C8818880   2.159   6.047   6.666 -0.7234 -0.3044 -0.3816
   37MOL    C8918881   2.314   6.377   6.678  0.2197  0.0282 -0.0807
   37MOL    C9018882   2.320   6.351   6.537 -0.2765  0.0462 -0.5990
   37MOL    C9118883   2.366   6.453   6.449 -0.6179  0.0727  0.3906
   37MOL    C9218884   2.386   6.582   6.504  0.3347 -0.0907 -0.1127
   37MOL    C9318885   2.390   6.602   6.641  0.0943  0.4807  0.9437
   37MOL    C9418886   2.360   6.501   6.728  0.6145 -0.1319 -0.0688
   37MOL    H9518887   2.473   6.223   6.310 -0.6808  1.1174  1.3043
   37MOL    H9618888   2.473   6.051   6.285  0.2448  1.0029 -0.7481
   37MOL    H9718889   2.283   6.030   6.411 -0.5121 -0.8984 -2.1972
   37MOL    H9818890   2.255   6.275   6.958 -0.1675 -1.1093  0.4500
   37MOL    H9918891   2.143   6.062   6.998  0.7067  0.7192  0.6796
   37MOL   H10018892   2.061   5.924   6.813 -0.9742  0.6579  0.3408
   37MOL   H10118893   2.122   5.980   6.589  0.8191  0.7279 -2.0552
   37MOL   H10218894   2.366   6.438   6.342 -1.0639  1.7459  0.1526
   37MOL   H10318895   2.410   6.665   6.439 -2.1720  1.2629  0.6459
   37MOL   H10418896   2.410   6.697   6.687 -1.4600  1.2977  0.0022
   37MOL   H10518897   2.378   6.518   6.833  1.2693  2.3173 -0.5449
   37MOL   C10618898   2.208   6.177   6.271 -0.1460 -0.1022  0.7572
   37MOL   C10718899   2.240   6.094   6.139 -0.1509 -0.3603 -0.2544
   37MOL   N10818900   2.266   5.949   6.162  0.0824 -0.0220  0.7993
   37MOL   C10918901   2.367   5.874   6.099  0.2560 -0.1975 -0.2935
   37MOL   C11018902   2.369   5.743   6.149  0.4102 -0.3324  0.1144
   37MOL   C11118903   2.462   5.644   6.102  0.1000  0.1619  0.6715
   37MOL   C11218904   2.548   5.680   5.997  0.0503 -0.5246 -0.3705
   37MOL   C11318905   2.539   5.811   5.944  0.1325  0.4010 -0.3737
   37MOL   C11418906   2.452   5.909   5.994  0.1756 -0.1609  0.7437
   37MOL   C11518907   2.252   5.733   6.232  0.4035  0.2778 -0.0702
   37MOL   C11618908   2.183   5.858   6.231 -0.4025 -0.0213 -0.1168
   37MOL   C11718909   2.064   5.874   6.297 -0.0255 -0.5563  0.2045
   37MOL   C11818910   2.000   5.770   6.364 -0.5687 -0.1427 -0.7380
   37MOL   C11918911   2.070   5.647   6.373  0.0819  0.1043  0.2539
   37MOL   C12018912   2.191   5.631   6.311 -0.3475  0.9088 -0.2771
   37MOL   H12118913   2.106   6.159   6.305  0.5254 -0.9631  2.3691
   37MOL   H12218914   2.221   6.282   6.248 -0.8931 -0.2570 -0.4510
   37MOL   H12318915   2.334   6.124   6.095  1.2186 -1.5045  1.8103
   37MOL   H12418916   2.455   5.540   6.130  0.8492 -0.0266  0.1721
   37MOL   H12518917   2.596   5.597   5.947 -1.2201 -2.1282  1.0106
   37MOL   H12618918   2.599   5.822   5.855  0.6154  0.2130 -0.0734
   37MOL   H12718919   2.443   6.005   5.945  0.4499 -0.5604 -0.1090
   37MOL   H12818920   2.012   5.967   6.279  0.1840  0.0274  2.4450
   37MOL   H12918921   1.910   5.787   6.420  0.7492  1.2575  0.9989
   37MOL   H13018922   2.034   5.554   6.415 -1.2448  1.0174  1.1899
   37MOL   H13118923   2.226   5.531   6.331 -1.5319  0.5865  0.2144
   37MOL   C13218924   2.118   6.113   6.041  0.2656 -0.4349 -0.0021
   37MOL   C13318925   2.084   6.255   5.992 -0.0688  0.1217  0.9655
   37MOL   N13418926   2.211   6.323   5.959  0.0081 -0.0400 -0.4240
   37MOL   C13518927   2.259   6.437   6.025  1.0259 -0.3976 -0.6733
   37MOL   C13618928   2.388   6.471   5.982  0.1597  0.6918  0.3700
   37MOL   C13718929   2.458   6.574   6.050 -0.2037 -0.1175  1.0267
   37MOL   C13818930   2.396   6.649   6.146  0.1628 -0.1359  0.1176
   37MOL   C13918931   2.265   6.618   6.191  0.0771  0.1796  0.3164
   37MOL   C14018932   2.194   6.517   6.123 -0.5217 -0.1303  0.3218
   37MOL   C14118933   2.420   6.376   5.873  0.1667 -1.0319  0.0752
   37MOL   C14218934   2.305   6.293   5.860 -0.4365 -0.2351  0.0810
   37MOL   C14318935   2.300   6.204   5.750 -0.1813  0.3646 -0.3374
   37MOL   C14418936   2.408   6.184   5.662 -0.6805  0.0060  0.2322
   37MOL   C14518937   2.521   6.264   5.681  0.7033  0.2581 -0.1464
   37MOL   C14618938   2.523   6.364   5.781  0.0558  0.2138 -0.0795
   37MOL   H14718939   2.139   6.062   5.947  1.1326  2.1109 -1.2245
   37MOL   H14818940   2.028   6.060   6.072  0.6127 -1.5679 -0.8831
   37MOL   H14918941   2.049   6.301   6.084 -1.7241 -0.9710  0.9094
   37MOL   H15018942   2.554   6.595   6.006 -1.1051 -1.3170 -1.6025
   37MOL   H15118943   2.442   6.738   6.187  1.2637 -0.0161 -1.3257
   37MOL   H15218944   2.203   6.673   6.260  0.3416  1.6301 -0.5706
   37MOL   H15318945   2.092   6.495   6.150 -1.3481  1.3029 -1.5155
   37MOL   H15418946   2.208   6.148   5.738  0.0046 -0.2017  0.8348
   37MOL   H15518947   2.404   6.103   5.590 -0.0153 -0.0328  0.2402
   37MOL   H15618948   2.610   6.250   5.621  0.1806  2.9186 -1.6423
   37MOL   H15718949   2.613   6.422   5.785  0.1308  0.1953 -1.3180
   37MOL   C15818950   1.982   6.253   5.877 -0.7924 -0.0492  0.9407
   37MOL   C15918951   1.837   6.237   5.921 -0.1306 -0.6927 -0.0284
   37MOL   N16018952   1.796   6.344   6.012  0.1144 -0.5812 -0.2504
   37MOL   C16118953   1.783   6.328   6.150 -0.2496  0.3299  0.7121
   37MOL   C16218954   1.751   6.454   6.208  0.1550  0.0724  0.0167
   37MOL   C16318955   1.734   6.454   6.351 -0.2703 -0.1659 -0.3406
   37MOL   C16418956   1.750   6.338   6.427  0.3920  0.1061  0.2814
   37MOL   C16518957   1.791   6.218   6.371 -0.4983  0.0405  0.9194
   37MOL   C16618958   1.817   6.215   6.232  0.3626 -0.7569 -0.1195
   37MOL   C16718959   1.746   6.548   6.098 -0.2151  0.4552 -0.6205
   37MOL   C16818960   1.767   6.474   5.979 -0.5270  0.5934  0.3765
   37MOL   C16918961   1.765   6.544   5.853  0.3507  0.1415 -0.2120
   37MOL   C17018962   1.741   6.686   5.850 -0.4969  0.4644 -0.4721
   37MOL   C17118963   1.703   6.751   5.970 -0.4465 -0.5274  0.0185
   37MOL   C17218964   1.723   6.685   6.092 -0.1043  0.1077  0.1296
   37MOL   H17318965   1.985   6.350   5.828 -1.1135  0.2699  1.5486
   37MOL   H17418966   2.013   6.183   5.800  0.2825  1.1341  0.2907
   37MOL   H17518967   1.839   6.141   5.974  1.4705 -0.5587  0.1910
   37MOL   H17618968   1.710   6.544   6.405  1.0348 -0.5593  0.8935
   37MOL   H17718969   1.733   6.341   6.534 -2.5263  0.2410 -0.1363
   37MOL   H17818970   1.805   6.126   6.425 -0.2958 -0.1444  0.5495
   37MOL   H17918971   1.844   6.120   6.186  0.4223 -1.1821  0.7844
   37MOL   H18018972   1.792   6.494   5.762 -1.5176 -0.9195 -0.2006
   37MOL   H18118973   1.726   6.730   5.753 -0.4058  1.1995 -0.1551
   37MOL   H18218974   1.666   6.850   5.988 -2.4199 -1.3089  0.3484
   37MOL   H18318975   1.703   6.717   6.193  1.3809 -0.2491  0.5631
   37MOL   C18418976   1.738   6.207   5.810  0.3010  0.0760  0.3312
   37MOL   C18518977   1.639   6.094   5.826 -0.8983 -0.4772 -0.5881
   37MOL   N18618978   1.573   6.112   5.955 -0.2740 -0.0804 -0.5000
   37MOL   C18718979   1.593   6.028   6.066  0.2079 -0.2685  0.7103
   37MOL   C18818980   1.516   6.074   6.174  0.1532 -0.0086 -0.3425
   37MOL   C18918981   1.533   6.005   6.297 -0.1805 -0.0987 -0.1140
   37MOL   C19018982   1.624   5.896   6.308  0.1745 -0.1743 -0.6911
   37MOL   C19118983   1.691   5.847   6.193 -0.1496  0.1572 -0.4466
   37MOL   C19218984   1.672   5.907   6.072 -0.7265  0.2678 -0.0156
   37MOL   C19318985   1.444   6.190   6.126  0.6074 -0.4675 -0.1341
   37MOL   C19418986   1.483   6.212   5.992 -0.4979 -0.5463  0.3474
   37MOL   C19518987   1.441   6.332   5.926 -0.2357  1.0690 -0.1521
   37MOL   C19618988   1.353   6.423   5.992  0.0985  0.0200  0.0263
   37MOL   C19718989   1.315   6.400   6.123 -0.4246  0.2945 -0.0276
   37MOL   C19818990   1.363   6.289   6.191 -0.5555  0.8637 -0.3338
   37MOL   H19918991   1.682   6.298   5.790  1.0660  0.4272 -0.2599
   37MOL   H20018992   1.789   6.195   5.714  1.5820  1.4664  0.8160
   37MOL   H20118993   1.709   6.011   5.836  0.3608  0.8207  1.5501
   37MOL   H20218994   1.478   6.037   6.385  0.0267 -2.9336  1.0912
   37MOL   H20318995   1.643   5.856   6.406 -1.4768 -0.0105 -0.3030
   37MOL   H20418996   1.759   5.764   6.202 -0.1207  0.4834  3.3711
   37MOL   H20518997   1.732   5.867   5.992 -0.4043  0.5289  0.0983
   37MOL   H20618998   1.477   6.363   5.828 -1.9910  0.7582 -0.9167
   37MOL   H20718999   1.311   6.507   5.939 -0.2001  0.0600  0.3231
   37MOL   H20819000   1.249   6.468   6.174  1.6920  0.3757  2.7121
   37MOL   H20919001   1.326   6.274   6.291 -3.6238  2.4093 -1.1527
   37MOL   C21019002   1.536   6.072   5.718  0.4712 -0.0139 -0.1016
   37MOL   C21119003   1.585   6.002   5.590 -1.2766 -0.4725 -0.2906
   37MOL   N21219004   1.694   5.903   5.618 -0.1199 -0.1096 -0.2647
   37MOL   C21319005   1.830   5.917   5.600 -0.2730  0.1542  0.2531
   37MOL   C21419006   1.896   5.797   5.647  0.6951  0.0034 -0.6836
   37MOL   C21519007   2.037   5.797   5.654  0.7912  0.4216  0.0423
   37MOL   C21619008   2.114   5.907   5.613 -0.4115  0.8483 -0.6821
   37MOL   C21719009   2.051   6.026   5.568 -0.1515  0.1319  0.9937
   37MOL   C21819010   1.910   6.029   5.557 -0.1743  0.2490 -0.1599
   37MOL   C21919011   1.793   5.709   5.690 -0.1368  0.5975  1.0278
   37MOL   C22019012   1.671   5.776   5.673  0.7114  0.3725 -0.7697
   37MOL   C22119013   1.547   5.713   5.691  0.9001  0.6915 -0.0363
   37MOL   C22219014   1.542   5.579   5.726  0.4173 -0.1227  0.8006
   37MOL   C22319015   1.656   5.504   5.750 -0.3758 -0.2876 -0.7207
   37MOL   C22419016   1.781   5.573   5.736 -0.0438 -0.4326 -0.3448
   37MOL   H22519017   1.455   6.015   5.763  2.2580 -1.7668  0.9876
   37MOL   H22619018   1.484   6.164   5.694 -0.7731 -0.6880 -0.0544
   37MOL   H22719019   1.639   6.079   5.534 -1.8641 -0.3017 -0.6192
   37MOL   H22819020   2.090   5.712   5.695  3.6619  2.0906 -0.0198
   37MOL   H22919021   2.221   5.895   5.621 -0.5360 -0.2785 -0.6272
   37MOL   H23019022   2.107   6.110   5.529 -0.7605  0.7076  1.3475
   37MOL   H23119023   1.871   6.121   5.515 -0.5071 -0.2582 -0.9618
   37MOL   H23219024   1.454   5.768   5.682  0.5959  0.1372 -0.2394
   37MOL   H23319025   1.447   5.528   5.738 -0.9604  2.2325  0.4054
   37MOL   H23419026   1.658   5.400   5.778  1.1553  0.1839  0.9213
   37MOL   H23519027   1.865   5.506   5.743 -0.4058 -0.7449  1.3910
   37MOL   C23619028   1.465   5.962   5.497  0.1789 -0.2334  0.2337
   37MOL   C23719029   1.394   6.089   5.451 -0.0640  0.1771 -0.5891
   37MOL   N23819030   1.475   6.175   5.370 -0.0424 -0.3678 -0.2135
   37MOL   C23919031   1.505   6.306   5.404 -0.0936 -1.2087 -0.4250
   37MOL   C24019032   1.593   6.357   5.308  0.3244  0.2365  0.3550
   37MOL   C24119033   1.653   6.481   5.335  0.1952 -0.1392  0.8764
   37MOL   C24219034   1.616   6.565   5.446 -0.3556  0.1089  0.1100
   37MOL   C24319035   1.523   6.518   5.538  0.5261  0.5863  0.6841
   37MOL   C24419036   1.469   6.386   5.520 -0.5743  0.6280 -0.3919
   37MOL   C24519037   1.603   6.259   5.204 -0.9859  0.3136  0.1493
   37MOL   C24619038   1.531   6.149   5.240 -0.2434  0.3873  0.6166
   37MOL   C24719039   1.528   6.037   5.154  0.5990  0.3516  1.3969
   37MOL   C24819040   1.589   6.040   5.028 -0.0020 -0.0120 -0.3652
   37MOL   C24919041   1.653   6.158   4.986  0.0779  0.2271  0.1765
   37MOL   C25019042   1.665   6.261   5.077  0.1246 -0.1377  0.7925
   37MOL   H25119043   1.505   5.892   5.424 -0.4220 -1.2965  0.9089
   37MOL   H25219044   1.385   5.904   5.543  0.4337 -1.2980 -0.6325
   37MOL   H25319045   1.357   6.144   5.538  1.3658  0.0813  0.1057
   37MOL   H25419046   1.730   6.519   5.270 -0.9878 -1.2333 -1.2246
   37MOL   H25519047   1.663   6.661   5.460 -1.1288  1.0248 -3.0922
   37MOL   H25619048   1.491   6.584   5.617 -1.0963  1.5406 -0.7259
   37MOL   H25719049   1.392   6.351   5.587 -0.1524 -0.2208 -0.3451
   37MOL   H25819050   1.480   5.943   5.173  0.2627  0.5300  1.4207
   37MOL   H25919051   1.574   5.959   4.959 -0.8967  1.2608 -1.6890
   37MOL   H26019052   1.693   6.159   4.886 -0.1702 -0.1548  0.0746
   37MOL   H26119053   1.694   6.359   5.042 -1.4648  0.1090  0.1615
   37MOL   C26219054   1.262   6.057   5.375  0.4442  0.0112 -0.2354
   37MOL   C26319055   1.131   6.021   5.447  0.0961  0.0188 -0.2728
   37MOL   N26419056   1.126   6.074   5.579 -0.3356  0.0776 -0.2437
   37MOL   C26519057   1.151   6.005   5.696  1.0278 -0.2890  0.2210
   37MOL   C26619058   1.149   6.092   5.805  0.2860  0.5861 -0.5601
   37MOL   C26719059   1.190   6.041   5.933  0.0944 -0.0293  0.3202
   37MOL   C26819060   1.238   5.909   5.949  0.0377 -0.1803  0.8468
   37MOL   C26919061   1.234   5.822   5.837 -0.5092 -0.0433  0.2335
   37MOL   C27019062   1.177   5.869   5.715 -0.3066  0.1024  0.5480
   37MOL   C27119063   1.110   6.223   5.754  0.2523 -0.8817  0.1440
   37MOL   C27219064   1.102   6.208   5.616 -0.3713 -0.6787 -0.1561
   37MOL   C27319065   1.071   6.321   5.539 -0.0002  0.5184  0.8191
   37MOL   C27419066   1.044   6.447   5.591 -0.6417  0.3448  0.9310
   37MOL   C27519067   1.055   6.462   5.731  0.0051  0.3712  0.1320
   37MOL   C27619068   1.087   6.345   5.813  0.0699 -0.3886 -1.0590
   37MOL   H27719069   1.236   6.147   5.319 -0.2465 -0.1072 -0.1026
   37MOL   H27819070   1.287   5.983   5.299  1.3563  1.4209 -1.3456
   37MOL   H27919071   1.146   5.915   5.466 -0.0768 -0.0741 -0.6457
   37MOL   H28019072   1.193   6.099   6.024 -0.2246  1.1395 -0.4091
   37MOL   H28119073   1.281   5.870   6.041 -0.2905  1.0543  1.5322
   37MOL   H28219074   1.285   5.726   5.840  0.5973  0.4690 -1.3034
   37MOL   H28319075   1.196   5.810   5.627 -0.3702 -0.3921  0.8625
   37MOL   H28419076   1.078   6.297   5.433 -1.1345 -0.3724  0.9280
   37MOL   H28519077   1.018   6.527   5.524 -0.5665 -1.0962 -0.8650
   37MOL   H28619078   1.055   6.553   5.791 -2.0604  0.0923  0.5674
   37MOL   H28719079   1.106   6.342   5.919 -0.1531  0.8962 -0.9711
   37MOL   C28819080   0.997   6.023   5.376 -0.6733  0.3188  0.1078
   37MOL   C28919081   0.995   5.936   5.249 -0.4974  0.3172  0.2743
   37MOL   N29019082   1.044   5.796   5.272 -0.8727  0.8789 -0.1189
   37MOL   C29119083   1.171   5.746   5.223  0.3291  0.2736  0.3083
   37MOL   C29219084   1.184   5.611   5.276  0.5348 -0.3122  0.1048
   37MOL   C29319085   1.298   5.541   5.240  0.5974 -0.7503  0.6612
   37MOL   C29419086   1.386   5.599   5.146  0.6168  0.2451  0.1682
   37MOL   C29519087   1.370   5.725   5.092  0.5854  0.0105 -0.0203
   37MOL   C29619088   1.263   5.802   5.134 -0.3722  0.7979 -0.0055
   37MOL   C29719089   1.071   5.586   5.355 -0.8638  0.5450  0.0099
   37MOL   C29819090   0.984   5.698   5.349  0.3112 -0.0635  0.0999
   37MOL   C29919091   0.856   5.702   5.413 -0.2921 -0.1361 -0.2242
   37MOL   C30019092   0.816   5.596   5.487  0.7698  0.1567 -0.3615
   37MOL   C30119093   0.892   5.478   5.496 -0.3558  0.0588 -0.0318
   37MOL   C30219094   1.021   5.479   5.435  0.2913 -0.0135  0.2614
   37MOL   H30319095   0.915   5.980   5.434 -1.0929  0.3262 -0.4746
   37MOL   H30419096   0.975   6.126   5.351 -1.3532  0.4159  1.0712
   37MOL   H30519097   1.068   5.984   5.184 -0.9077  2.3140  1.2653
   37MOL   H30619098   1.307   5.444   5.286  1.9753 -2.1010 -2.2890
   37MOL   H30719099   1.475   5.545   5.118 -1.7503 -2.1629 -2.9763
   37MOL   H30819100   1.449   5.758   5.026  1.7867 -1.1324  0.7959
   37MOL   H30919101   1.261   5.903   5.095  2.0439  1.8572  2.4369
   37MOL   H31019102   0.802   5.795   5.410 -0.3085 -0.1799 -1.6770
   37MOL   H31119103   0.722   5.603   5.540  0.6482  0.6042 -0.6373
   37MOL   H31219104   0.868   5.399   5.565  0.5044  0.1389  0.3658
   37MOL   H31319105   1.074   5.385   5.440 -0.4748 -0.4336  0.4066
   37MOL   C31419106   0.863   5.934   5.169 -0.8226  0.3017  0.1830
   37MOL   C31519107   0.838   5.860   5.038 -0.0427 -0.2245 -0.4596
   37MOL   N31619108   0.798   5.724   5.050  0.3356 -0.3907  0.0995
   37MOL   C31719109   0.874   5.610   5.009  0.1354 -0.3748  0.4849
   37MOL   C31819110   0.801   5.499   5.047 -0.4436  0.1880  0.3917
   37MOL   C31919111   0.862   5.374   5.030  0.3873 -0.0499  0.3840
   37MOL   C32019112   0.989   5.365   4.970 -1.1123  0.1475 -0.0534
   37MOL   C32119113   1.064   5.477   4.930 -0.6150  0.2187 -0.9280
   37MOL   C32219114   1.000   5.606   4.947  0.8912  0.0672  0.1655
   37MOL   C32319115   0.674   5.539   5.104  0.4076 -0.1160 -0.1173
   37MOL   C32419116   0.676   5.683   5.101 -0.1094 -0.1774  0.4810
   37MOL   C32519117   0.567   5.754   5.158 -0.1915  0.3915  0.1278
   37MOL   C32619118   0.462   5.682   5.216  0.2039  0.1926 -0.2412
   37MOL   C32719119   0.447   5.541   5.212  0.3046  0.1462  0.2959
   37MOL   C32819120   0.557   5.471   5.150 -0.1899  0.1131  0.0557
   37MOL   H32919121   0.785   5.895   5.234  2.1179  0.1786  3.7766
   37MOL   H33019122   0.835   6.039   5.157  0.5329  0.5559 -0.8299
   37MOL   H33119123   0.941   5.866   5.003 -0.1383  1.0629 -0.5600
   37MOL   H33219124   0.814   5.286   5.070  0.8663 -0.7599 -0.5906
   37MOL   H33319125   1.026   5.265   4.954 -0.8520  0.5093 -1.9285
   37MOL   H33419126   1.157   5.456   4.880  0.1144  0.2508  0.3994
   37MOL   H33519127   1.058   5.695   4.931  0.5123  0.0765 -1.2564
   37MOL   H33619128   0.558   5.861   5.157  1.1030  0.5610  2.7027
   37MOL   H33719129   0.380   5.736   5.261  0.9685 -0.5342  2.0648
   37MOL   H33819130   0.360   5.496   5.258 -0.3858 -0.1253 -1.2269
   37MOL   H33919131   0.552   5.363   5.146 -0.1282  0.1582 -1.6904
   37MOL   C34019132   0.756   5.925   4.919 -0.4614  0.0656 -0.3487
   37MOL   C34119133   0.792   6.070   4.884  0.3375 -0.6865  0.4367
   37MOL   N34219134   0.937   6.096   4.887  0.1604  0.0129 -0.7953
   37MOL   C34319135   1.001   6.188   4.975 -0.0569 -0.0457  0.4119
   37MOL   C34419136   1.136   6.164   4.968 -0.2432 -0.4606  0.5430
   37MOL   C34519137   1.215   6.246   5.049 -0.3486  0.3318  0.3431
   37MOL   C34619138   1.163   6.345   5.135 -0.9637 -0.1892  0.2370
   37MOL   C34719139   1.026   6.372   5.133  0.5775  0.0578 -0.2048
   37MOL   C34819140   0.949   6.292   5.052 -0.2776  0.0834  0.1557
   37MOL   C34919141   1.166   6.064   4.866  0.0572  0.3820  0.0952
   37MOL   C35019142   1.037   6.023   4.821  0.3128 -0.1444  0.2889
   37MOL   C35119143   1.033   5.911   4.731  0.1034 -0.1160 -0.5714
   37MOL   C35219144   1.144   5.854   4.673 -0.3036  0.2270 -0.1849
   37MOL   C35319145   1.269   5.904   4.714 -0.3564 -0.3385  0.1881
   37MOL   C35419146   1.276   6.002   4.812 -0.6803 -0.3640  0.4934
   37MOL   H35519147   0.777   5.856   4.837 -0.6224 -0.3650 -0.0340
   37MOL   H35619148   0.649   5.908   4.931 -0.4681  0.0693 -0.4039
   37MOL   H35719149   0.752   6.133   4.963 -1.1913  0.7297 -1.4117
   37MOL   H35819150   1.323   6.235   5.050 -0.4781 -1.0319  0.4433
   37MOL   H35919151   1.226   6.401   5.202  0.7911 -0.6607 -0.9644
   37MOL   H36019152   0.981   6.456   5.183 -0.6887 -0.9735  0.4097
   37MOL   H36119153   0.844   6.315   5.055 -0.2275  0.2162  1.3892
   37MOL   H36219154   0.938   5.880   4.689  0.5402 -0.7757 -1.0754
   37MOL   H36319155   1.141   5.771   4.605 -0.2372  0.6815 -0.7425
   37MOL   H36419156   1.355   5.855   4.671  0.0969  1.1015 -0.5581
   37MOL   H36519157   1.373   6.029   4.852  1.2031  0.5674 -4.3813
   37MOL   C36619158   0.727   6.112   4.751 -0.0872 -0.8622  0.0982
   37MOL   C36719159   0.575   6.141   4.765 -0.2064  0.0269 -0.1583
   37MOL   N36819160   0.539   6.228   4.877  0.1711 -0.2812  0.2920
   37MOL   C36919161   0.459   6.191   4.988 -0.3110 -0.4102 -0.5499
   37MOL   C37019162   0.459   6.293   5.090  0.1352  0.4825  0.5981
   37MOL   C37119163   0.397   6.272   5.212  0.6699  0.0740 -0.2869
   37MOL   C37219164   0.341   6.146   5.242 -0.2360 -0.2358 -0.3879
   37MOL   C37319165   0.333   6.044   5.145  0.3329  0.2689 -0.9136
   37MOL   C37419166   0.390   6.070   5.011 -0.3122 -0.0399  0.3564
   37MOL   C37519167   0.533   6.400   5.036  0.3835  0.1339  0.2623
   37MOL   C37619168   0.590   6.355   4.910 -0.2607 -0.0170 -0.3836
   37MOL   C37719169   0.677   6.442   4.838  0.7114  0.4963  0.1431
   37MOL   C37819170   0.701   6.577   4.879 -0.0221  0.0662  0.4239
   37MOL   C37919171   0.630   6.618   4.993 -0.9092 -0.4655 -0.2096
   37MOL   C38019172   0.555   6.532   5.075 -0.5748  0.1462  0.1232
   37MOL   H38119173   0.790   6.198   4.726 -1.4903  0.2476  0.2933
   37MOL   H38219174   0.742   6.035   4.676  0.1860 -1.2629  0.5600
   37MOL   H38319175   0.522   6.048   4.784  0.5859 -0.6196 -1.0164
   37MOL   H38419176   0.401   6.348   5.289 -0.7961 -1.6877  1.5742
   37MOL   H38519177   0.296   6.121   5.337  0.8128 -1.7475 -0.2746
   37MOL   H38619178   0.293   5.949   5.177  2.4444  0.4196  2.3250
   37MOL   H38719179   0.393   5.983   4.947  2.3587 -0.9584  1.6667
   37MOL   H38819180   0.725   6.407   4.748  1.9319  0.7686  0.6831
   37MOL   H38919181   0.744   6.649   4.811 -0.4019  0.0861  0.1959
   37MOL   H39019182   0.630   6.723   5.021  1.7349 -0.6117  0.4188
   37MOL   H39119183   0.505   6.565   5.165  0.2445  0.9423  0.2977
   37MOL   C39219184   0.529   6.200   4.635 -0.4269  0.1593  0.0797
   37MOL   C39319185   0.374   6.235   4.621  0.1881  0.4057 -0.1795
   37MOL   N39419186   0.351   6.371   4.671  0.4770 -0.3870  0.1000
   37MOL   C39519187   0.266   6.414   4.773  0.5517 -0.4519 -0.4426
   37MOL   C39619188   0.291   6.556   4.808 -0.5600  0.4056 -0.4674
   37MOL   C39719189   0.215   6.607   4.918 -0.1245 -0.2116 -0.2514
   37MOL   C39819190   0.127   6.529   4.996  0.0867 -0.3111 -0.0917
   37MOL   C39919191   0.101   6.395   4.955  0.4074 -0.1604  0.0986
   37MOL   C40019192   0.169   6.342   4.844 -0.6074  0.4239 -0.3704
   37MOL   C40119193   0.390   6.598   4.712 -0.1719 -0.3031 -1.0801
   37MOL   C40219194   0.419   6.489   4.629  0.0282  0.3290  0.5487
   37MOL   C40319195   0.504   6.508   4.518  0.1342 -0.5078 -0.3011
   37MOL   C40419196   0.560   6.633   4.484 -0.0349  0.6840 -0.3574
   37MOL   C40519197   0.521   6.740   4.565 -0.5668  0.1642 -0.5347
   37MOL   C40619198   0.457   6.715   4.685  0.5186 -0.0940 -0.3449
   37MOL   H40719199   0.588   6.288   4.609  0.9009 -1.0743 -1.1542
   37MOL   H40819200   0.553   6.129   4.557  1.7287  1.3969 -0.4221
   37MOL   H40919201   0.329   6.164   4.690 -3.3161  0.5715 -2.1834
   37MOL   H41019202   0.224   6.712   4.944 -1.3896 -0.1663  0.0548
   37MOL   H41119203   0.088   6.574   5.086  0.1286 -0.4410 -0.0080
   37MOL   H41219204   0.039   6.329   5.013 -0.8931 -0.0447 -1.1413
   37MOL   H41319205   0.147   6.245   4.802  0.3217 -0.1823  0.5082
   37MOL   H41419206   0.522   6.432   4.444  1.0902 -0.1428 -0.4465
   37MOL   H41519207   0.618   6.645   4.394  0.4929 -0.7164 -0.2106
   37MOL   H41619208   0.550   6.840   4.538 -3.8930  1.0030 -1.2110
   37MOL   H41719209   0.427   6.799   4.747 -1.0778  1.7349 -3.4588
   37MOL   C41819210   0.307   6.213   4.484 -0.2130  0.0574 -0.0112
   37MOL   C41919211   0.339   6.072   4.421  0.7279 -0.2096  0.6545
   37MOL   N42019212   0.345   5.964   4.514 -0.5662 -0.3229  0.2234
   37MOL   C42119213   0.457   5.885   4.524  0.3127  0.9706 -0.2245
   37MOL   C42219214   0.441   5.800   4.639  0.3977 -0.2882  0.2730
   37MOL   C42319215   0.546   5.720   4.685 -0.0970  0.0233  0.6269
   37MOL   C42419216   0.669   5.733   4.621  0.3218 -0.6457  0.3984
   37MOL   C42519217   0.685   5.799   4.492 -0.0963 -0.7462 -0.2486
   37MOL   C42619218   0.577   5.875   4.449 -0.2825  1.5078  0.2860
   37MOL   C42719219   0.305   5.818   4.685  0.2408  0.1667  0.2150
   37MOL   C42819220   0.242   5.921   4.598  0.1898  0.1605 -0.2249
   37MOL   C42919221   0.109   5.965   4.621 -0.4869  0.2236 -0.0521
   37MOL   C43019222   0.042   5.925   4.738 -0.8889  0.1430  0.2296
   37MOL   C43119223   0.101   5.830   4.827  0.5717  0.0571  0.7490
   37MOL   C43219224   0.225   5.776   4.792  0.2403  0.4332  0.0011
   37MOL   H43319225   0.200   6.235   4.494  0.0393  1.6040 -0.5884
   37MOL   H43419226   0.339   6.287   4.411 -1.4063  2.0724  1.4259
   37MOL   H43519227   0.436   6.076   4.370  0.0475  0.7329 -0.5898
   37MOL   H43619228   0.523   5.649   4.764 -0.9624 -0.2971  0.0879
   37MOL   H43719229   0.749   5.668   4.654 -1.2823 -2.8228  0.0786
   37MOL   H43819230   0.775   5.787   4.433  0.3174  1.4730 -0.1006
   37MOL   H43919231   0.594   5.925   4.355  0.1895  1.3179  0.2681
   37MOL   H44019232   0.060   6.043   4.565 -0.2936  0.8282  0.6201
   37MOL   H44119233   8.171   5.964   4.757 -1.8810 -1.2902 -1.7175
   37MOL   H44219234   0.053   5.806   4.920 -2.8946  0.1744 -0.9245
   37MOL   H44319235   0.277   5.703   4.853 -0.9962 -0.7534 -0.3372
   37MOL   C44419236   0.240   6.037   4.310 -0.7780 -1.1374  0.5701
   37MOL   C44519237   0.237   6.147   4.198 -0.6305 -0.2758 -0.1371
   37MOL   N44619238   0.371   6.151   4.137 -0.0423 -0.2160 -0.3227
   37MOL   C44719239   0.463   6.260   4.129 -0.6403 -0.2478 -0.0832
   37MOL   C44819240   0.591   6.218   4.077 -0.3341  0.5905  0.5890
   37MOL   C44919241   0.692   6.313   4.070  0.2977 -0.0835  0.1152
   37MOL   C45019242   0.672   6.450   4.113  0.8066 -0.0124  0.1510
   37MOL   C45119243   0.543   6.488   4.161 -1.0167  0.0039 -0.0415
   37MOL   C45219244   0.441   6.394   4.162  0.1033  0.0098 -0.9543
   37MOL   C45319245   0.570   6.079   4.046 -0.4931 -1.0108  0.7191
   37MOL   C45419246   0.433   6.042   4.071 -0.0090  0.5187  0.0954
   37MOL   C45519247   0.381   5.921   4.024 -0.1892  0.0253 -0.2136
   37MOL   C45619248   0.463   5.834   3.954 -0.0810  0.0726 -0.1826
   37MOL   C45719249   0.600   5.867   3.937  0.1741  0.3501  0.8120
   37MOL   C45819250   0.658   5.988   3.980  0.0387  0.2548 -0.3363
   37MOL   H45919251   0.263   5.941   4.263 -0.1618 -0.6901 -0.0380
   37MOL   H46019252   0.138   6.024   4.348 -0.6875  1.9106  2.0058
   37MOL   H46119253   0.217   6.239   4.253 -1.2048 -0.1185 -0.6068
   37MOL   H46219254   0.788   6.287   4.027  0.1255 -0.6569  0.0735
   37MOL   H46319255   0.747   6.526   4.097 -0.1735  0.6391 -1.4826
   37MOL   H46419256   0.524   6.594   4.173 -2.2659 -0.4253  1.9453
   37MOL   H46519257   0.346   6.433   4.195  1.6567  2.7591  0.4601
   37MOL   H46619258   0.280   5.891   4.043 -0.2451  1.9564  2.8547
   37MOL   H46719259   0.433   5.732   3.935 -2.2275  0.8046 -0.7798
   37MOL   H46819260   0.665   5.808   3.874 -0.8997  0.7788 -0.7306
   37MOL   H46919261   0.758   6.022   3.959  0.1145  0.4058  0.2665
   37MOL   C47019262   0.125   6.131   4.101  0.4603  0.3749  0.2634
   37MOL   C47119263   8.203   6.138   4.152 -0.2350  0.4259 -0.0802
   37MOL   N47219264   8.182   6.222   4.270 -0.0989 -0.5117 -0.5406
   37MOL   C47319265   8.120   6.193   4.395  0.0583  0.2341 -0.9978
   37MOL   C47419266   8.142   6.302   4.492 -0.5162 -0.3991 -0.0946
   37MOL   C47519267   8.097   6.286   4.625  0.3056  0.5257  0.1441
   37MOL   C47619268   8.042   6.167   4.666  0.3560  0.4450  0.3818
   37MOL   C47719269   8.012   6.065   4.570 -0.0119  0.1564 -0.0778
   37MOL   C47819270   8.055   6.076   4.438 -0.5778  0.1447 -0.2163
   37MOL   C47919271   8.209   6.404   4.424 -0.1181 -0.3976 -0.3462
   37MOL   C48019272   8.224   6.357   4.289 -0.0444 -0.1433  0.5112
   37MOL   C48119273   0.057   6.444   4.191 -0.5557  1.0119 -0.3689
   37MOL   C48219274   0.120   6.564   4.236  0.4252  0.6646 -0.2159
   37MOL   C48319275   0.093   6.609   4.362 -0.1982 -0.4313 -0.1499
   37MOL   C48419276   0.028   6.532   4.459 -0.2266 -0.1679 -0.5010
   37MOL   H48519277   0.146   6.206   4.025  0.4616 -0.2653 -0.3744
   37MOL   H48619278   0.128   6.036   4.047  4.4895  0.1285  0.7762
   37MOL   H48719279   8.181   6.040   4.194  0.6916  0.9470  1.6689
   37MOL   H48819280   8.114   6.365   4.697 -0.0131 -0.2900  1.1158
   37MOL   H48919281   8.014   6.150   4.769 -0.4662 -0.6898 -0.0211
   37MOL   H49019282   7.961   5.972   4.589  1.2503 -0.4183  0.5752
   37MOL   H49119283   8.048   5.986   4.379 -1.3923 -0.2196  0.4452
   37MOL   H49219284   0.069   6.404   4.092  0.0285  0.5156 -0.1032
   37MOL   H49319285   0.189   6.609   4.166 -0.9105  2.1570 -0.6150
   37MOL   H49419286   0.132   6.703   4.397 -2.4243  0.8897 -1.1002
   37MOL   H49519287   0.016   6.572   4.559  0.6953  0.0916 -0.4894
   37MOL   C49619288   8.105   6.168   4.033  0.6349 -0.5189 -0.5508
   37MOL   C49719289   8.064   6.044   3.952  0.2837 -0.0620 -0.0445
   37MOL   N49819290   8.032   6.073   3.815 -0.6610 -0.3663 -0.3161
   37MOL   C49919291   7.917   6.127   3.759  0.1720  0.0168  0.1233
   37MOL   C50019292   7.921   6.119   3.613  0.4369 -0.0521 -0.1087
   37MOL   C50119293   7.815   6.160   3.540 -0.2897  0.2502 -0.2230
   37MOL   C50219294   7.691   6.199   3.603  0.1607 -0.6025 -0.0918
   37MOL   C50319295   7.685   6.203   3.745  0.5716 -0.2560  0.5659
   37MOL   C50419296   7.798   6.164   3.822  0.4748 -0.0041 -0.2014
   37MOL   C50519297   8.050   6.073   3.577 -0.1620 -0.1624 -0.4097
   37MOL   C50619298   8.112   6.050   3.706 -0.1438 -1.1982 -0.1988
   37MOL   C50719299   0.022   6.013   3.703  0.0564 -0.3578  0.1008
   37MOL   C50819300   0.092   6.006   3.578 -0.1992 -0.9069  0.0881
   37MOL   C50919301   0.027   6.024   3.456 -1.4852  0.9027  0.3792
   37MOL   C51019302   8.118   6.053   3.456  0.1825 -0.1375  0.1723
   37MOL   H51119303   8.013   6.203   4.078  0.2675 -1.6119 -0.4260
   37MOL   H51219304   8.140   6.249   3.970  0.6355  0.1342  0.2827
   37MOL   H51319305   7.975   6.001   3.996  0.1236  0.7325  0.4061
   37MOL   H51419306   7.820   6.149   3.433  0.4264  1.4654 -0.3225
   37MOL   H51519307   7.609   6.231   3.540  0.4517  0.5667  0.1033
   37MOL   H51619308   7.588   6.227   3.786  1.2760  0.6620  1.7265
   37MOL   H51719309   7.788   6.162   3.929  1.6043  0.4852 -0.0870
   37MOL   H51819310   0.077   6.000   3.795  1.8498  1.6975 -0.6375
   37MOL   H51919311   0.200   5.996   3.579  0.2456  2.9420 -0.7984
   37MOL   H52019312   0.082   6.029   3.363  1.7215 -0.4021  2.1598
   37MOL   H52119313   8.074   6.072   3.360  0.0876  0.6638  0.3756
   37MOL   H52219314   8.135   5.960   3.951  0.3847 -0.0141  1.9991
   38MOL     C119315   2.721   5.070   6.703 -0.2976  0.6097 -0.2781
   38MOL     C219316   2.595   5.032   6.624 -1.1589 -0.3449 -0.1676
   38MOL     N319317   2.495   5.138   6.617  0.3027 -0.4416  0.2577
   38MOL     C419318   2.359   5.116   6.649  0.0215  0.1375  0.0760
   38MOL     C519319   2.284   5.238   6.640  0.4173  0.3987  0.5314
   38MOL     C619320   2.144   5.239   6.656 -0.2752 -0.0995 -0.8150
   38MOL     C719321   2.078   5.116   6.679  0.0014  0.1563 -0.0026
   38MOL     C819322   2.155   4.994   6.696  0.4509  0.3487 -0.2812
   38MOL     C919323   2.293   4.992   6.683 -0.5755 -0.1120  0.2445
   38MOL    C1019324   2.381   5.340   6.613  0.4877  0.1083 -0.2040
   38MOL    C1119325   2.507   5.278   6.598  0.1493 -0.0693  0.3336
   38MOL    C1219326   2.621   5.351   6.561  0.3577  1.0694 -0.0814
   38MOL    C1319327   2.607   5.487   6.542 -0.0210 -0.2168  0.0363
   38MOL    C1419328   2.488   5.556   6.557  0.1216  0.2188  0.3774
   38MOL    C1519329   2.376   5.481   6.596 -0.0744 -0.0915  0.2474
   38MOL    H1619330   2.787   4.984   6.710 -1.4968 -0.3233 -0.1094
   38MOL    H1719331   2.695   5.105   6.803  2.3576 -0.3607  0.8002
   38MOL    H1819332   2.552   4.944   6.671 -1.2186  0.5402  1.4759
   38MOL    H1919333   2.095   5.332   6.632 -0.7795 -0.5651 -1.6417
   38MOL    H2019334   1.972   5.099   6.679 -0.2787  1.8638  0.3163
   38MOL    H2119335   2.102   4.902   6.712  0.5048  0.6732  1.8774
   38MOL    H2219336   2.346   4.898   6.678  2.7101  1.7751 -3.5378
   38MOL    H2319337   2.719   5.310   6.541 -0.2766 -0.4625 -0.0842
   38MOL    H2419338   2.696   5.543   6.516 -1.1208  1.5856  0.0613
   38MOL    H2519339   2.482   5.662   6.536  0.0098 -0.0708 -1.1161
   38MOL    H2619340   2.279   5.529   6.585 -0.5115 -1.2685 -1.3039
   38MOL    H2719341   2.781   5.150   6.660  1.9445  0.3794  2.3529
   38MOL    C2819342   2.627   4.994   6.479 -0.1502 -0.1447 -0.2257
   38MOL    C2919343   2.732   4.889   6.448  0.0068 -0.2938 -0.0580
   38MOL    N3019344   2.720   4.761   6.524 -0.4637  0.1516 -0.1821
   38MOL    C3119345   2.814   4.703   6.605 -0.1446 -0.7563 -0.1250
   38MOL    C3219346   2.766   4.575   6.655 -0.8741  0.0129  0.1572
   38MOL    C3319347   2.852   4.504   6.739  0.2959  0.7838  0.1412
   38MOL    C3419348   2.983   4.548   6.770  0.5151  0.1342  0.3576
   38MOL    C3519349   3.029   4.673   6.724 -0.2042  0.5963 -0.4487
   38MOL    C3619350   2.949   4.750   6.640  0.3064 -1.2869  0.5233
   38MOL    C3719351   2.634   4.566   6.606  0.9750  0.2411  0.0291
   38MOL    C3819352   2.609   4.677   6.530  0.3248 -0.3638 -0.0533
   38MOL    C3919353   2.483   4.689   6.467  0.5568  0.7475 -0.2876
   38MOL    C4019354   2.379   4.598   6.486  0.1112  0.4751 -0.1864
   38MOL    C4119355   2.404   4.484   6.563  0.2260  0.2199  0.2212
   38MOL    C4219356   2.535   4.465   6.618  0.0200  0.0151 -0.7267
   38MOL    H4319357   2.531   4.978   6.430 -0.6142  1.0230  0.3005
   38MOL    H4419358   2.662   5.084   6.428 -0.4372 -0.5201 -1.0965
   38MOL    H4519359   2.827   4.925   6.485  0.8139 -1.5682 -0.8514
   38MOL    H4619360   2.825   4.404   6.769  1.6286 -0.2493 -1.9673
   38MOL    H4719361   3.046   4.475   6.818 -1.9737 -0.9452  2.0936
   38MOL    H4819362   3.122   4.708   6.765 -0.8247  0.1255  1.4098
   38MOL    H4919363   2.978   4.847   6.604 -1.2775 -1.4234 -1.2023
   38MOL    H5019364   2.454   4.767   6.399 -0.9680  1.2354  0.9077
   38MOL    H5119365   2.285   4.611   6.434 -1.1290 -1.6219  1.4685
   38MOL    H5219366   2.322   4.414   6.564  2.0196 -1.9138  2.1444
   38MOL    H5319367   2.562   4.378   6.676  0.6493  0.8333  0.2377
   38MOL    C5419368   2.759   4.859   6.304  0.2493  0.1428  0.1637
   38MOL    C5519369   2.867   4.940   6.235  0.2778  0.7103  0.1620
   38MOL    N5619370   2.995   4.919   6.291 -0.8160  0.5927  0.9086
   38MOL    C5719371   3.059   5.012   6.373 -0.2900 -0.1873  0.3602
   38MOL    C5819372   3.189   4.964   6.411 -0.2150  0.0544  0.2968
   38MOL    C5919373   3.263   5.034   6.510  0.2018  0.4577  0.8227
   38MOL    C6019374   3.212   5.152   6.559  0.4266 -0.3008  0.3149
   38MOL    C6119375   3.091   5.207   6.499 -0.5009 -0.3972 -0.1124
   38MOL    C6219376   3.017   5.135   6.410 -0.4214  0.7544  0.3103
   38MOL    C6319377   3.201   4.827   6.357  0.6546 -0.5264 -0.4178
   38MOL    C6419378   3.082   4.805   6.282  0.3119 -0.1799  0.0732
   38MOL    C6519379   3.070   4.679   6.215  0.4041  0.4184 -0.6131
   38MOL    C6619380   3.172   4.586   6.215 -0.3744  0.5877  0.0531
   38MOL    C6719381   3.282   4.603   6.299  0.7647 -0.6423 -0.3318
   38MOL    C6819382   3.293   4.725   6.371  0.5262 -0.8635 -0.5275
   38MOL    H6919383   2.767   4.751   6.297 -1.5556 -0.0660  0.9061
   38MOL    H7019384   2.660   4.871   6.260  0.8561 -0.3962 -1.3648
   38MOL    H7119385   2.837   5.039   6.269 -1.4859  0.0106  0.7286
   38MOL    H7219386   3.352   4.997   6.558  0.4630  0.6220  0.4702
   38MOL    H7319387   3.268   5.203   6.636 -0.9379  1.0235  0.4544
   38MOL    H7419388   3.059   5.303   6.538 -0.1284 -0.6757  0.8922
   38MOL    H7519389   2.924   5.175   6.373 -1.1182 -0.7835  0.3555
   38MOL    H7619390   2.983   4.656   6.156  0.3814  3.2479 -1.7688
   38MOL    H7719391   3.157   4.490   6.168  1.2040  0.0034  0.6932
   38MOL    H7819392   3.368   4.538   6.297  2.5303  1.6220 -0.4233
   38MOL    H7919393   3.376   4.735   6.439  0.1397 -0.0891 -0.1566
   38MOL    C8019394   2.870   4.934   6.081 -0.6537 -0.1357 -0.3181
   38MOL    C8119395   2.742   4.989   6.008  0.4879  0.1005 -0.3760
   38MOL    N8219396   2.685   5.113   6.070  0.0020  0.1815  0.2832
   38MOL    C8319397   2.560   5.129   6.129 -0.2410  0.2191  0.0233
   38MOL    C8419398   2.550   5.257   6.187 -0.2335  0.2338  0.2560
   38MOL    C8519399   2.430   5.289   6.256 -0.6602  0.9100 -0.3877
   38MOL    C8619400   2.326   5.199   6.271 -0.1876  0.3532 -0.3136
   38MOL    C8719401   2.342   5.072   6.210  0.2136  0.3024  0.1632
   38MOL    C8819402   2.454   5.036   6.141 -0.0888  0.0757 -0.4207
   38MOL    C8919403   2.674   5.322   6.159 -0.1099  0.0138 -0.3355
   38MOL    C9019404   2.755   5.236   6.091  0.8044  0.6524  0.7681
   38MOL    C9119405   2.887   5.271   6.046  0.3393 -0.2083 -0.2332
   38MOL    C9219406   2.939   5.399   6.086 -0.0833 -0.3131  0.2741
   38MOL    C9319407   2.864   5.484   6.164 -0.1534  0.3310 -0.2384
   38MOL    C9419408   2.734   5.446   6.196  0.1483  0.6695  0.0046
   38MOL    H9519409   2.955   4.980   6.031 -1.2228  0.6624 -0.5587
   38MOL    H9619410   2.880   4.831   6.048 -1.3990 -0.4156  0.3240
   38MOL    H9719411   2.665   4.912   6.014  0.4986  0.1816  0.8524
   38MOL    H9819412   2.419   5.386   6.302 -0.9834  1.6816 -2.0728
   38MOL    H9919413   2.229   5.227   6.309 -0.2556 -0.4502  0.1219
   38MOL   H10019414   2.262   5.000   6.222 -1.5591  2.0447 -0.9828
   38MOL   H10119415   2.471   4.935   6.108 -0.2074 -1.0079  2.6877
   38MOL   H10219416   2.948   5.209   5.982 -0.5924 -0.2789 -1.0572
   38MOL   H10319417   3.042   5.412   6.057 -0.1516  3.0897  1.3913
   38MOL   H10419418   2.900   5.581   6.194 -1.0996  1.2557 -2.0157
   38MOL   H10519419   2.673   5.504   6.264  0.5241  0.5099  0.4886
   38MOL   C10619420   2.776   5.003   5.857  0.6018  0.7344 -0.0496
   38MOL   C10719421   2.673   5.091   5.765  0.5461  0.2837 -0.1298
   38MOL   N10819422   2.741   5.153   5.650  0.1030 -0.3277  0.1734
   38MOL   C10919423   2.750   5.292   5.637  0.3872 -0.2930  0.1773
   38MOL   C11019424   2.797   5.318   5.509 -0.9182  0.1161  0.2115
   38MOL   C11119425   2.809   5.446   5.467  0.7627  0.2932  0.2329
   38MOL   C11219426   2.775   5.560   5.543 -0.3462 -0.9163  0.0941
   38MOL   C11319427   2.732   5.535   5.677 -0.3268  0.1063 -0.5820
   38MOL   C11419428   2.717   5.401   5.722 -0.1157 -0.6285 -0.2362
   38MOL   C11519429   2.824   5.192   5.449  0.2887 -0.6984  0.9237
   38MOL   C11619430   2.803   5.095   5.546 -0.2670 -0.5600 -0.0911
   38MOL   C11719431   2.837   4.959   5.520 -0.0062 -1.3382 -0.5759
   38MOL   C11819432   2.904   4.930   5.401  0.3003 -0.1536  0.3316
   38MOL   C11919433   2.927   5.023   5.302 -0.7189 -0.0847  0.0486
   38MOL   C12019434   2.881   5.157   5.323 -0.0722  0.8286 -0.4632
   38MOL   H12119435   2.869   5.059   5.850  0.2430  1.2970 -0.3700
   38MOL   H12219436   2.794   4.904   5.815  0.1843 -0.1643  1.8223
   38MOL   H12319437   2.626   5.170   5.824 -1.1537  0.6636 -1.9260
   38MOL   H12419438   2.863   5.465   5.375 -1.2340 -0.4838 -1.1149
   38MOL   H12519439   2.783   5.665   5.519 -1.6581 -0.4696  1.5902
   38MOL   H12619440   2.698   5.617   5.737  2.0826  1.3931 -0.8956
   38MOL   H12719441   2.681   5.378   5.821  2.3859  0.9545  1.0797
   38MOL   H12819442   2.828   4.878   5.591  0.6138 -0.4039  0.5993
   38MOL   H12919443   2.927   4.828   5.373 -1.7421  0.1413 -2.6909
   38MOL   H13019444   2.972   4.998   5.207 -1.3313 -1.8792  0.2214
   38MOL   H13119445   2.909   5.235   5.254 -2.2654  2.1922  0.1159
   38MOL   C13219446   2.553   5.004   5.721 -0.2585  1.1980  0.4359
   38MOL   C13319447   2.409   5.051   5.724  0.7158  0.0090 -0.2234
   38MOL   N13419448   2.391   5.197   5.685  0.1987 -0.1456  0.1769
   38MOL   C13519449   2.342   5.296   5.771  0.0334  0.0748 -0.3564
   38MOL   C13619450   2.338   5.418   5.706 -0.2453 -0.3107  0.7877
   38MOL   C13719451   2.295   5.534   5.776  0.2040  0.1901  0.2829
   38MOL   C13819452   2.245   5.520   5.907  0.1502 -0.1614 -0.7170
   38MOL   C13919453   2.262   5.404   5.978  0.9818 -0.1352  0.2908
   38MOL   C14019454   2.304   5.289   5.907 -0.3970  0.0887  0.2948
   38MOL   C14119455   2.382   5.395   5.571  0.6923  0.0430 -0.1494
   38MOL   C14219456   2.415   5.257   5.563 -0.2514 -0.5010  0.3966
   38MOL   C14319457   2.465   5.205   5.436 -0.3235 -0.4683 -0.8770
   38MOL   C14419458   2.496   5.291   5.330  0.0836  0.4384 -0.3567
   38MOL   C14519459   2.471   5.429   5.344 -0.0383  0.5076  0.9418
   38MOL   C14619460   2.399   5.477   5.456  0.1176  0.5100  0.2682
   38MOL   H14719461   2.586   4.969   5.623 -1.6333  1.7274 -0.2325
   38MOL   H14819462   2.549   4.925   5.796 -3.0656 -0.3863 -1.3243
   38MOL   H14919463   2.379   5.055   5.829 -0.4775 -0.1091 -0.5441
   38MOL   H15019464   2.279   5.633   5.735  2.0324 -1.0363 -3.6057
   38MOL   H15119465   2.215   5.612   5.954  0.3972  0.1728 -1.2162
   38MOL   H15219466   2.251   5.387   6.084  0.8139 -3.1760 -0.1784
   38MOL   H15319467   2.318   5.196   5.960  0.4800 -0.8224 -1.4831
   38MOL   H15419468   2.484   5.099   5.437 -1.2397 -0.7014 -3.7047
   38MOL   H15519469   2.555   5.250   5.249 -0.5974  0.4745 -0.8706
   38MOL   H15619470   2.488   5.498   5.263 -1.3070 -1.0422 -0.6970
   38MOL   H15719471   2.364   5.579   5.458  1.0239  0.8445 -0.3535
   38MOL   C15819472   2.304   4.961   5.646 -0.0037  0.5113 -0.2458
   38MOL   C15919473   2.308   4.803   5.664  0.1610  0.2962  0.4057
   38MOL   N16019474   2.317   4.754   5.793 -0.7907  0.6940  0.2255
   38MOL   C16119475   2.439   4.687   5.836  0.3575  0.7369 -0.2069
   38MOL   C16219476   2.424   4.659   5.973  0.1558  0.2813 -0.1548
   38MOL   C16319477   2.536   4.606   6.047 -0.0692  0.4117 -0.6451
   38MOL   C16419478   2.657   4.585   5.980 -0.1444  0.6303  0.2868
   38MOL   C16519479   2.672   4.616   5.848 -0.0331  0.2261  0.3300
   38MOL   C16619480   2.560   4.664   5.772  0.2642 -0.2923 -0.0807
   38MOL   C16719481   2.289   4.687   6.010  0.0726  0.3080  0.2978
   38MOL   C16819482   2.227   4.754   5.897  0.2545  0.2028 -0.3803
   38MOL   C16919483   2.093   4.801   5.902 -0.5586  0.5801  0.7278
   38MOL   C17019484   2.019   4.789   6.017  0.0448 -0.2636  0.5479
   38MOL   C17119485   2.066   4.719   6.123 -0.2198 -0.0305 -0.3601
   38MOL   C17219486   2.197   4.668   6.119  1.0666 -0.3115 -0.0884
   38MOL   H17319487   2.211   5.004   5.683 -0.5482 -0.5633 -0.3336
   38MOL   H17419488   2.320   4.980   5.540 -1.4716 -1.9619 -0.9556
   38MOL   H17519489   2.398   4.779   5.608  0.3719  0.3145  0.7422
   38MOL   H17619490   2.523   4.587   6.153 -0.3399  0.6820 -0.6292
   38MOL   H17719491   2.743   4.559   6.040 -0.3589 -3.2155 -0.9110
   38MOL   H17819492   2.765   4.592   5.799  0.8305  0.7143  1.6904
   38MOL   H17919493   2.593   4.678   5.671  2.6104 -1.5665  0.4891
   38MOL   H18019494   2.046   4.844   5.815  1.0995 -1.0008 -1.0100
   38MOL   H18119495   1.919   4.828   6.022  0.4180  0.6203  1.2305
   38MOL   H18219496   1.998   4.702   6.206  1.6923 -1.7298  0.9108
   38MOL   H18319497   2.231   4.622   6.210  0.3497  0.5265  0.6098
   38MOL   C18419498   2.191   4.724   5.592 -0.8585 -0.6766  0.0527
   38MOL   C18519499   2.177   4.739   5.433 -0.4989  0.9383 -0.4842
   38MOL   N18619500   2.273   4.655   5.367  0.1591 -0.1240  0.3533
   38MOL   C18719501   2.377   4.702   5.282  0.3400 -0.5280  0.1514
   38MOL   C18819502   2.456   4.593   5.240 -0.1904 -0.1496  0.2428
   38MOL   C18919503   2.553   4.620   5.139  0.0550 -0.4185 -0.4193
   38MOL   C19019504   2.573   4.754   5.099  0.5160  0.0296 -0.1070
   38MOL   C19119505   2.501   4.864   5.155  0.1093  0.1146 -0.0819
   38MOL   C19219506   2.400   4.836   5.243  0.3027 -0.8146 -0.3655
   38MOL   C19319507   2.401   4.472   5.296  0.0776 -0.5288  0.1773
   38MOL   C19419508   2.292   4.515   5.370 -0.1988 -0.7046  0.2181
   38MOL   C19519509   2.213   4.424   5.440 -0.6039  0.0096 -0.5153
   38MOL   C19619510   2.252   4.286   5.444 -0.5823 -0.4339 -0.2287
   38MOL   C19719511   2.358   4.242   5.365 -0.5933  0.2603  0.1228
   38MOL   C19819512   2.438   4.336   5.296  1.0458  0.3063  0.7835
   38MOL   H19919513   2.185   4.622   5.630 -0.9764 -0.3782  0.8323
   38MOL   H20019514   2.099   4.768   5.632 -0.6515  0.5048 -0.7465
   38MOL   H20119515   2.200   4.844   5.418 -1.0357  1.2152  0.6448
   38MOL   H20219516   2.615   4.538   5.107 -2.3497 -2.3209 -0.3322
   38MOL   H20319517   2.647   4.776   5.023  0.2195 -0.5455 -0.5642
   38MOL   H20419518   2.528   4.966   5.130  0.7417 -0.1471 -0.4716
   38MOL   H20519519   2.333   4.919   5.261 -2.2921 -2.9932  0.4284
   38MOL   H20619520   2.126   4.440   5.503 -1.4425 -0.7120 -1.4628
   38MOL   H20719521   2.207   4.209   5.505 -0.0950  1.5825  2.8263
   38MOL   H20819522   2.383   4.137   5.364 -2.3415 -0.1783  0.4509
   38MOL   H20919523   2.523   4.307   5.235 -0.9593 -0.9455 -1.4743
   38MOL   C21019524   2.038   4.699   5.376 -0.9249 -1.1119  0.1785
   38MOL   C21119525   1.921   4.795   5.408 -0.3004 -0.4194  0.3022
   38MOL   N21219526   1.967   4.936   5.406  0.0385  0.0795 -0.6472
   38MOL   C21319527   1.969   5.017   5.516 -0.5421 -0.5314  0.1995
   38MOL   C21419528   2.025   5.143   5.476 -0.1802  0.1426 -0.3697
   38MOL   C21519529   2.036   5.245   5.566 -0.6614 -0.8924 -0.4226
   38MOL   C21619530   1.987   5.230   5.698  0.2942 -0.3451 -0.3868
   38MOL   C21719531   1.927   5.110   5.734 -0.1244  0.4360  0.0688
   38MOL   C21819532   1.914   5.001   5.645  0.1366  0.2775 -0.0647
   38MOL   C21919533   2.059   5.138   5.339 -0.4987 -0.2361 -0.0578
   38MOL   C22019534   2.028   5.004   5.300 -0.4568 -0.8987  0.3810
   38MOL   C22119535   2.064   4.966   5.165  0.9055 -0.6696 -0.0630
   38MOL   C22219536   2.119   5.054   5.073 -0.2466 -0.3801  0.1376
   38MOL   C22319537   2.148   5.187   5.112 -0.0225 -0.0060  0.1583
   38MOL   C22419538   2.124   5.224   5.246 -0.1322  0.2749 -0.7797
   38MOL   H22519539   2.046   4.710   5.268 -0.7025 -1.6464  0.1420
   38MOL   H22619540   2.008   4.596   5.392 -1.1340 -0.9642  0.7795
   38MOL   H22719541   1.892   4.768   5.509  0.0510 -0.8332  0.2936
   38MOL   H22819542   2.080   5.338   5.535  1.1804 -2.0093 -1.2639
   38MOL   H22919543   1.983   5.320   5.759  0.7086 -0.5428 -0.0669
   38MOL   H23019544   1.880   5.106   5.831 -1.7246  1.1658 -0.6722
   38MOL   H23119545   1.873   4.904   5.669  2.9785 -0.5703  1.4735
   38MOL   H23219546   2.041   4.866   5.130 -1.7768 -0.4327  0.8685
   38MOL   H23319547   2.142   5.010   4.977  1.1220 -0.5377  0.5169
   38MOL   H23419548   2.201   5.255   5.046  0.5052  0.4861  1.0846
   38MOL   H23519549   2.168   5.310   5.294  2.1635 -1.5164  0.4332
   38MOL   C23619550   1.798   4.765   5.320 -0.8422  0.1695 -0.0442
   38MOL   C23719551   1.677   4.865   5.326 -0.3453 -0.4544 -0.9928
   38MOL   N23819552   1.692   4.973   5.228  0.2046 -0.2148  0.1841
   38MOL   C23919553   1.713   5.111   5.252 -0.0700  0.2146 -1.2589
   38MOL   C24019554   1.735   5.173   5.128 -0.4657  0.1982 -0.7521
   38MOL   C24119555   1.755   5.314   5.120  0.0922 -0.0108  0.2482
   38MOL   C24219556   1.740   5.390   5.235  0.4919  0.2669  0.1421
   38MOL   C24319557   1.713   5.328   5.356  0.3305 -0.4238 -0.4211
   38MOL   C24419558   1.705   5.187   5.366  0.1070  0.6536  0.0485
   38MOL   C24519559   1.707   5.075   5.022  0.0034 -0.2465 -0.3011
   38MOL   C24619560   1.688   4.951   5.089 -0.3202  0.6198 -0.9424
   38MOL   C24719561   1.659   4.830   5.015 -0.2436 -0.5068 -0.4911
   38MOL   C24819562   1.674   4.833   4.876 -1.3215 -0.4380 -0.3499
   38MOL   C24919563   1.697   4.950   4.806  0.2788  0.1838 -0.4756
   38MOL   C25019564   1.708   5.074   4.877  0.0485  0.5694 -0.3498
   38MOL   H25119565   1.833   4.776   5.218 -1.0845  1.6011  0.0100
   38MOL   H25219566   1.772   4.662   5.342 -1.7405  0.2666 -0.6387
   38MOL   H25319567   1.679   4.915   5.424 -0.1336 -1.4449 -0.4855
   38MOL   H25419568   1.767   5.363   5.024 -0.9201 -0.8840 -0.3380
   38MOL   H25519569   1.740   5.498   5.227 -0.5138  0.1845 -1.0869
   38MOL   H25619570   1.711   5.387   5.446 -1.6440  0.6809 -1.1640
   38MOL   H25719571   1.699   5.154   5.468  2.0865 -0.6035 -0.2034
   38MOL   H25819572   1.637   4.734   5.061  1.9998 -1.6619 -1.7924
   38MOL   H25919573   1.665   4.738   4.826  3.0948 -1.0459 -0.2134
   38MOL   H26019574   1.707   4.948   4.699  0.5703  0.7554 -0.4638
   38MOL   H26119575   1.725   5.163   4.819 -0.4974  2.3977  2.2256
   38MOL   C26219576   1.539   4.801   5.320 -0.1507  0.4203  0.5316
   38MOL   C26319577   1.464   4.762   5.456 -0.0172  0.2841 -0.2857
   38MOL   N26419578   1.485   4.856   5.564 -0.5819 -0.0112 -0.2658
   38MOL   C26519579   1.544   4.823   5.689 -0.0852  0.1523  0.2978
   38MOL   C26619580   1.560   4.942   5.770  1.1162  0.1338 -0.1067
   38MOL   C26719581   1.618   4.929   5.902 -0.2759  0.3670 -0.1540
   38MOL   C26819582   1.662   4.802   5.942 -0.2403 -0.0186  0.0260
   38MOL   C26919583   1.643   4.689   5.865  0.5083 -0.0952 -0.4357
   38MOL   C27019584   1.581   4.699   5.741 -0.1843 -0.1457  0.3488
   38MOL   C27119585   1.491   5.045   5.693  0.0548  0.7049 -0.3764
   38MOL   C27219586   1.453   4.989   5.567 -0.0858 -0.0860 -0.1245
   38MOL   C27319587   1.395   5.068   5.465  0.2936 -0.0581  0.2076
   38MOL   C27419588   1.364   5.201   5.484  0.2152  0.0013 -0.6040
   38MOL   C27519589   1.401   5.263   5.607 -0.3028 -0.0416 -0.1050
   38MOL   C27619590   1.461   5.185   5.711 -0.4072 -0.4064  0.0380
   38MOL   H27719591   1.461   4.862   5.275 -0.4992 -0.1148  0.4036
   38MOL   H27819592   1.554   4.714   5.256 -1.4467  0.5049  0.0998
   38MOL   H27919593   1.510   4.670   5.493  0.3204  1.2437  1.7224
   38MOL   H28019594   1.632   5.014   5.967 -1.2078  0.7802 -0.4988
   38MOL   H28119595   1.688   4.785   6.046 -3.0035  1.0934  0.9354
   38MOL   H28219596   1.674   4.593   5.906 -1.2797 -0.2021  0.7465
   38MOL   H28319597   1.571   4.611   5.679  0.8732 -0.6019  0.8173
   38MOL   H28419598   1.364   5.020   5.374 -1.5358 -3.1069  2.3331
   38MOL   H28519599   1.332   5.257   5.398  0.7867 -0.3532 -1.0498
   38MOL   H28619600   1.367   5.366   5.616  0.7069  0.4778 -1.9774
   38MOL   H28719601   1.510   5.238   5.791  1.2719  2.0129 -2.4846
   38MOL   C28819602   1.307   4.725   5.441  0.0259 -0.5666  0.5356
   38MOL   C28919603   1.283   4.607   5.351  0.2709  0.0242 -0.3791
   38MOL   N29019604   1.353   4.489   5.386 -0.1396  0.1632  0.6433
   38MOL   C29119605   1.450   4.422   5.309 -0.1059 -0.1323  0.3080
   38MOL   C29219606   1.483   4.297   5.369  0.0957  0.2028  0.0326
   38MOL   C29319607   1.563   4.208   5.288  0.0759 -0.1553  0.2704
   38MOL   C29419608   1.620   4.248   5.167 -0.2968  0.0167 -0.3212
   38MOL   C29519609   1.586   4.366   5.115 -0.1834  0.2065  0.0221
   38MOL   C29619610   1.503   4.455   5.179  0.0442 -0.1746 -0.3026
   38MOL   C29719611   1.420   4.295   5.498  0.7979 -0.9877 -0.2022
   38MOL   C29819612   1.336   4.407   5.502 -0.2077 -0.5307  0.0171
   38MOL   C29919613   1.260   4.439   5.619  0.2365 -0.0259  0.2070
   38MOL   C30019614   1.260   4.358   5.729 -0.3396  0.6787  0.5078
   38MOL   C30119615   1.348   4.244   5.730  0.2077  0.1763 -0.2148
   38MOL   C30219616   1.423   4.209   5.613 -0.2640  0.2908 -0.5260
   38MOL   H30319617   1.258   4.709   5.537 -2.3165 -0.0087 -0.5261
   38MOL   H30419618   1.264   4.818   5.404  1.2594  0.4058  1.4741
   38MOL   H30519619   1.324   4.632   5.253  1.2099 -0.6042 -0.1543
   38MOL   H30619620   1.586   4.108   5.323  1.1684 -0.4244 -1.1433
   38MOL   H30719621   1.692   4.186   5.114 -1.9735 -0.7587 -1.7437
   38MOL   H30819622   1.623   4.384   5.015  1.4016 -0.7649  0.4154
   38MOL   H30919623   1.472   4.541   5.122 -0.6314 -0.2870 -0.1079
   38MOL   H31019624   1.200   4.527   5.607  1.6338  0.5453 -3.4121
   38MOL   H31119625   1.202   4.381   5.817 -0.7597  2.2650 -0.1608
   38MOL   H31219626   1.359   4.182   5.818  0.8183 -0.8367 -0.9999
   38MOL   H31319627   1.494   4.128   5.609 -0.8958 -0.2257 -1.3121
   38MOL   C31419628   1.131   4.585   5.327 -0.8803  0.3718 -0.3611
   38MOL   C31519629   1.058   4.696   5.250  0.8610 -0.1995 -0.5388
   38MOL   N31619630   1.134   4.761   5.145 -0.2713  0.0796  0.4718
   38MOL   C31719631   1.175   4.897   5.135 -0.2487  0.7868  0.1438
   38MOL   C31819632   1.264   4.916   5.029  0.0488 -0.8784  0.6143
   38MOL   C31919633   1.332   5.041   5.006  0.3078 -0.3019  0.4910
   38MOL   C32019634   1.281   5.151   5.086 -0.4054  0.4384 -0.0368
   38MOL   C32119635   1.195   5.136   5.192  0.2228  0.4476  0.2877
   38MOL   C32219636   1.134   5.008   5.211  0.2401 -0.4770 -0.0310
   38MOL   C32319637   1.275   4.792   4.963 -0.4776 -0.4077 -1.1727
   38MOL   C32419638   1.193   4.696   5.034 -0.2938  0.1973  0.5429
   38MOL   C32519639   1.190   4.559   4.989  0.2579 -0.0172 -0.2711
   38MOL   C32619640   1.271   4.509   4.889 -0.2309  0.4826 -0.2254
   38MOL   C32719641   1.347   4.605   4.819 -0.5001  0.2540  0.0425
   38MOL   C32819642   1.357   4.745   4.856  0.1479 -0.8542 -0.0859
   38MOL   H32919643   1.135   4.494   5.266  0.3082 -0.0537  0.3344
   38MOL   H33019644   1.071   4.548   5.410  2.4445 -0.8176  1.6197
   38MOL   H33119645   1.032   4.777   5.318 -0.3862 -0.3155 -0.8724
   38MOL   H33219646   1.408   5.047   4.929 -1.1475  1.2944 -0.8375
   38MOL   H33319647   1.321   5.245   5.051  0.2638 -0.1396 -0.8464
   38MOL   H33419648   1.143   5.209   5.253  1.6931  1.4369  0.3711
   38MOL   H33519649   1.068   5.000   5.296  0.8170 -1.2125  0.3588
   38MOL   H33619650   1.119   4.499   5.045 -2.0029  1.6263 -1.2930
   38MOL   H33719651   1.269   4.405   4.860 -1.2733  1.0148 -2.1344
   38MOL   H33819652   1.416   4.577   4.741  0.8192  0.1614  1.2255
   38MOL   H33919653   1.422   4.815   4.807  1.2226  0.2997  2.8631
   38MOL   C34019654   0.921   4.662   5.192 -0.5347 -0.3955 -0.5394
   38MOL   C34119655   0.817   4.597   5.284  0.0037  1.0610 -0.5963
   38MOL   N34219656   0.813   4.651   5.418  0.6826  0.2553  0.2166
   38MOL   C34319657   0.828   4.581   5.542 -0.4095 -0.0973 -0.6006
   38MOL   C34419658   0.828   4.670   5.651  0.3063  0.4057 -0.2166
   38MOL   C34519659   0.856   4.623   5.783 -0.0020  0.0935 -0.0918
   38MOL   C34619660   0.873   4.489   5.811 -0.6876 -0.0638  0.2135
   38MOL   C34719661   0.863   4.400   5.703  0.1038 -0.1483 -0.4844
   38MOL   C34819662   0.843   4.444   5.571 -0.3526  0.0680  0.4668
   38MOL   C34919663   0.795   4.797   5.602  0.5642 -0.9541  0.0350
   38MOL   C35019664   0.786   4.790   5.460 -0.1576  0.0773 -0.1295
   38MOL   C35119665   0.747   4.896   5.378 -0.5187  0.2061  0.1834
   38MOL   C35219666   0.730   5.023   5.439  0.6832  0.0759  0.7651
   38MOL   C35319667   0.740   5.039   5.580  0.1791  0.0306  0.4058
   38MOL   C35419668   0.771   4.928   5.656  0.4319  0.3267 -0.9607
   38MOL   H35519669   0.885   4.761   5.162  0.3270  0.5484  1.4653
   38MOL   H35619670   0.927   4.605   5.099 -1.4515 -0.0182 -0.8434
   38MOL   H35719671   0.850   4.494   5.290  2.2435  1.7566 -0.7410
   38MOL   H35819672   0.856   4.690   5.868  0.1084  4.2364 -3.1755
   38MOL   H35919673   0.889   4.448   5.910  0.4736  0.4931  0.2525
   38MOL   H36019674   0.867   4.294   5.725  1.3390 -0.3378 -1.5267
   38MOL   H36119675   0.840   4.372   5.491  2.3167 -0.6796  0.9656
   38MOL   H36219676   0.748   4.879   5.271 -1.6949  1.8405 -0.1081
   38MOL   H36319677   0.706   5.111   5.382  0.0439  0.0181  0.9413
   38MOL   H36419678   0.732   5.137   5.626 -2.1986 -0.5452  1.2925
   38MOL   H36519679   0.796   4.948   5.759 -0.7521 -0.8402 -0.4335
   38MOL   C36619680   0.672   4.579   5.231  0.3397  0.8212  0.0725
   38MOL   C36719681   0.640   4.517   5.092 -1.0129  0.7071 -0.3221
   38MOL   N36819682   0.721   4.408   5.050 -0.0629 -0.1975  0.4666
   38MOL   C36919683   0.791   4.407   4.924  0.1889 -0.8393  0.2974
   38MOL   C37019684   0.875   4.295   4.923 -0.2318 -0.2735  0.3087
   38MOL   C37119685   0.951   4.269   4.810 -0.2569 -0.0959 -0.2333
   38MOL   C37219686   0.949   4.360   4.699  0.2436 -0.0570  0.2830
   38MOL   C37319687   0.861   4.471   4.700 -0.5867  0.1677  1.0051
   38MOL   C37419688   0.782   4.498   4.814  0.0838 -0.2484  0.4916
   38MOL   C37519689   0.856   4.223   5.047  0.1760 -0.0327  0.3918
   38MOL   C37619690   0.762   4.297   5.120 -0.2705 -0.0407 -0.1131
   38MOL   C37719691   0.715   4.244   5.242 -0.0973  0.1292 -0.9223
   38MOL   C37819692   0.763   4.122   5.294 -0.1002 -0.0936 -0.2153
   38MOL   C37919693   0.847   4.046   5.219 -0.1076  0.1448  0.3893
   38MOL   C38019694   0.892   4.098   5.097  0.1726  0.3148 -0.3624
   38MOL   H38119695   0.607   4.525   5.300 -0.4648 -1.5796 -2.4839
   38MOL   H38219696   0.620   4.674   5.235  0.7759  1.0049  1.8478
   38MOL   H38319697   0.674   4.607   5.040  0.7604  0.1596 -0.1494
   38MOL   H38419698   1.021   4.187   4.821  0.0423  0.1600 -0.2301
   38MOL   H38519699   1.003   4.343   4.607 -0.8270 -2.7822  0.1097
   38MOL   H38619700   0.851   4.542   4.620  1.0617 -0.4829  0.1961
   38MOL   H38719701   0.722   4.586   4.826 -0.5663 -0.9049  2.2033
   38MOL   H38819702   0.644   4.299   5.303 -1.0416 -0.0673 -1.8417
   38MOL   H38919703   0.744   4.081   5.392 -0.6914 -3.2979 -1.6074
   38MOL   H39019704   0.899   3.958   5.254 -0.0307 -0.3932 -1.0451
   38MOL   H39119705   0.953   4.029   5.041 -0.8409 -1.3232  0.5225
   38MOL   C39219706   0.489   4.499   5.065 -0.1109  0.1324  0.5962
   38MOL   C39319707   0.394   4.633   5.069  0.4977 -0.1506  0.0219
   38MOL   N39419708   0.420   4.721   4.955 -0.4073  0.8942 -0.0828
   38MOL   C39519709   0.472   4.852   4.964  0.5610 -0.5543 -0.4517
   38MOL   C39619710   0.487   4.904   4.830 -0.5966 -0.6368  0.1158
   38MOL   C39719711   0.546   5.036   4.818  0.0519 -0.3451  0.8772
   38MOL   C39819712   0.578   5.113   4.932 -0.5883  0.1811  0.0371
   38MOL   C39919713   0.532   5.063   5.053  1.0792 -0.4481 -0.2849
   38MOL   C40019714   0.489   4.933   5.072 -0.2180 -0.1883 -0.9989
   38MOL   C40119715   0.438   4.806   4.740  0.0422 -0.0072 -0.2236
   38MOL   C40219716   0.401   4.691   4.818  0.1082  0.1780 -0.3363
   38MOL   C40319717   0.337   4.577   4.754 -0.0936 -0.4362 -0.3643
   38MOL   C40419718   0.310   4.576   4.617  0.2154  0.2290 -0.0112
   38MOL   C40519719   0.350   4.689   4.531 -0.6661 -0.5647 -0.4003
   38MOL   C40619720   0.408   4.798   4.603 -0.2530  0.3212 -0.7230
   38MOL   H40719721   0.492   4.468   4.960 -0.7746 -0.6776  0.8107
   38MOL   H40819722   0.441   4.418   5.121 -3.2514  1.2226 -0.3834
   38MOL   H40919723   0.434   4.687   5.155 -0.6176 -1.7957  1.6388
   38MOL   H41019724   0.563   5.067   4.716  1.9544  0.7708  1.5152
   38MOL   H41119725   0.619   5.210   4.909 -1.5070  0.6239  0.2510
   38MOL   H41219726   0.545   5.124   5.142 -0.0717  0.1249 -0.4991
   38MOL   H41319727   0.461   4.890   5.167 -0.2731 -0.5826 -1.1925
   38MOL   H41419728   0.293   4.492   4.803  1.4006 -0.6064  0.7249
   38MOL   H41519729   0.251   4.494   4.580 -1.0482  0.4382  1.5091
   38MOL   H41619730   0.321   4.685   4.427 -1.1988 -1.1432 -0.2368
   38MOL   H41719731   0.429   4.887   4.545  1.2491 -0.3192 -1.1781
   38MOL   C41819732   0.250   4.611   5.087  0.3265 -0.2099  0.0784
   38MOL   C41919733   0.217   4.579   5.237 -0.3830  0.1794  0.0117
   38MOL   N42019734   0.261   4.683   5.333 -0.1589 -0.3947  0.6498
   38MOL   C42119735   0.338   4.659   5.452  0.0581 -1.2480 -0.1406
   38MOL   C42219736   0.345   4.787   5.525 -0.4834  0.2639 -0.1425
   38MOL   C42319737   0.429   4.795   5.638  0.1097  0.7205 -0.3682
   38MOL   C42419738   0.496   4.685   5.689 -0.4194  0.3896  0.0820
   38MOL   C42519739   0.478   4.559   5.630 -0.1986  0.0060 -0.5289
   38MOL   C42619740   0.405   4.552   5.502  0.1444  0.2383 -0.1400
   38MOL   C42719741   0.284   4.878   5.442 -0.4099 -0.6688  0.7618
   38MOL   C42819742   0.215   4.812   5.340  0.1075 -0.4164 -0.6400
   38MOL   C42919743   0.127   4.886   5.256 -0.8669 -0.1059  0.5741
   38MOL   C43019744   0.120   5.025   5.263 -0.1298 -0.2363 -0.0179
   38MOL   C43119745   0.197   5.089   5.360 -0.1036 -0.1929  0.0272
   38MOL   C43219746   0.277   5.019   5.452 -0.2630  0.0589 -0.2934
   38MOL   H43319747   0.197   4.702   5.060  0.0710 -0.5335 -0.5142
   38MOL   H43419748   0.223   4.533   5.016 -0.9342 -1.0618  1.4590
   38MOL   H43519749   0.279   4.493   5.264 -0.3162  0.4477  0.7115
   38MOL   H43619750   0.445   4.895   5.674  0.6378  0.8816 -1.0365
   38MOL   H43719751   0.552   4.698   5.781  0.3076 -0.4031 -0.2472
   38MOL   H43819752   0.521   4.466   5.663 -0.7828  0.0107  0.2572
   38MOL   H43919753   0.402   4.459   5.447  1.2393 -0.5325  1.0689
   38MOL   H44019754   0.070   4.843   5.176  0.0564  0.4234 -0.3773
   38MOL   H44119755   0.056   5.083   5.197  1.5766  2.2998  0.4678
   38MOL   H44219756   0.189   5.196   5.376  2.5769  0.0651 -0.1470
   38MOL   H44319757   0.337   5.077   5.520  0.6517 -0.7099 -0.4205
   38MOL   C44419758   0.069   4.539   5.258  1.2733  0.1858 -0.1707
   38MOL   C44519759   0.013   4.426   5.166 -0.4381 -0.2366  0.6590
   38MOL   N44619760   0.115   4.324   5.130 -0.5512  0.1796 -0.1736
   38MOL   C44719761   0.152   4.278   5.001  0.1743 -1.2163 -0.2663
   38MOL   C44819762   0.273   4.203   5.003 -0.5586  0.6470  0.9196
   38MOL   C44919763   0.337   4.175   4.878 -0.0010  0.8398 -0.6641
   38MOL   C45019764   0.273   4.197   4.756  0.5664  0.1144 -0.4909
   38MOL   C45119765   0.150   4.263   4.759  0.2052  0.8062 -0.2867
   38MOL   C45219766   0.086   4.306   4.879  0.5491  0.0151  0.1028
   38MOL   C45319767   0.303   4.181   5.135 -0.1047 -0.2793 -0.1362
   38MOL   C45419768   0.197   4.242   5.214  0.1631  0.3917  0.4368
   38MOL   C45519769   0.203   4.220   5.356 -0.1009  0.2317 -0.2914
   38MOL   C45619770   0.317   4.164   5.415 -0.5164  0.2818  0.5346
   38MOL   C45719771   0.424   4.122   5.335 -0.2002 -0.1476  0.9115
   38MOL   C45819772   0.413   4.113   5.198 -0.3770  0.3948  0.9747
   38MOL   H45919773   0.053   4.517   5.363  0.9357  0.3114 -0.1928
   38MOL   H46019774   0.014   4.632   5.243  2.2639  0.6265 -1.1470
   38MOL   H46119775   8.209   4.467   5.071  0.3587  0.7356  0.8078
   38MOL   H46219776   0.435   4.132   4.889  0.0092  0.6993 -1.2843
   38MOL   H46319777   0.314   4.159   4.663  2.6923 -0.7232  0.7603
   38MOL   H46419778   0.092   4.266   4.668 -0.2911  0.4387  0.0156
   38MOL   H46519779   8.222   4.364   4.879 -0.1994 -1.1545  0.2644
   38MOL   H46619780   0.120   4.269   5.406 -0.3510  2.0972 -2.4254
   38MOL   H46719781   0.329   4.162   5.523 -1.6994 -2.5614  0.6731
   38MOL   H46819782   0.514   4.088   5.383 -0.0352 -0.3405  0.4740
   38MOL   H46919783   0.487   4.078   5.128 -1.2296 -0.8816  0.6910
   38MOL   C47019784   8.114   4.356   5.236 -0.5473  0.2429 -0.2732
   38MOL   C47119785   7.986   4.440   5.240  0.1162 -0.4129  0.5050
   38MOL   N47219786   7.961   4.508   5.114 -0.1604  0.3680 -1.1444
   38MOL   C47319787   7.978   4.641   5.086  0.8326  0.8878 -0.9621
   38MOL   C47419788   7.949   4.662   4.948 -0.0103  0.2426  0.0229
   38MOL   C47519789   7.957   4.796   4.899 -0.3436 -0.2287 -1.1414
   38MOL   C47619790   7.986   4.904   4.984 -0.5268 -0.3482  0.1247
   38MOL   C47719791   8.019   4.878   5.116  0.9839 -0.4782  0.0597
   38MOL   C47819792   8.003   4.751   5.170 -0.0463  0.1443 -0.0750
   38MOL   C47919793   7.921   4.537   4.892 -0.4648  0.3220 -0.8773
   38MOL   C48019794   7.931   4.440   4.993  0.2855 -0.2585  0.1307
   38MOL   C48119795   7.917   4.301   4.965  0.3704 -0.5611  0.5282
   38MOL   C48219796   7.892   4.257   4.837  0.2727  0.1256 -0.4787
   38MOL   C48319797   7.881   4.353   4.730 -0.0629  0.0957  0.0231
   38MOL   C48419798   7.889   4.489   4.765 -0.2245  0.2097 -0.0622
   38MOL   H48519799   8.102   4.255   5.198  0.2895 -0.9082  2.4556
   38MOL   H48619800   8.141   4.334   5.339 -0.4622  1.7260  0.0356
   38MOL   H48719801   8.012   4.523   5.306 -1.0160  0.7876 -0.5303
   38MOL   H48819802   7.951   4.814   4.792 -1.4916  1.5044 -0.8165
   38MOL   H48919803   7.983   5.009   4.957 -4.0928  0.3517  2.7632
   38MOL   H49019804   8.046   4.954   5.188 -1.7823 -0.5163  1.1751
   38MOL   H49119805   8.013   4.731   5.276 -0.4247  0.4066  0.0149
   38MOL   H49219806   7.926   4.237   5.051  0.4677 -1.3650 -0.0732
   38MOL   H49319807   7.873   4.154   4.809  0.5549 -0.2269  0.5917
   38MOL   H49419808   7.865   4.311   4.632  1.3469  0.6549 -0.4679
   38MOL   H49519809   7.878   4.557   4.681 -2.2399 -0.7501 -0.6095
   38MOL   C49619810   7.869   4.360   5.305  0.0470  0.3214 -0.1696
   38MOL   C49719811   7.837   4.398   5.451  1.2341 -0.1847  0.2393
   38MOL   N49819812   7.953   4.385   5.537  0.0385 -0.2511  0.1134
   38MOL   C49919813   8.039   4.493   5.567  0.1428  0.0928 -0.0352
   38MOL   C50019814   8.157   4.447   5.632 -0.3374  0.1731  0.3869
   38MOL   C50119815   0.032   4.538   5.671  0.7440 -0.6757 -0.3923
   38MOL   C50219816   0.030   4.666   5.620 -0.6084  0.4685 -0.3299
   38MOL   C50319817   8.140   4.714   5.562  0.0873 -0.1313  0.3381
   38MOL   C50419818   8.027   4.631   5.544 -0.4260 -0.0223 -0.0850
   38MOL   C50519819   8.139   4.301   5.641  0.5573 -0.7240 -0.5996
   38MOL   C50619820   8.017   4.266   5.577 -0.0613 -0.3209 -0.5519
   38MOL   C50719821   7.982   4.130   5.552 -0.1687 -0.0956  0.3927
   38MOL   C50819822   8.060   4.027   5.602  0.2202  0.2001  0.2863
   38MOL   C50919823   8.182   4.059   5.670  0.0717  0.5570  0.6906
   38MOL   C51019824   8.221   4.199   5.687  0.6919  0.4178 -0.6365
   38MOL   H51119825   7.769   4.367   5.262 -0.9503  0.5842  2.0918
   38MOL   H51219826   7.902   4.256   5.300  0.8914  0.6046 -0.5576
   38MOL   H51319827   7.771   4.321   5.492  1.7946 -0.1785  1.1837
   38MOL   H51419828   0.117   4.503   5.728 -0.0584 -3.5261 -0.8881
   38MOL   H51519829   0.106   4.737   5.649  0.8400 -0.8359 -0.8535
   38MOL   H51619830   8.135   4.820   5.539  1.2637 -0.3038 -0.7348
   38MOL   H51719831   7.935   4.665   5.498 -0.0234 -1.0353 -1.6739
   38MOL   H51819832   7.883   4.111   5.512 -0.2929 -0.2733  0.7829
   38MOL   H51919833   8.034   3.923   5.587  0.9759 -0.3185  2.3829
   38MOL   H52019834   0.023   3.982   5.702 -1.2648 -0.5631  0.8865
   38MOL   H52119835   0.085   4.222   5.741  1.5232 -2.5045 -0.6715
   38MOL   H52219836   7.799   4.500   5.446  2.7024  0.4687  1.8173
   39MOL     C119837   3.130   3.624   4.960 -0.5779  0.5176 -0.0161
   39MOL     C219838   3.227   3.695   5.064  0.0750  0.5572 -0.1304
   39MOL     N319839   3.243   3.836   5.052  0.8794 -0.1299  0.6316
   39MOL     C419840   3.365   3.902   5.047  0.1227 -0.5178  0.0735
   39MOL     C519841   3.348   4.039   5.037  0.3923  0.4292 -1.0095
   39MOL     C619842   3.462   4.122   5.033  0.2790 -0.5937 -0.1258
   39MOL     C719843   3.593   4.072   5.049  0.5698  0.4329  0.6096
   39MOL     C819844   3.609   3.933   5.070  0.5611  0.1689 -0.6539
   39MOL     C919845   3.498   3.849   5.066  0.2163 -0.0586 -0.1359
   39MOL    C1019846   3.205   4.052   5.033  0.2314  0.0304  0.5627
   39MOL    C1119847   3.141   3.930   5.051 -0.2443  1.0030 -0.0217
   39MOL    C1219848   3.001   3.924   5.072 -0.0020  0.2048 -0.4342
   39MOL    C1319849   2.921   4.039   5.056  0.1976  0.9148  0.2914
   39MOL    C1419850   2.984   4.158   5.023  0.1549 -0.1601 -0.3368
   39MOL    C1519851   3.120   4.169   5.018 -0.1075  0.3873 -0.7886
   39MOL    H1619852   3.109   3.521   4.990 -2.8243  0.4221 -1.7780
   39MOL    H1719853   3.177   3.620   4.862  2.2590  0.3371  1.3055
   39MOL    H1819854   3.320   3.648   5.031 -1.0864 -0.0746 -2.6626
   39MOL    H1919855   3.443   4.226   5.012 -0.0802 -0.5247  0.5183
   39MOL    H2019856   3.677   4.139   5.042  0.9010 -0.1100 -0.7371
   39MOL    H2119857   3.708   3.892   5.082  0.3832  0.6212  2.7399
   39MOL    H2219858   3.515   3.742   5.072 -2.3133 -0.4901 -0.1180
   39MOL    H2319859   2.955   3.829   5.095 -1.0615  1.0287  0.9163
   39MOL    H2419860   2.815   4.040   5.076  0.0709 -0.2693 -0.2810
   39MOL    H2519861   2.924   4.248   5.017  1.6663  0.8649 -0.4380
   39MOL    H2619862   3.152   4.272   5.012  0.3229  0.2817 -0.3599
   39MOL    H2719863   3.032   3.667   4.941 -1.5471 -0.7528  1.9387
   39MOL    C2819864   3.195   3.658   5.206 -0.8179 -0.6339 -0.1102
   39MOL    C2919865   3.319   3.661   5.310 -0.6134 -0.3922  0.0385
   39MOL    N3019866   3.270   3.682   5.442 -0.4687 -0.1601  0.6324
   39MOL    C3119867   3.258   3.810   5.498 -0.8705  0.1688  0.0429
   39MOL    C3219868   3.181   3.803   5.622 -0.2286  0.6577  0.5684
   39MOL    C3319869   3.158   3.928   5.693 -0.3712  0.2144 -0.6382
   39MOL    C3419870   3.214   4.050   5.644 -0.0716  0.7600  0.4487
   39MOL    C3519871   3.293   4.052   5.531 -1.0078 -0.2122  0.7029
   39MOL    C3619872   3.312   3.934   5.452  0.0606 -0.0002  0.3152
   39MOL    C3719873   3.150   3.667   5.641 -0.5971  0.4593 -0.4236
   39MOL    C3819874   3.196   3.595   5.525 -0.1059 -0.0181  0.6559
   39MOL    C3919875   3.168   3.457   5.514 -0.3571 -0.2541 -0.8397
   39MOL    C4019876   3.111   3.388   5.625  1.2358 -0.4619 -0.3232
   39MOL    C4119877   3.071   3.457   5.738  0.1481  0.4523  0.5179
   39MOL    C4219878   3.082   3.596   5.744 -0.6272  0.0224 -0.0512
   39MOL    H4319879   3.129   3.738   5.240 -0.8903 -0.0959 -1.4836
   39MOL    H4419880   3.152   3.559   5.215  0.8621 -1.4877 -1.2950
   39MOL    H4519881   3.370   3.752   5.279 -0.3699 -0.9168 -1.1357
   39MOL    H4619882   3.100   3.930   5.783 -2.6201  1.5087 -2.0802
   39MOL    H4719883   3.207   4.141   5.702 -1.4150  2.2134 -1.8901
   39MOL    H4819884   3.345   4.143   5.504 -2.1165 -0.2668 -1.7874
   39MOL    H4919885   3.376   3.928   5.366 -0.8931  0.0352 -0.4072
   39MOL    H5019886   3.190   3.397   5.427 -1.2911  1.2700 -2.1585
   39MOL    H5119887   3.097   3.281   5.621  2.2756 -0.5863 -0.8960
   39MOL    H5219888   3.021   3.404   5.818  0.6134  0.5311  0.8659
   39MOL    H5319889   3.038   3.653   5.824  1.3830  1.3113  0.1629
   39MOL    C5419890   3.413   3.540   5.298  0.5668 -0.0335 -0.2245
   39MOL    C5519891   3.534   3.533   5.402 -0.3979 -0.6606 -0.2531
   39MOL    N5619892   3.601   3.408   5.402 -0.0947 -0.4815 -0.0336
   39MOL    C5719893   3.572   3.295   5.487 -0.3950 -0.2854 -0.0203
   39MOL    C5819894   3.642   3.183   5.431 -0.0769  0.4833  0.2433
   39MOL    C5919895   3.636   3.063   5.505 -0.0407 -0.3198  0.0692
   39MOL    C6019896   3.555   3.040   5.615 -0.6903  0.4884 -0.2154
   39MOL    C6119897   3.483   3.151   5.672 -0.9177  0.0204 -0.1423
   39MOL    C6219898   3.497   3.284   5.606 -0.1935 -0.1671  0.3016
   39MOL    C6319899   3.710   3.221   5.310 -0.6081  0.2433  0.5978
   39MOL    C6419900   3.687   3.363   5.303 -0.5751 -0.0837  0.2664
   39MOL    C6519901   3.753   3.439   5.198 -0.2995 -0.0319 -0.4041
   39MOL    C6619902   3.837   3.377   5.100  0.1952  0.0380 -0.4281
   39MOL    C6719903   3.859   3.244   5.107  0.2503  0.2823  0.1480
   39MOL    C6819904   3.799   3.166   5.210  0.1074  0.3213 -0.2592
   39MOL    H6919905   3.355   3.448   5.307  1.0900 -0.2760  0.7534
   39MOL    H7019906   3.446   3.540   5.194  1.4778 -0.2654  0.0642
   39MOL    H7119907   3.495   3.535   5.504 -0.4188  0.3949 -0.2849
   39MOL    H7219908   3.675   2.973   5.460  2.0322 -1.1409  3.3844
   39MOL    H7319909   3.545   2.941   5.658  0.5991  0.2340 -0.4598
   39MOL    H7419910   3.428   3.141   5.764 -0.3320 -1.7546  0.0344
   39MOL    H7519911   3.438   3.368   5.640 -0.0603 -0.4195  1.1598
   39MOL    H7619912   3.743   3.547   5.197 -1.0797 -0.0671  1.4323
   39MOL    H7719913   3.873   3.440   5.019  1.1722 -0.6236 -0.5141
   39MOL    H7819914   3.919   3.194   5.032 -0.4270  0.4647 -0.5246
   39MOL    H7919915   3.832   3.064   5.218  0.5837  0.5807  1.2730
   39MOL    C8019916   3.625   3.660   5.393  0.3893 -0.3993 -0.1167
   39MOL    C8119917   3.751   3.662   5.488 -0.2843  0.0405  0.1696
   39MOL    N8219918   3.836   3.765   5.437  0.0241 -0.6559  0.1685
   39MOL    C8319919   3.956   3.750   5.366 -0.1066  0.2760  0.2020
   39MOL    C8419920   4.013   3.872   5.339  0.8560 -0.3427  0.1525
   39MOL    C8519921   4.140   3.885   5.282  0.5287  0.1435  0.7118
   39MOL    C8619922   4.216   3.766   5.245  0.1873  0.2542 -0.2747
   39MOL    C8719923   4.154   3.638   5.255 -0.2230  0.7167 -0.6977
   39MOL    C8819924   4.025   3.632   5.320 -0.6274 -0.3538 -0.5353
   39MOL    C8919925   3.925   3.974   5.379  0.1486 -0.0999  0.5070
   39MOL    C9019926   3.817   3.908   5.440  0.7885 -0.2546 -0.2537
   39MOL    C9119927   3.710   3.978   5.498  0.2211  0.2120 -0.4352
   39MOL    C9219928   3.696   4.109   5.485  0.3481  0.0972  0.6128
   39MOL    C9319929   3.806   4.181   5.432  0.3427  0.2935 -0.5105
   39MOL    C9419930   3.926   4.121   5.390 -0.3228  0.6927 -0.4769
   39MOL    H9519931   3.656   3.687   5.291 -1.8920  0.7174 -0.5441
   39MOL    H9619932   3.556   3.742   5.414 -0.3400 -0.8826 -0.6017
   39MOL    H9719933   3.813   3.573   5.477 -0.9228 -0.4036  0.1112
   39MOL    H9819934   4.182   3.984   5.277  0.8835 -0.0689 -0.5935
   39MOL    H9919935   4.314   3.780   5.201 -0.0848  0.5441 -0.8008
   39MOL   H10019936   4.194   3.545   5.217 -0.9697  0.3214 -0.5264
   39MOL   H10119937   3.988   3.534   5.343 -0.2454 -0.0041  1.6449
   39MOL   H10219938   3.626   3.923   5.539  0.8998 -1.2845 -1.0132
   39MOL   H10319939   3.608   4.153   5.530 -0.9805 -0.0082 -1.8054
   39MOL   H10419940   3.801   4.288   5.421 -2.5332  0.3701  1.1201
   39MOL   H10519941   4.012   4.181   5.364 -0.3887  1.0425  0.0908
   39MOL   C10619942   3.719   3.674   5.635 -0.4862  0.3048  0.4980
   39MOL   C10719943   3.837   3.729   5.722  0.4834  0.7716 -0.0908
   39MOL   N10819944   3.807   3.748   5.868  0.2747  0.3434 -0.1918
   39MOL   C10919945   3.803   3.875   5.934 -0.3189 -0.3402  0.0482
   39MOL   C11019946   3.774   3.853   6.076  0.2883  0.4225 -0.6540
   39MOL   C11119947   3.773   3.969   6.162  0.0469 -0.0647  0.2295
   39MOL   C11219948   3.794   4.097   6.105  0.1780 -0.1472 -0.0232
   39MOL   C11319949   3.819   4.116   5.964 -0.1943  0.5893 -0.9367
   39MOL   C11419950   3.821   4.004   5.882 -0.1536  0.5984  0.4941
   39MOL   C11519951   3.758   3.709   6.091 -0.7525  0.1361 -0.2267
   39MOL   C11619952   3.774   3.651   5.966 -0.0104  0.3514  0.0282
   39MOL   C11719953   3.767   3.511   5.954 -0.8247  0.7062  0.1987
   39MOL   C11819954   3.742   3.432   6.063  0.4807 -0.2145  0.3541
   39MOL   C11919955   3.709   3.484   6.189 -0.3254 -0.5949 -0.4215
   39MOL   C12019956   3.720   3.625   6.202  0.2038  0.7056 -0.6248
   39MOL   H12119957   3.637   3.745   5.645  0.4707  1.6594 -1.0908
   39MOL   H12219958   3.683   3.576   5.668 -1.2863  0.6140  0.5590
   39MOL   H12319959   3.856   3.832   5.693  1.7849  0.3749 -0.7192
   39MOL   H12419960   3.765   3.966   6.269 -1.2888  1.6655  0.2103
   39MOL   H12519961   3.787   4.185   6.167  3.0741 -0.5976  1.0302
   39MOL   H12619962   3.831   4.214   5.920  1.5323  1.4411  1.3349
   39MOL   H12719963   3.841   4.017   5.776 -1.1928  0.0069  0.2162
   39MOL   H12819964   3.772   3.473   5.853 -3.0920 -4.0344  1.7190
   39MOL   H12919965   3.736   3.327   6.039 -2.5695 -0.0723  0.3511
   39MOL   H13019966   3.668   3.426   6.271  1.1704  1.1995  1.6415
   39MOL   H13119967   3.700   3.674   6.296 -2.0555 -1.0479 -0.1465
   39MOL   C13219968   3.976   3.655   5.711 -0.5362 -0.1995 -0.2664
   39MOL   C13319969   4.090   3.740   5.771  0.1159  0.0801 -0.0670
   39MOL   N13419970   4.205   3.658   5.807 -0.6833  0.0047  0.4616
   39MOL   C13519971   4.252   3.630   5.936  0.1575 -0.0245 -0.0316
   39MOL   C13619972   4.385   3.575   5.932  0.1989 -0.0783  0.1811
   39MOL   C13719973   4.458   3.549   6.052 -0.2645 -0.2084 -0.3423
   39MOL   C13819974   4.405   3.591   6.181  0.1449  0.7170  0.7660
   39MOL   C13919975   4.275   3.652   6.178  0.2411  0.2965  0.1629
   39MOL   C14019976   4.196   3.657   6.060  0.1552  0.2472  0.3376
   39MOL   C14119977   4.403   3.548   5.790 -0.7977  0.0551  0.4576
   39MOL   C14219978   4.291   3.594   5.716  0.6311  0.1241 -0.2176
   39MOL   C14319979   4.281   3.577   5.581  0.6439 -0.1724 -0.6430
   39MOL   C14419980   4.379   3.508   5.512 -0.1626  0.1620 -0.7044
   39MOL   C14519981   4.496   3.472   5.581  0.0273  0.0487  0.5892
   39MOL   C14619982   4.507   3.485   5.718  0.0468  0.0733  0.0984
   39MOL   H14719983   3.972   3.564   5.769 -1.4446 -0.4950 -0.7854
   39MOL   H14819984   4.002   3.627   5.609 -0.8545  1.3244 -0.7807
   39MOL   H14919985   4.055   3.775   5.868  0.9511 -0.5517  0.4671
   39MOL   H15019986   4.562   3.520   6.051  0.4102  2.0675 -0.0826
   39MOL   H15119987   4.469   3.580   6.267  0.4979 -3.0999  0.1266
   39MOL   H15219988   4.231   3.694   6.267  2.2907 -0.4870  1.5719
   39MOL   H15319989   4.100   3.703   6.078 -0.4580 -1.4966  1.6592
   39MOL   H15419990   4.198   3.626   5.533  0.1850  1.1586  1.4477
   39MOL   H15519991   4.379   3.500   5.404  1.0849 -0.4598 -0.6653
   39MOL   H15619992   4.568   3.413   5.527  0.3624  0.6873  0.3327
   39MOL   H15719993   4.595   3.449   5.770  0.3472 -1.2667 -1.3210
   39MOL   C15819994   4.133   3.875   5.705  0.2954  0.0176 -0.1903
   39MOL   C15919995   4.237   3.959   5.779  0.7660  0.6031 -0.6290
   39MOL   N16019996   4.293   4.061   5.687 -0.3617 -0.2633  0.2004
   39MOL   C16119997   4.422   4.050   5.623 -0.4560 -0.5822  0.2654
   39MOL   C16219998   4.444   4.160   5.531  0.6045  0.6043 -0.5403
   39MOL   C16319999   4.554   4.154   5.446  0.3847 -0.5699 -0.3273
   39MOL   C16420000   4.637   4.042   5.446  0.0708  0.6447  0.5054
   39MOL   C16520001   4.628   3.934   5.540 -0.0307  0.2234 -0.0842
   39MOL   C16620002   4.514   3.944   5.626  0.4639  0.6199 -0.0966
   39MOL   C16720003   4.331   4.246   5.547  0.2490  0.2654  0.2146
   39MOL   C16820004   4.240   4.185   5.639  0.6320  0.2908 -0.1656
   39MOL   C16920005   4.112   4.245   5.666 -0.4304  0.2396  0.3713
   39MOL   C17020006   4.078   4.373   5.604 -0.1940  0.2874 -0.1139
   39MOL   C17120007   4.169   4.432   5.513 -0.0692 -0.7698 -0.2113
   39MOL   C17220008   4.298   4.369   5.482  0.2764  0.5438  0.0751
   39MOL   H17320009   4.183   3.836   5.616 -0.5869 -1.6537  0.0138
   39MOL   H17420010   4.038   3.924   5.688 -0.0965 -0.3608  0.8761
   39MOL   H17520011   4.318   3.894   5.811  1.0801  0.4498 -1.7053
   39MOL   H17620012   4.570   4.229   5.370 -3.1668  0.2311 -0.3737
   39MOL   H17720013   4.717   4.040   5.374  0.9632  0.9214  1.4821
   39MOL   H17820014   4.696   3.850   5.537  0.4535  0.5457  1.3160
   39MOL   H17920015   4.491   3.861   5.691 -0.5860  1.2397  0.3482
   39MOL   H18020016   4.042   4.190   5.728  0.6402  0.2763  1.6369
   39MOL   H18120017   3.984   4.425   5.604  0.2394  1.0842 -0.5366
   39MOL   H18220018   4.144   4.525   5.464 -0.7450 -0.4205  0.7751
   39MOL   H18320019   4.361   4.399   5.400 -0.8025 -3.3070 -2.2766
   39MOL   C18420020   4.186   4.021   5.907 -0.3840  0.2948  0.1130
   39MOL   C18520021   4.275   4.120   5.976 -0.0795 -0.2648 -0.2852
   39MOL   N18620022   4.199   4.201   6.071  0.4596 -0.3006  0.0852
   39MOL   C18720023   4.156   4.328   6.049 -0.1802  0.0652  0.7249
   39MOL   C18820024   4.068   4.370   6.155  0.3010  0.2381 -0.5606
   39MOL   C18920025   3.999   4.497   6.139 -0.1144 -0.5901 -0.2715
   39MOL   C19020026   4.021   4.580   6.023 -0.0421  0.6187 -0.4421
   39MOL   C19120027   4.116   4.541   5.930  0.9794 -0.7813 -0.7633
   39MOL   C19220028   4.178   4.415   5.939  0.3815 -0.1682 -0.2401
   39MOL   C19320029   4.081   4.267   6.258 -0.7476  0.8612 -0.3323
   39MOL   C19420030   4.154   4.165   6.197 -0.1046  0.1497  0.6580
   39MOL   C19520031   4.174   4.041   6.266  0.0914 -0.0234  0.2504
   39MOL   C19620032   4.118   4.020   6.395  0.0340  0.6967 -0.0495
   39MOL   C19720033   4.063   4.126   6.464 -0.6894  0.0292  0.3985
   39MOL   C19820034   4.036   4.244   6.390 -0.0293  0.2236 -0.1687
   39MOL   H19920035   4.100   4.081   5.879 -0.7259  0.1899  0.9324
   39MOL   H20020036   4.140   3.946   5.970  0.2660 -1.3751 -1.3357
   39MOL   H20120037   4.308   4.195   5.904  1.2943 -0.6316 -0.0593
   39MOL   H20220038   3.930   4.522   6.218  0.3844 -0.2721  0.0697
   39MOL   H20320039   3.968   4.672   6.003  1.2701  1.2001 -1.2866
   39MOL   H20420040   4.146   4.603   5.846 -1.3975  0.3401 -0.8149
   39MOL   H20520041   4.233   4.388   5.850  0.1631 -2.6264  0.3411
   39MOL   H20620042   4.222   3.959   6.214 -0.2528  0.9567 -1.6789
   39MOL   H20720043   4.128   3.927   6.448  2.1206  0.2907 -1.1282
   39MOL   H20820044   4.031   4.108   6.566 -1.5320 -1.7019 -0.1422
   39MOL   H20920045   3.973   4.324   6.426 -0.3109 -1.0033  2.1269
   39MOL   C21020046   4.403   4.065   6.036 -0.1430 -0.3310 -0.8571
   39MOL   C21120047   4.526   4.167   6.051  0.9701 -0.0695 -0.0147
   39MOL   N21220048   4.633   4.101   6.128  0.2705 -0.1261 -0.0767
   39MOL   C21320049   4.674   4.130   6.258 -1.1448 -0.0432  1.2196
   39MOL   C21420050   4.775   4.042   6.295 -0.0815  0.1284 -0.4211
   39MOL   C21520051   4.833   4.059   6.424  0.3452 -0.4235  1.1121
   39MOL   C21620052   4.790   4.157   6.512  0.1668 -0.3091 -0.1118
   39MOL   C21720053   4.676   4.233   6.473 -0.0839  0.5766 -0.3165
   39MOL   C21820054   4.624   4.222   6.345  0.5357 -0.8404 -0.3749
   39MOL   C21920055   4.810   3.957   6.182 -0.2637  0.5010  0.8023
   39MOL   C22020056   4.708   3.988   6.085 -0.2799 -0.2368  0.7651
   39MOL   C22120057   4.703   3.915   5.966 -0.2790 -0.1239 -0.3701
   39MOL   C22220058   4.799   3.815   5.944  0.2451  0.5558  0.3424
   39MOL   C22320059   4.892   3.776   6.045 -0.0804  0.5597  0.6352
   39MOL   C22420060   4.904   3.850   6.160  0.6550 -0.6148  0.0455
   39MOL   H22520061   4.394   4.018   6.134 -1.3761 -0.3109 -0.9475
   39MOL   H22620062   4.436   3.985   5.970  0.7919 -1.0841  0.5054
   39MOL   H22720063   4.495   4.256   6.106  0.4164 -0.8527  0.9691
   39MOL   H22820064   4.917   3.994   6.445  0.8060  0.5810  2.4386
   39MOL   H22920065   4.841   4.180   6.605  1.2307  2.0660 -1.2346
   39MOL   H23020066   4.647   4.309   6.544  0.1368  1.4530 -1.1536
   39MOL   H23120067   4.552   4.298   6.318  1.1910  0.5956  1.7727
   39MOL   H23220068   4.649   3.949   5.879  0.9720 -1.8911 -1.8505
   39MOL   H23320069   4.797   3.756   5.854  0.8410 -0.7935  1.1961
   39MOL   H23420070   4.956   3.693   6.020 -1.7041 -0.6691  0.4490
   39MOL   H23520071   4.981   3.829   6.234  1.0122  0.5164 -0.0000
   39MOL   C23620072   4.572   4.232   5.912 -0.0604 -0.0775 -0.0599
   39MOL   C23720073   4.721   4.286   5.918 -0.7944 -0.2752  0.3915
   39MOL   N23820074   4.776   4.287   5.785  0.3959 -0.7138  0.2434
   39MOL   C23920075   4.871   4.201   5.726 -0.2608 -0.0572 -0.4141
   39MOL   C24020076   4.891   4.227   5.587  0.1658  0.0056  0.3037
   39MOL   C24120077   4.966   4.142   5.513  0.2913 -0.3108  0.3876
   39MOL   C24220078   5.047   4.044   5.574  0.6259  0.3095 -0.3547
   39MOL   C24320079   5.033   4.017   5.710  0.5339  1.2089  0.3848
   39MOL   C24420080   4.936   4.093   5.782 -0.3574  0.4026 -0.2108
   39MOL   C24520081   4.803   4.338   5.559 -0.7732 -0.3270  0.4238
   39MOL   C24620082   4.739   4.379   5.679 -0.0404 -0.6888 -0.8058
   39MOL   C24720083   4.653   4.492   5.680  0.0876  0.5154  0.3394
   39MOL   C24820084   4.635   4.571   5.562 -0.1676 -0.6067 -0.6751
   39MOL   C24920085   4.702   4.533   5.445  0.3349 -0.0689  0.0665
   39MOL   C25020086   4.785   4.413   5.442 -0.0265  1.0060  0.5504
   39MOL   H25120087   4.564   4.152   5.838 -0.0486 -0.1458  0.0117
   39MOL   H25220088   4.509   4.316   5.883 -0.4700 -0.4487 -0.2467
   39MOL   H25320089   4.783   4.207   5.961  1.2445  0.3775 -1.2710
   39MOL   H25420090   4.967   4.146   5.405 -0.0049  0.7344  0.4153
   39MOL   H25520091   5.111   3.983   5.513 -1.6935 -0.6465 -1.9123
   39MOL   H25620092   5.098   3.941   5.750  0.9845  0.3102 -1.9661
   39MOL   H25720093   4.911   4.073   5.885  3.2982  1.9093  1.0556
   39MOL   H25820094   4.603   4.524   5.770  1.0461 -1.1084  1.4679
   39MOL   H25920095   4.588   4.668   5.567  0.6890 -0.2330  0.3205
   39MOL   H26020096   4.708   4.605   5.365 -3.6092 -0.2439 -0.4867
   39MOL   H26120097   4.844   4.390   5.355  1.1668  0.1907  1.5558
   39MOL   C26220098   4.748   4.409   6.012  0.7912  0.2679  0.0728
   39MOL   C26320099   4.885   4.404   6.089  0.0843  0.3273 -0.2816
   39MOL   N26420100   5.001   4.408   6.010  0.1688  0.3633  0.0025
   39MOL   C26520101   5.090   4.299   5.991 -0.2208 -0.5447  0.0361
   39MOL   C26620102   5.208   4.348   5.928  0.1437 -0.9880  0.4697
   39MOL   C26720103   5.321   4.266   5.922  0.2996  0.7560  0.3102
   39MOL   C26820104   5.319   4.137   5.973  0.4738  0.5449  0.4474
   39MOL   C26920105   5.199   4.086   6.033 -0.4862 -0.7440 -0.5642
   39MOL   C27020106   5.084   4.163   6.040  0.5093  0.6733  0.5963
   39MOL   C27120107   5.178   4.484   5.888 -0.3593 -0.6942  0.0457
   39MOL   C27220108   5.051   4.515   5.943  0.2088 -0.1928  0.2433
   39MOL   C27320109   5.002   4.651   5.929  0.5060  0.2901 -0.5471
   39MOL   C27420110   5.082   4.752   5.869  0.7071 -0.2909  0.1054
   39MOL   C27520111   5.207   4.715   5.812  0.7374 -0.1446  0.0613
   39MOL   C27620112   5.258   4.589   5.833 -0.0255  0.0018  0.1485
   39MOL   H27720113   4.743   4.498   5.950  0.0456 -0.8663 -1.5422
   39MOL   H27820114   4.677   4.408   6.094  2.4230  2.5499  1.5742
   39MOL   H27920115   4.881   4.309   6.141 -1.8621  0.6909  0.2574
   39MOL   H28020116   5.408   4.303   5.870  0.7524 -1.6072 -0.6736
   39MOL   H28120117   5.404   4.071   5.969 -1.4207 -2.1410  1.7769
   39MOL   H28220118   5.195   3.997   6.094  0.1936 -0.2721  0.1809
   39MOL   H28320119   4.996   4.123   6.089  0.9916 -1.9186 -0.5540
   39MOL   H28420120   4.909   4.673   5.980  0.3667 -2.5736  0.5842
   39MOL   H28520121   5.050   4.854   5.855 -0.0143 -0.7939 -2.1757
   39MOL   H28620122   5.275   4.789   5.773  0.2724 -0.0369 -0.5390
   39MOL   H28720123   5.356   4.574   5.789 -0.4494 -1.3998 -0.3331
   39MOL   C28820124   4.883   4.498   6.209  0.0712 -0.1606 -0.0020
   39MOL   C28920125   5.017   4.521   6.301  0.3209  0.4076 -0.1430
   39MOL   N29020126   5.020   4.644   6.372  0.0791 -0.1694 -0.1165
   39MOL   C29120127   5.108   4.754   6.350  0.3886 -0.7976  0.2624
   39MOL   C29220128   5.084   4.856   6.446 -0.0856 -0.2151 -0.7857
   39MOL   C29320129   5.162   4.975   6.434 -0.4480 -0.1082  0.3297
   39MOL   C29420130   5.256   4.984   6.333 -0.1278 -0.0630 -0.1699
   39MOL   C29520131   5.291   4.877   6.251  0.1574  0.2049  0.2521
   39MOL   C29620132   5.221   4.757   6.259 -0.7147 -0.2804 -0.3190
   39MOL   C29720133   4.973   4.812   6.528  0.5193  0.3698  0.2539
   39MOL   C29820134   4.937   4.686   6.477 -0.3215  0.2235 -0.0817
   39MOL   C29920135   4.827   4.611   6.524  1.2182 -0.9533 -1.0486
   39MOL   C30020136   4.743   4.666   6.627 -0.3290 -1.5948 -0.3960
   39MOL   C30120137   4.773   4.798   6.673 -0.3786 -0.2503  0.2914
   39MOL   C30220138   4.895   4.863   6.634  0.0428  0.2410 -0.4603
   39MOL   H30320139   4.854   4.599   6.181 -2.0102 -1.1177 -1.3909
   39MOL   H30420140   4.805   4.460   6.274  0.4119 -1.7703 -0.5054
   39MOL   H30520141   5.094   4.534   6.226  0.6594  0.1285  0.1568
   39MOL   H30620142   5.140   5.054   6.503  0.7737 -0.3694  1.0322
   39MOL   H30720143   5.312   5.077   6.329 -0.9412  0.4881  0.9133
   39MOL   H30820144   5.370   4.890   6.179 -0.5356 -0.4155 -0.6294
   39MOL   H30920145   5.244   4.670   6.199 -0.3760 -0.5987  0.2690
   39MOL   H31020146   4.807   4.511   6.489  1.9921 -1.0361 -1.2670
   39MOL   H31120147   4.661   4.609   6.668  0.2321 -0.2570  2.7771
   39MOL   H31220148   4.700   4.848   6.735  0.2308 -0.8183  1.4922
   39MOL   H31320149   4.927   4.957   6.676 -0.1646  0.1842 -0.1773
   39MOL   C31420150   5.052   4.388   6.384 -0.2972 -0.5072 -0.0775
   39MOL   C31520151   5.181   4.410   6.468 -0.6795  0.0925 -0.0846
   39MOL   N31620152   5.193   4.314   6.574  0.3552  0.2438 -0.5130
   39MOL   C31720153   5.181   4.338   6.709  0.0963  0.0075 -0.0810
   39MOL   C31820154   5.203   4.220   6.783  0.7911  0.5968  0.3532
   39MOL   C31920155   5.202   4.227   6.926  0.3215 -0.4307  0.2349
   39MOL   C32020156   5.163   4.348   6.990 -0.3304  0.3236  0.1368
   39MOL   C32120157   5.126   4.464   6.914  0.7837 -0.2926 -1.3217
   39MOL   C32220158   5.136   4.456   6.776  0.1288 -0.2383  1.4721
   39MOL   C32320159   5.229   4.112   6.690 -0.8872 -0.2008 -0.3648
   39MOL   C32420160   5.211   4.173   6.565  0.2998  0.0893  1.1338
   39MOL   C32520161   5.224   4.092   6.450 -0.6169  0.7148 -0.3068
   39MOL   C32620162   5.256   3.956   6.465 -0.2959 -0.4793 -0.1802
   39MOL   C32720163   5.274   3.898   6.590 -0.5424  0.0405  0.2605
   39MOL   C32820164   5.265   3.980   6.706 -0.0443 -0.5576  0.2845
   39MOL   H32920165   4.980   4.362   6.461 -0.9180  1.3175 -0.0330
   39MOL   H33020166   5.066   4.303   6.317 -0.9903 -0.6451 -0.0493
   39MOL   H33120167   5.181   4.507   6.517  0.0521 -0.3308  0.7651
   39MOL   H33220168   5.227   4.133   6.972 -0.6304 -1.1903 -0.7594
   39MOL   H33320169   5.171   4.364   7.096  0.5250  0.8544 -0.0070
   39MOL   H33420170   5.106   4.562   6.955  0.9504 -1.0028  0.5034
   39MOL   H33520171   5.110   4.542   6.716  2.6615 -0.6862 -0.3661
   39MOL   H33620172   5.212   4.122   6.347  2.0925  1.9396 -0.3246
   39MOL   H33720173   5.248   3.893   6.377 -1.0105  0.3154 -0.7007
   39MOL   H33820174   5.286   3.791   6.591 -0.9985 -0.0117  0.0836
   39MOL   H33920175   5.282   3.942   6.806 -0.9650 -0.4013  0.4997
   39MOL   C34020176   5.306   4.416   6.385  0.2310  0.2254 -0.1632
   39MOL   C34120177   5.441   4.436   6.455  0.6557  0.9569 -0.3835
   39MOL   N34220178   5.557   4.384   6.378 -0.1083  0.3054 -0.1928
   39MOL   C34320179   5.646   4.288   6.419 -0.2073  0.7069 -0.5708
   39MOL   C34420180   5.753   4.280   6.320  0.0227 -0.1718 -1.0214
   39MOL   C34520181   5.863   4.196   6.347  0.7233  0.1170 -0.3490
   39MOL   C34620182   5.872   4.119   6.467  0.1387 -0.0354  0.4233
   39MOL   C34720183   5.763   4.122   6.554  0.3906 -0.2624 -0.1590
   39MOL   C34820184   5.650   4.207   6.534  0.3927  0.2694 -0.7242
   39MOL   C34920185   5.714   4.370   6.216 -0.2426  0.1123 -0.2240
   39MOL   C35020186   5.595   4.439   6.257 -0.8807 -0.4369 -0.1851
   39MOL   C35120187   5.542   4.548   6.179 -0.1065  0.1953  0.1456
   39MOL   C35220188   5.609   4.583   6.059  0.5471  0.2096 -0.8055
   39MOL   C35320189   5.722   4.507   6.013 -0.6714  0.3357  0.4222
   39MOL   C35420190   5.767   4.403   6.092 -0.8996 -0.0609 -0.5293
   39MOL   H35520191   5.306   4.319   6.335  1.3928 -0.8191  1.7946
   39MOL   H35620192   5.288   4.486   6.303  0.3212  0.2994 -0.1189
   39MOL   H35720193   5.441   4.371   6.543 -0.4075  1.8679  0.3093
   39MOL   H35820194   5.944   4.198   6.277  0.4355  0.7040 -0.6678
   39MOL   H35920195   5.963   4.066   6.493 -0.5043 -1.5720 -0.3845
   39MOL   H36020196   5.775   4.070   6.648  2.4828 -0.0190 -0.2533
   39MOL   H36120197   5.565   4.191   6.598 -0.1262 -0.7834 -1.6595
   39MOL   H36220198   5.465   4.613   6.218 -0.2718 -1.5919  2.9515
   39MOL   H36320199   5.573   4.666   6.001 -2.7260 -1.0570 -0.6544
   39MOL   H36420200   5.776   4.542   5.927 -2.7359  2.6490  0.0115
   39MOL   H36520201   5.854   4.350   6.054  1.0985  2.0944  0.8867
   39MOL   C36620202   5.457   4.579   6.505 -0.0973 -0.4771  0.3808
   39MOL   C36720203   5.589   4.620   6.581 -0.9330 -0.0199 -0.2425
   39MOL   N36820204   5.599   4.769   6.585  0.3203 -0.4243  0.3801
   39MOL   C36920205   5.713   4.841   6.542 -0.3338  0.0699 -0.2523
   39MOL   C37020206   5.685   4.975   6.544 -0.1346 -0.3250 -0.8749
   39MOL   C37120207   5.776   5.069   6.485 -0.2476 -0.7626 -0.5333
   39MOL   C37220208   5.896   5.023   6.430 -0.3321  0.0064  0.1312
   39MOL   C37320209   5.925   4.882   6.429 -0.5261 -0.6045  0.0569
   39MOL   C37420210   5.834   4.795   6.490  0.2590  1.0164 -0.0034
   39MOL   C37520211   5.560   4.988   6.621  0.4045 -0.1014 -0.1484
   39MOL   C37620212   5.511   4.859   6.644 -0.0736  0.4891 -0.1172
   39MOL   C37720213   5.384   4.836   6.706 -0.0104 -0.6036 -0.2822
   39MOL   C37820214   5.303   4.945   6.736  0.5234  0.0616 -0.5954
   39MOL   C37920215   5.353   5.076   6.713 -0.9307 -0.3802  0.4391
   39MOL   C38020216   5.478   5.100   6.656 -0.2624  0.4502 -0.4393
   39MOL   H38120217   5.443   4.647   6.420  2.6986 -1.5129 -0.9663
   39MOL   H38220218   5.374   4.590   6.575 -0.6135  0.0742 -0.3006
   39MOL   H38320219   5.674   4.579   6.527 -1.8088 -1.6545 -0.3907
   39MOL   H38420220   5.752   5.174   6.485  0.1209 -0.6229  2.7560
   39MOL   H38520221   5.961   5.091   6.377  1.6901 -2.4669 -0.6460
   39MOL   H38620222   6.007   4.845   6.370 -0.0305  0.7095 -0.0954
   39MOL   H38720223   5.844   4.688   6.478  0.6256  1.0965 -0.4218
   39MOL   H38820224   5.355   4.738   6.739 -1.2308  0.3576  1.5657
   39MOL   H38920225   5.204   4.935   6.779  0.3966 -3.0224 -1.4672
   39MOL   H39020226   5.289   5.160   6.730  1.3651  1.6897 -0.7754
   39MOL   H39120227   5.516   5.199   6.639 -1.7196  0.9696 -0.7634
   39MOL   C39220228   5.603   4.565   6.727  0.0899  0.0310  0.7465
   39MOL   C39320229   5.749   4.575   6.781 -0.3502  0.5499  0.6408
   39MOL   N39420230   5.747   4.606   6.925  0.2566 -0.2909 -0.3060
   39MOL   C39520231   5.786   4.723   6.992  0.2457 -0.0927 -0.4291
   39MOL   C39620232   5.763   4.708   7.135  0.3448 -0.8604 -0.4170
   39MOL   C39720233   5.791   4.818   7.218 -0.1191 -0.4826 -0.3591
   39MOL   C39820234   5.848   4.933   7.164  1.1197  0.0743  0.9757
   39MOL   C39920235   5.884   4.954   7.028  0.0073  0.6372 -0.1187
   39MOL   C40020236   5.844   4.847   6.944  0.2852 -0.0548  0.1992
   39MOL   C40120237   5.730   4.571   7.158  0.3832 -0.9326 -0.7465
   39MOL   C40220238   5.720   4.512   7.029 -0.6902  0.3076 -0.5403
   39MOL   C40320239   5.677   4.377   7.025  0.5667 -0.4749  0.3101
   39MOL   C40420240   5.654   4.302   7.143 -0.1061  0.2715 -0.1516
   39MOL   C40520241   5.670   4.358   7.271  0.7320  0.5366  0.2965
   39MOL   C40620242   5.698   4.495   7.276 -0.3787 -0.3854 -0.1263
   39MOL   H40720243   5.542   4.629   6.791 -1.6895 -1.6365  0.7715
   39MOL   H40820244   5.575   4.460   6.737  0.0010  0.2340  2.6613
   39MOL   H40920245   5.801   4.660   6.736 -1.1215  0.7709  0.1727
   39MOL   H41020246   5.765   4.815   7.323 -1.8443  0.9277 -0.7259
   39MOL   H41120247   5.867   5.014   7.234 -0.5982 -0.1576  1.7376
   39MOL   H41220248   5.930   5.047   6.998  2.7006 -0.3218  0.9133
   39MOL   H41320249   5.858   4.856   6.837 -0.4133  0.0619  0.1160
   39MOL   H41420250   5.651   4.322   6.936  1.6175  2.3965 -1.8476
   39MOL   H41520251   5.622   4.199   7.135  2.8389 -0.7691  0.9745
   39MOL   H41620252   5.639   4.307   7.361 -2.5977 -0.2187 -1.2099
   39MOL   H41720253   5.715   4.543   7.371  2.8659 -1.2826 -0.1901
   39MOL   C41820254   5.837   4.463   6.724 -0.3975 -0.3887  0.1556
   39MOL   C41920255   5.964   4.434   6.801 -0.2780  0.5865 -0.0519
   39MOL   N42020256   6.034   4.312   6.764 -0.1081 -0.4832  0.4812
   39MOL   C42120257   6.047   4.203   6.848  0.2122  0.5053 -0.0313
   39MOL   C42220258   6.113   4.097   6.774 -0.3206 -0.5758  0.8046
   39MOL   C42320259   6.120   3.972   6.833  0.3234  0.1597  0.4151
   39MOL   C42420260   6.072   3.949   6.966  0.4489  0.2183 -0.3538
   39MOL   C42520261   5.999   4.053   7.030 -0.6438  0.2693 -0.0446
   39MOL   C42620262   5.994   4.180   6.976 -0.2093 -0.0498  0.4923
   39MOL   C42720263   6.150   4.159   6.646 -0.1950  0.5640 -0.2144
   39MOL   C42820264   6.103   4.291   6.641  0.5227  0.9923 -0.3332
   39MOL   C42920265   6.122   4.371   6.530  0.1625  0.3210  0.7046
   39MOL   C43020266   6.181   4.316   6.411 -0.3251 -0.8022 -0.4778
   39MOL   C43120267   6.227   4.181   6.409  0.4557 -0.1463  0.0508
   39MOL   C43220268   6.218   4.111   6.533 -0.9515 -0.7144 -0.6913
   39MOL   H43320269   5.796   4.362   6.735  1.4176 -1.0006  1.4654
   39MOL   H43420270   5.861   4.472   6.619 -0.7648  2.8124  0.3058
   39MOL   H43520271   5.935   4.422   6.905 -2.1830 -1.0671 -0.7439
   39MOL   H43620272   6.176   3.895   6.783 -1.6320 -0.1383 -1.4055
   39MOL   H43720273   6.086   3.850   7.007 -1.5917  0.4199  0.8990
   39MOL   H43820274   5.955   4.033   7.127 -0.2718  0.2094  0.1122
   39MOL   H43920275   5.947   4.258   7.034 -0.7250 -1.0810  1.4878
   39MOL   H44020276   6.088   4.472   6.517  0.4167  0.0854 -2.0340
   39MOL   H44120277   6.176   4.375   6.321 -0.6289 -0.3018 -0.1402
   39MOL   H44220278   6.270   4.134   6.323  2.9940  3.1836 -0.6105
   39MOL   H44320279   6.248   4.007   6.531 -0.7734 -0.6606 -0.8032
   39MOL   C44420280   6.056   4.556   6.812 -0.1669  0.2921  0.2189
   39MOL   C44520281   6.170   4.537   6.913 -0.7639  0.6796 -0.0615
   39MOL   N44620282   6.292   4.621   6.863  0.2027  0.7005  0.1597
   39MOL   C44720283   6.404   4.562   6.799 -0.1251  0.1632 -0.0696
   39MOL   C44820284   6.494   4.665   6.775  0.1979  0.5149  0.2378
   39MOL   C44920285   6.622   4.637   6.722  0.0804 -0.0407 -0.0454
   39MOL   C45020286   6.659   4.501   6.695  0.6695 -0.0165  0.8660
   39MOL   C45120287   6.577   4.398   6.736 -0.2597  0.6882 -0.0433
   39MOL   C45220288   6.451   4.431   6.788 -0.5763  0.2096  0.5034
   39MOL   C45320289   6.429   4.796   6.805  0.1606  0.4765 -0.6570
   39MOL   C45420290   6.295   4.759   6.847  0.4432  0.4083 -0.1157
   39MOL   C45520291   6.197   4.852   6.877  0.1177  0.5719  0.1003
   39MOL   C45620292   6.227   4.985   6.858  0.4843  0.3347 -0.1186
   39MOL   C45720293   6.356   5.027   6.820 -0.6446  0.4270  0.3825
   39MOL   C45820294   6.462   4.932   6.794  0.5578 -0.4134 -0.4031
   39MOL   H45920295   6.090   4.590   6.714  0.1212 -0.9628 -0.1235
   39MOL   H46020296   6.000   4.643   6.846 -1.3130 -0.1721 -0.4340
   39MOL   H46120297   6.198   4.432   6.928  2.5491  1.3330 -1.2256
   39MOL   H46220298   6.682   4.725   6.706 -0.8385  0.9454  1.7405
   39MOL   H46320299   6.756   4.480   6.653  0.1882 -0.7945  0.1302
   39MOL   H46420300   6.608   4.295   6.733  2.8183  1.5405 -0.0089
   39MOL   H46520301   6.390   4.348   6.818  1.0708 -1.2121  0.0139
   39MOL   H46620302   6.104   4.812   6.915  1.7253 -0.7782  2.7795
   39MOL   H46720303   6.148   5.057   6.877  1.1851  1.0303  0.2081
   39MOL   H46820304   6.382   5.132   6.818 -0.6000  0.4151  0.3250
   39MOL   H46920305   6.560   4.966   6.764  0.9887  0.0613  1.4612
   39MOL   C47020306   6.115   4.578   7.051  0.2298  0.1797 -0.0918
   39MOL   C47120307   6.208   4.560   7.168  1.0081 -0.3682 -0.2070
   39MOL   N47220308   6.321   4.647   7.170 -0.0883  0.4648 -0.3353
   39MOL   C47320309   6.455   4.606   7.157 -0.5667 -0.1535  0.3996
   39MOL   C47420310   6.539   4.720   7.162  0.1897  0.6795 -0.3702
   39MOL   C47520311   6.674   4.709   7.138 -0.2292 -0.3953 -0.5392
   39MOL   C47620312   6.736   4.585   7.108  0.2684 -0.3296  0.1023
   39MOL   C47720313   6.655   4.472   7.108  0.3753 -0.2911 -0.3837
   39MOL   C47820314   6.518   4.480   7.135  0.6287 -0.1421  0.7952
   39MOL   C47920315   6.456   4.833   7.185 -1.0844  0.2141 -0.4437
   39MOL   C48020316   6.322   4.785   7.198 -0.0494  0.3831  0.3115
   39MOL   C48120317   6.219   4.877   7.208  0.1788  0.2890 -0.0978
   39MOL   C48220318   6.243   5.010   7.228 -0.0458  0.1258  0.5416
   39MOL   C48320319   6.375   5.063   7.221 -0.8672 -0.1605 -0.2846
   39MOL   C48420320   6.478   4.970   7.201 -0.3354  0.0818  0.4576
   39MOL   H48520321   6.080   4.681   7.057 -1.5008 -0.5094  2.0289
   39MOL   H48620322   6.026   4.519   7.072 -0.1711  1.0628  0.6976
   39MOL   H48720323   6.251   4.462   7.148 -0.1278 -0.9426  0.1477
   39MOL   H48820324   6.737   4.797   7.145  0.6559 -1.0306 -0.3087
   39MOL   H48920325   6.838   4.563   7.080  0.5773  1.6829 -0.4516
   39MOL   H49020326   6.700   4.376   7.084  2.2011  0.3853  0.2267
   39MOL   H49120327   6.453   4.397   7.118 -1.2874  1.1885  1.4581
   39MOL   H49220328   6.119   4.838   7.205  0.3775 -0.2774  0.6990
   39MOL   H49320329   6.158   5.076   7.245 -2.6529 -2.8981 -0.3076
   39MOL   H49420330   6.388   5.170   7.220  0.8403 -0.3493 -0.7663
   39MOL   H49520331   6.575   5.014   7.183  0.2324 -1.4629 -0.3232
   39MOL   C49620332   6.126   4.549   7.305 -0.0271  0.2112  0.3657
   39MOL   C49720333   6.194   4.500   7.434  0.5305  0.9277  0.6207
   39MOL   N49820334   6.112   4.409   7.514  0.6998 -0.4672 -0.3324
   39MOL   C49920335   6.103   4.275   7.490  0.4068  0.7880 -0.4163
   39MOL   C50020336   6.014   4.209   7.579 -0.0260  0.3306 -0.7394
   39MOL   C50120337   5.980   4.074   7.557 -0.3252  0.2962  0.7181
   39MOL   C50220338   6.031   4.009   7.444 -0.4076  0.0151  0.3482
   39MOL   C50320339   6.113   4.071   7.353 -0.2387  0.1793 -0.1115
   39MOL   C50420340   6.147   4.206   7.377  0.0252  0.2846  0.5286
   39MOL   C50520341   5.978   4.306   7.682  0.5570 -0.3980 -0.3421
   39MOL   C50620342   6.045   4.426   7.641 -0.5716  0.3638 -0.5036
   39MOL   C50720343   6.032   4.540   7.724 -0.2839  0.5453  0.2862
   39MOL   C50820344   5.957   4.543   7.844  0.0372 -0.5531  0.9143
   39MOL   C50920345   5.885   4.422   7.875  0.3305 -0.0900 -0.4569
   39MOL   C51020346   5.900   4.306   7.799  1.1369  0.3298  0.5963
   39MOL   H51120347   6.063   4.631   7.340  1.0009  0.7229  1.0649
   39MOL   H51220348   6.053   4.470   7.287  2.3810 -2.2319  1.0507
   39MOL   H51320349   6.226   4.584   7.496 -0.7233  2.7849 -1.1648
   39MOL   H51420350   5.909   4.032   7.627  0.7061  0.6948  2.0264
   39MOL   H51520351   6.008   3.904   7.432  1.8668 -0.5051  0.2944
   39MOL   H51620352   6.148   4.023   7.263 -1.2655  2.5421 -1.8555
   39MOL   H51720353   6.225   4.243   7.312 -1.2433 -2.6092 -2.7965
   39MOL   H51820354   6.093   4.623   7.691  0.0192 -0.5952 -2.1597
   39MOL   H51920355   5.952   4.630   7.907  0.5496  0.2399 -0.1318
   39MOL   H52020356   5.835   4.416   7.970 -0.6843 -1.2972 -1.0454
   39MOL   H52120357   5.852   4.216   7.834  1.7080 -0.0484  0.4048
   39MOL   H52220358   6.283   4.444   7.405 -0.0211 -0.1399  0.9887
   40MOL     C120359   4.568   4.373   2.632 -0.2926 -0.1425  0.3379
   40MOL     C220360   4.618   4.380   2.482 -0.3653  0.4205  0.5175
   40MOL     N320361   4.764   4.384   2.479 -0.0531  0.3408  0.1833
   40MOL     C420362   4.843   4.494   2.436  1.4371  0.3410  0.0840
   40MOL     C520363   4.978   4.465   2.445 -1.2477  0.8961  0.4494
   40MOL     C620364   5.084   4.555   2.403  0.1202 -0.2452  0.4510
   40MOL     C720365   5.047   4.680   2.359 -0.1988 -0.4923 -0.6667
   40MOL     C820366   4.911   4.718   2.358  0.5303 -0.0519  0.3051
   40MOL     C920367   4.806   4.622   2.384  0.5054 -0.5463 -0.7041
   40MOL    C1020368   4.986   4.328   2.489  0.3333  0.7096  0.4758
   40MOL    C1120369   4.851   4.285   2.516  0.2876  0.4736  0.0014
   40MOL    C1220370   4.820   4.160   2.570  0.3515  0.2338 -0.1719
   40MOL    C1320371   4.917   4.067   2.585 -0.8136  0.3497 -0.3927
   40MOL    C1420372   5.054   4.104   2.566  0.2093  0.1877 -0.1145
   40MOL    C1520373   5.087   4.233   2.524  0.5232 -0.1264 -0.5339
   40MOL    H1620374   4.562   4.268   2.661  2.9980 -0.3352  0.5478
   40MOL    H1720375   4.468   4.410   2.650 -0.1061 -0.2305  1.6395
   40MOL    H1820376   4.583   4.480   2.456 -0.4320 -0.1798 -1.7781
   40MOL    H1920377   5.189   4.530   2.410  0.8296  2.2509 -1.0229
   40MOL    H2020378   5.109   4.761   2.325  2.7029 -2.0997  0.6658
   40MOL    H2120379   4.871   4.816   2.337  0.3585 -0.3401 -0.7178
   40MOL    H2220380   4.703   4.653   2.394  0.7693  0.0824  0.1288
   40MOL    H2320381   4.720   4.123   2.585  0.7017 -0.3191  0.8829
   40MOL    H2420382   4.894   3.966   2.616  2.6985 -0.2633  0.5168
   40MOL    H2520383   5.132   4.031   2.588  0.4495  0.8047  1.1510
   40MOL    H2620384   5.191   4.254   2.506  0.1923  1.8078 -0.2646
   40MOL    H2720385   4.626   4.426   2.709 -1.3149  1.1135  0.2588
   40MOL    C2820386   4.553   4.275   2.381  0.8778 -0.2217 -0.4140
   40MOL    C2920387   4.393   4.288   2.374 -0.3116 -0.2620 -0.0628
   40MOL    N3020388   4.347   4.423   2.365  0.8731 -0.1370 -0.5522
   40MOL    C3120389   4.252   4.474   2.457 -0.0984 -0.3935  0.2321
   40MOL    C3220390   4.219   4.613   2.418  0.2031  0.9183 -0.6917
   40MOL    C3320391   4.130   4.690   2.498 -0.6274  0.9911  0.1933
   40MOL    C3420392   4.083   4.635   2.621  0.0575  0.0355  0.9177
   40MOL    C3520393   4.111   4.501   2.653  0.3766  0.4363 -0.3024
   40MOL    C3620394   4.194   4.421   2.571  0.0335 -0.0002  0.0877
   40MOL    C3720395   4.287   4.637   2.294  0.9249  0.2210 -0.1436
   40MOL    C3820396   4.356   4.518   2.259 -0.0482 -0.4624  0.0463
   40MOL    C3920397   4.444   4.523   2.150  0.3076 -0.2509  0.0499
   40MOL    C4020398   4.459   4.639   2.077 -0.4737 -0.0563  0.0146
   40MOL    C4120399   4.384   4.752   2.107  0.9602  0.4676  0.2209
   40MOL    C4220400   4.287   4.750   2.208 -0.4725 -0.1991  0.8682
   40MOL    H4320401   4.607   4.295   2.289  0.5483  1.7042 -0.2135
   40MOL    H4420402   4.573   4.169   2.398 -1.2304 -1.0981 -3.1067
   40MOL    H4520403   4.360   4.243   2.467 -0.4766 -1.7251 -0.8110
   40MOL    H4620404   4.096   4.790   2.472  0.9626  2.1105  2.2813
   40MOL    H4720405   4.015   4.688   2.686 -0.8614 -0.7108  0.5864
   40MOL    H4820406   4.078   4.451   2.743 -2.9263  0.3074 -1.5327
   40MOL    H4920407   4.215   4.322   2.609  2.2797 -0.4582 -2.2156
   40MOL    H5020408   4.514   4.443   2.129  0.1962 -0.4313  0.3672
   40MOL    H5120409   4.533   4.636   1.999 -0.6320  0.1250 -0.1445
   40MOL    H5220410   4.398   4.845   2.055  2.0136  1.1190  1.6262
   40MOL    H5320411   4.243   4.840   2.246 -2.2510 -0.2018 -1.0869
   40MOL    C5420412   4.345   4.207   2.253  0.9310  0.5904  0.5226
   40MOL    C5520413   4.341   4.050   2.272 -0.2662 -0.3185  0.0853
   40MOL    N5620414   4.322   4.007   2.409  0.2293 -0.4084 -0.2946
   40MOL    C5720415   4.409   3.928   2.488 -0.1065  0.4944  0.5479
   40MOL    C5820416   4.369   3.937   2.626  0.2544  0.3156 -0.4791
   40MOL    C5920417   4.459   3.887   2.722  0.0338  0.4545 -0.5672
   40MOL    C6020418   4.588   3.842   2.692  0.6077 -0.4593  0.8131
   40MOL    C6120419   4.621   3.830   2.553  0.3301 -0.3483  0.2026
   40MOL    C6220420   4.530   3.866   2.453 -0.7038  0.0607 -0.5535
   40MOL    C6320421   4.237   3.999   2.628  0.3715  0.2325  0.6426
   40MOL    C6420422   4.210   4.035   2.491 -0.6431 -0.8176 -0.0203
   40MOL    C6520423   4.089   4.105   2.460 -0.0184  0.3145  0.3931
   40MOL    C6620424   3.997   4.139   2.562 -0.7420 -0.0545 -0.3466
   40MOL    C6720425   4.029   4.105   2.691  0.1493  0.0669 -0.1153
   40MOL    C6820426   4.141   4.023   2.723  0.0225 -0.0780 -0.1788
   40MOL    H6920427   4.240   4.231   2.237  0.6123 -0.7592  0.5587
   40MOL    H7020428   4.399   4.228   2.160  2.1739 -1.5920  0.7287
   40MOL    H7120429   4.440   4.022   2.236  0.4385  0.1529  1.6168
   40MOL    H7220430   4.436   3.884   2.828  0.0079  3.4291 -0.4404
   40MOL    H7320431   4.662   3.823   2.769  1.4958 -0.3900 -0.0053
   40MOL    H7420432   4.719   3.793   2.528 -0.6237 -0.8892 -2.8642
   40MOL    H7520433   4.566   3.863   2.351 -0.7477 -0.3726 -0.5546
   40MOL    H7620434   4.066   4.135   2.359 -1.7390 -0.1067  0.6469
   40MOL    H7720435   3.906   4.195   2.544 -1.0275 -0.1402  0.8139
   40MOL    H7820436   3.957   4.135   2.765 -2.2448  0.8566 -2.6882
   40MOL    H7920437   4.144   3.983   2.823  1.4764  0.1678 -0.1250
   40MOL    C8020438   4.256   3.960   2.179 -0.2481  0.0351 -0.3311
   40MOL    C8120439   4.274   3.985   2.026 -0.3587 -0.6470 -0.2095
   40MOL    N8220440   4.402   3.968   1.970  0.0821 -0.3187  0.2183
   40MOL    C8320441   4.463   4.057   1.876  0.0910  0.7046  0.4674
   40MOL    C8420442   4.581   3.995   1.824  0.1790 -0.0143  0.1154
   40MOL    C8520443   4.659   4.073   1.731 -0.2606  0.7250 -0.0972
   40MOL    C8620444   4.617   4.202   1.692  0.4059  0.0282  0.3008
   40MOL    C8720445   4.498   4.252   1.740  0.4294 -0.0471 -0.4488
   40MOL    C8820446   4.426   4.185   1.839  0.5173  0.0387 -0.4840
   40MOL    C8920447   4.589   3.868   1.885 -0.7231  0.4595  1.2212
   40MOL    C9020448   4.477   3.849   1.967 -0.5673  0.7592 -0.0153
   40MOL    C9120449   4.461   3.728   2.039  0.0184  0.0533 -0.1083
   40MOL    C9220450   4.555   3.628   2.028  0.9141 -0.5190  0.3897
   40MOL    C9320451   4.667   3.640   1.948  0.2242 -0.3377 -0.1613
   40MOL    C9420452   4.684   3.761   1.880 -0.8753  0.0200  0.1030
   40MOL    H9520453   4.284   3.856   2.199 -0.9593  0.0689  0.8877
   40MOL    H9620454   4.149   3.966   2.201 -0.7427 -2.9991 -1.6491
   40MOL    H9720455   4.240   4.086   2.007 -1.7835 -1.2692 -1.0498
   40MOL    H9820456   4.749   4.033   1.687  0.1023 -0.1902  1.4191
   40MOL    H9920457   4.670   4.261   1.619  0.8496 -0.3628  0.3050
   40MOL   H10020458   4.461   4.349   1.713  1.6473  0.5996  0.1874
   40MOL   H10120459   4.345   4.243   1.881  1.6791  1.5375 -0.2323
   40MOL   H10220460   4.374   3.712   2.101  1.3933 -0.2919  1.7530
   40MOL   H10320461   4.540   3.532   2.075  0.9390 -0.1900  1.0759
   40MOL   H10420462   4.743   3.564   1.940  1.6481  1.0446  0.0631
   40MOL   H10520463   4.782   3.771   1.836 -1.3043 -1.6623 -1.2766
   40MOL   C10620464   4.169   3.908   1.939 -0.3799  0.0102  0.2587
   40MOL   C10720465   4.021   3.953   1.921  0.5975 -0.5374 -0.2303
   40MOL   N10820466   4.010   4.095   1.913  0.1854 -0.1064  0.2920
   40MOL   C10920467   3.956   4.185   2.006 -0.2161  0.7753 -0.4016
   40MOL   C11020468   3.962   4.317   1.954  0.2216  0.3245 -0.3321
   40MOL   C11120469   3.904   4.421   2.033  0.2261  0.4219  0.0040
   40MOL   C11220470   3.851   4.395   2.165  0.2853 -0.4578 -0.4190
   40MOL   C11320471   3.845   4.259   2.210  0.2945 -0.1309 -0.1950
   40MOL   C11420472   3.895   4.153   2.128 -0.0761 -0.8577 -0.2580
   40MOL   C11520473   4.034   4.313   1.833 -0.3034  0.3651  0.3174
   40MOL   C11620474   4.062   4.172   1.811  0.1816 -0.3548 -0.0001
   40MOL   C11720475   4.132   4.130   1.697  0.2955  0.8901 -0.3450
   40MOL   C11820476   4.179   4.218   1.602  0.7666  0.6447 -0.5238
   40MOL   C11920477   4.145   4.354   1.618  0.6671  0.2175  0.4409
   40MOL   C12020478   4.067   4.402   1.728  0.2201 -0.0785  0.2265
   40MOL   H12120479   4.213   3.898   1.840 -1.7933 -1.1605 -0.2668
   40MOL   H12220480   4.168   3.803   1.968 -1.1922  0.4274  1.8424
   40MOL   H12320481   3.977   3.923   2.017  0.8687 -0.9719 -0.2393
   40MOL   H12420482   3.902   4.521   1.992 -0.5673  0.6470  0.5717
   40MOL   H12520483   3.809   4.482   2.213  0.1306 -0.8069  0.0771
   40MOL   H12620484   3.789   4.227   2.296  0.3017  0.4389  0.0262
   40MOL   H12720485   3.893   4.051   2.163 -0.0022 -0.8067 -0.1035
   40MOL   H12820486   4.153   4.024   1.690 -1.4413  0.3893  1.5252
   40MOL   H12920487   4.230   4.187   1.512  0.7165 -1.4925  0.1612
   40MOL   H13020488   4.163   4.421   1.536  1.1747 -0.8634 -0.3475
   40MOL   H13120489   4.041   4.505   1.746  1.8643  0.7062 -1.7413
   40MOL   C13220490   3.941   3.879   1.811  0.0920 -0.1496 -0.0287
   40MOL   C13320491   3.982   3.726   1.783 -0.3652 -0.4450 -0.5174
   40MOL   N13420492   3.992   3.635   1.899 -0.6429  0.3346 -0.8196
   40MOL   C13520493   4.102   3.550   1.925  0.2682  0.1170  0.6761
   40MOL   C13620494   4.084   3.490   2.052 -0.2528 -0.6282 -0.0421
   40MOL   C13720495   4.183   3.396   2.089  0.0944 -0.5085  0.0721
   40MOL   C13820496   4.293   3.368   2.008  0.3227  0.3750 -0.8053
   40MOL   C13920497   4.307   3.431   1.888  0.1595 -0.2818 -0.4539
   40MOL   C14020498   4.219   3.523   1.846  0.1237  0.2277 -0.7663
   40MOL   C14120499   3.968   3.545   2.111  0.3424  0.5491  0.4473
   40MOL   C14220500   3.910   3.630   2.014 -0.0368 -0.6352 -0.4046
   40MOL   C14320501   3.785   3.695   2.043 -0.4999 -0.6382  0.1854
   40MOL   C14420502   3.721   3.680   2.166  1.5595 -0.3358 -0.0268
   40MOL   C14520503   3.777   3.590   2.254 -0.6436  0.2335  0.9662
   40MOL   C14620504   3.900   3.524   2.233 -0.9393  0.3695 -0.2903
   40MOL   H14720505   3.833   3.889   1.822  0.2407  3.1304 -0.9678
   40MOL   H14820506   3.957   3.946   1.727 -4.3561  0.3012 -0.6738
   40MOL   H14920507   4.086   3.731   1.749 -0.6913  2.6320 -1.1939
   40MOL   H15020508   4.181   3.349   2.187 -0.2336  0.6866  0.6505
   40MOL   H15120509   4.372   3.296   2.028  2.1630  2.1447 -1.4754
   40MOL   H15220510   4.391   3.402   1.827  1.6540 -1.2565  1.9807
   40MOL   H15320511   4.246   3.561   1.748  0.2273  0.7215 -0.5451
   40MOL   H15420512   3.733   3.754   1.969  0.7188  0.3817  0.1179
   40MOL   H15520513   3.621   3.713   2.193  2.4142  1.3223  1.1788
   40MOL   H15620514   3.722   3.557   2.341 -1.7046  2.1369  1.0389
   40MOL   H15720515   3.934   3.445   2.298 -0.2812  0.4368 -0.5505
   40MOL   C15820516   3.885   3.662   1.679 -0.9406  0.5072 -0.2162
   40MOL   C15920517   3.929   3.684   1.527  0.0446  0.8169 -0.2530
   40MOL   N16020518   4.061   3.625   1.486  0.8985 -0.1479 -0.3842
   40MOL   C16120519   4.170   3.703   1.458  0.2663 -0.4321  0.2616
   40MOL   C16220520   4.275   3.619   1.418 -0.2728 -0.1582 -0.5518
   40MOL   C16320521   4.397   3.677   1.393 -0.0220  0.3229 -0.4713
   40MOL   C16420522   4.408   3.814   1.403 -0.3946 -0.8358  0.0219
   40MOL   C16520523   4.305   3.895   1.441 -0.1388 -0.3719  0.6475
   40MOL   C16620524   4.183   3.845   1.472  0.2283  0.5903  0.1744
   40MOL   C16720525   4.230   3.479   1.424 -0.0891  0.3386  0.0777
   40MOL   C16820526   4.100   3.491   1.476  0.0932  0.1380  0.1956
   40MOL   C16920527   4.021   3.377   1.506  0.1929  0.3092  0.5254
   40MOL   C17020528   4.066   3.244   1.480  0.7392  0.6698 -0.1332
   40MOL   C17120529   4.195   3.230   1.439  0.0611 -0.0963 -0.5115
   40MOL   C17220530   4.272   3.346   1.399  0.5704 -0.0765 -0.5380
   40MOL   H17320531   3.893   3.553   1.691 -2.1755  0.5097  0.7221
   40MOL   H17420532   3.784   3.694   1.705 -0.9803  0.2275 -0.0188
   40MOL   H17520533   3.948   3.792   1.529  0.4656  0.7448 -0.2672
   40MOL   H17620534   4.487   3.623   1.370  0.6943 -0.0172  2.7807
   40MOL   H17720535   4.500   3.868   1.390 -1.0670  0.6784  1.2766
   40MOL   H17820536   4.311   4.003   1.437 -2.8837 -0.2619 -3.5782
   40MOL   H17920537   4.105   3.917   1.487 -0.2711  0.0553  0.1696
   40MOL   H18020538   3.923   3.386   1.551  0.5329 -0.5494  1.4387
   40MOL   H18120539   4.004   3.160   1.505 -1.7117  1.9093 -1.8616
   40MOL   H18220540   4.245   3.135   1.427 -0.8289 -0.4408 -1.6584
   40MOL   H18320541   4.377   3.335   1.376  0.4240 -0.6404 -0.9483
   40MOL   C18420542   3.829   3.656   1.413  0.2890  0.0229 -0.0869
   40MOL   C18520543   3.711   3.758   1.417 -0.3519 -0.0501  0.4899
   40MOL   N18620544   3.740   3.892   1.372  0.2216 -0.2680 -0.5076
   40MOL   C18720545   3.734   4.014   1.453  0.1477 -0.1514  0.1144
   40MOL   C18820546   3.788   4.121   1.377  0.6045 -0.3159 -0.2618
   40MOL   C18920547   3.805   4.246   1.440  0.1556 -0.3911 -1.0576
   40MOL   C19020548   3.756   4.267   1.568  1.1918 -0.0408  0.3037
   40MOL   C19120549   3.695   4.166   1.644  0.0444  0.4369 -0.7120
   40MOL   C19220550   3.682   4.039   1.587  0.1415  0.4314  0.1841
   40MOL   C19320551   3.813   4.069   1.251 -0.4833 -0.2982  0.1864
   40MOL   C19420552   3.793   3.930   1.246  0.5275 -0.2763  0.2021
   40MOL   C19520553   3.828   3.863   1.127  0.1439  0.0280  0.0212
   40MOL   C19620554   3.878   3.933   1.014 -0.3801  0.0288  0.1354
   40MOL   C19720555   3.891   4.074   1.019 -0.0660 -0.1570  0.4314
   40MOL   C19820556   3.865   4.136   1.140  0.2416  0.1810 -0.4040
   40MOL   H19920557   3.876   3.664   1.315  2.0674  0.4088  0.7706
   40MOL   H20020558   3.790   3.555   1.404 -2.3964  0.9954  0.3568
   40MOL   H20120559   3.686   3.762   1.523  0.5845  2.8894  0.6315
   40MOL   H20220560   3.855   4.326   1.388 -1.0582  1.4317  0.4845
   40MOL   H20320561   3.771   4.368   1.604  0.3490 -0.4347  1.8253
   40MOL   H20420562   3.669   4.204   1.742 -0.2749 -0.9280 -0.2657
   40MOL   H20520563   3.618   3.970   1.639 -0.1627  0.5989  0.0326
   40MOL   H20620564   3.814   3.756   1.124  0.6612 -0.0062 -1.6749
   40MOL   H20720565   3.914   3.873   0.932 -1.4879 -2.3116  1.3075
   40MOL   H20820566   3.935   4.115   0.930  0.2329 -1.7379 -0.1793
   40MOL   H20920567   3.871   4.244   1.142  0.2662  0.1694  0.6031
   40MOL   C21020568   3.576   3.708   1.353  0.1041  0.2181  0.3716
   40MOL   C21120569   3.506   3.592   1.425 -0.5517  0.4092  0.1183
   40MOL   N21220570   3.499   3.605   1.569  0.1395  0.4109  0.4689
   40MOL   C21320571   3.553   3.514   1.661 -0.3185  0.5168  0.0033
   40MOL   C21420572   3.523   3.565   1.794 -0.2043  0.9551  0.6043
   40MOL   C21520573   3.561   3.478   1.903 -0.5972  0.3365  0.2280
   40MOL   C21620574   3.633   3.361   1.884 -0.0273 -0.0083 -0.6033
   40MOL   C21720575   3.679   3.322   1.759 -0.2521 -0.2946 -0.0490
   40MOL   C21820576   3.640   3.395   1.648  0.1554 -0.9834  0.6662
   40MOL   C21920577   3.461   3.695   1.773  0.0219 -0.1750 -0.2953
   40MOL   C22020578   3.440   3.714   1.633 -0.1768 -0.1173  0.4266
   40MOL   C22120579   3.377   3.831   1.580  0.0063 -0.4988  0.9237
   40MOL   C22220580   3.354   3.935   1.670  0.0356 -0.1417 -0.0988
   40MOL   C22320581   3.367   3.918   1.810 -0.2379  0.0679 -0.3223
   40MOL   C22420582   3.413   3.797   1.859 -0.3467  0.3080 -0.4720
   40MOL   H22520583   3.504   3.789   1.335 -0.2549 -0.6176 -2.1212
   40MOL   H22620584   3.603   3.674   1.254 -1.1841 -3.0724  1.1068
   40MOL   H22720585   3.573   3.506   1.417  1.7405  2.2223 -0.7626
   40MOL   H22820586   3.537   3.512   2.002 -1.1658 -0.3831  0.3404
   40MOL   H22920587   3.665   3.290   1.959 -0.7339 -1.2564 -1.4587
   40MOL   H23020588   3.751   3.242   1.751 -0.2225 -0.2786  0.0686
   40MOL   H23120589   3.669   3.367   1.548 -0.3619 -1.1999  0.5752
   40MOL   H23220590   3.366   3.847   1.474  1.7110 -3.2707  0.2723
   40MOL   H23320591   3.309   4.027   1.636 -0.9459 -1.2785 -1.9328
   40MOL   H23420592   3.342   3.995   1.882 -1.0617 -1.2250  0.8124
   40MOL   H23520593   3.421   3.776   1.965 -0.2918 -0.3395 -0.6032
   40MOL   C23620594   3.373   3.548   1.365  0.1464  0.6514 -0.6695
   40MOL   C23720595   3.368   3.526   1.215  0.2786 -0.1119 -0.4326
   40MOL   N23820596   3.460   3.422   1.170 -0.3497  0.4099  0.2026
   40MOL   C23920597   3.577   3.443   1.091  0.1034 -0.3111 -0.2683
   40MOL   C24020598   3.656   3.327   1.090 -0.2424 -0.0704 -0.1794
   40MOL   C24120599   3.782   3.318   1.022 -0.1741 -0.1912 -0.3581
   40MOL   C24220600   3.824   3.438   0.962  0.3189  0.2514  0.2514
   40MOL   C24320601   3.741   3.552   0.958 -0.2861  0.5636  0.0523
   40MOL   C24420602   3.621   3.556   1.026  0.3578 -0.0556 -0.0233
   40MOL   C24520603   3.586   3.227   1.167  0.0326 -0.4517  0.2356
   40MOL   C24620604   3.463   3.285   1.204 -0.3169 -0.4123 -0.3660
   40MOL   C24720605   3.366   3.207   1.273 -0.0949 -0.0468 -0.1808
   40MOL   C24820606   3.387   3.071   1.304 -0.1938 -0.1585  0.1503
   40MOL   C24920607   3.512   3.023   1.281  0.3555  0.0143  0.1761
   40MOL   C25020608   3.609   3.091   1.204  0.0484  0.4598  0.7111
   40MOL   H25120609   3.335   3.455   1.410  2.9846 -1.1245 -1.8244
   40MOL   H25220610   3.299   3.627   1.378 -1.2521 -0.6388 -0.6277
   40MOL   H25320611   3.411   3.616   1.171 -1.7650  0.2129 -1.8495
   40MOL   H25420612   3.838   3.226   1.017  3.2576  1.7958 -0.3287
   40MOL   H25520613   3.914   3.434   0.902 -0.7132 -1.1500 -1.2384
   40MOL   H25620614   3.785   3.642   0.917  1.7395  0.1029  1.1658
   40MOL   H25720615   3.561   3.645   1.015  0.8885  0.1639 -1.1945
   40MOL   H25820616   3.270   3.244   1.307 -0.8782 -1.2599 -1.0224
   40MOL   H25920617   3.324   3.014   1.372  2.7034 -1.1249  2.0974
   40MOL   H26020618   3.531   2.918   1.300  0.9034 -0.5332 -3.0874
   40MOL   H26120619   3.700   3.035   1.187 -0.1977  0.7272 -1.5924
   40MOL   C26220620   3.226   3.523   1.155  0.8245 -0.4673 -0.9266
   40MOL   C26320621   3.209   3.557   1.007 -0.5854  0.5345  0.8811
   40MOL   N26420622   3.267   3.455   0.918  0.3521  0.6770  0.4772
   40MOL   C26520623   3.360   3.474   0.817  0.4276  0.2060 -0.2612
   40MOL   C26620624   3.405   3.348   0.768  0.1937 -0.9774 -0.1869
   40MOL   C26720625   3.505   3.343   0.669  0.0122 -0.1494  1.5595
   40MOL   C26820626   3.562   3.463   0.619 -0.0431  0.3478  0.1250
   40MOL   C26920627   3.511   3.590   0.661  0.1725 -0.0072  0.1695
   40MOL   C27020628   3.414   3.591   0.766 -0.4076  0.4352 -0.2616
   40MOL   C27120629   3.330   3.244   0.833 -0.8328  0.0613  0.7027
   40MOL   C27220630   3.243   3.316   0.923 -0.3922 -0.9312  0.3180
   40MOL   C27320631   3.151   3.243   1.006  0.2565 -0.4494  0.6534
   40MOL   C27420632   3.142   3.103   0.998 -0.4181  0.3178  0.2107
   40MOL   C27520633   3.224   3.031   0.911 -0.3448 -0.5086 -0.0432
   40MOL   C27620634   3.321   3.104   0.830  0.5095 -0.1936  0.2616
   40MOL   H27720635   3.162   3.444   1.191 -0.6828 -0.0280 -2.5662
   40MOL   H27820636   3.188   3.613   1.204  1.4031  0.5486 -2.2895
   40MOL   H27920637   3.264   3.649   0.989 -2.1005  1.2540 -0.2611
   40MOL   H28020638   3.546   3.257   0.619  0.4592 -0.4880  2.5038
   40MOL   H28120639   3.632   3.471   0.538 -1.0362  1.3773 -0.6452
   40MOL   H28220640   3.541   3.683   0.616  0.0092  0.4018  0.9102
   40MOL   H28320641   3.387   3.688   0.804  3.0055  1.2718  0.2330
   40MOL   H28420642   3.075   3.297   1.061 -0.7725  0.4503 -1.5976
   40MOL   H28520643   3.069   3.052   1.059 -1.6908  0.1996 -1.3692
   40MOL   H28620644   3.238   2.924   0.906 -0.1247 -0.6094  2.4185
   40MOL   H28720645   3.386   3.041   0.770 -2.3688 -1.1854 -1.9365
   40MOL   C28820646   3.067   3.595   0.967 -0.1890 -0.1791  0.1627
   40MOL   C28920647   3.040   3.634   0.816 -0.5851 -0.6772  0.4183
   40MOL   N29020648   2.979   3.523   0.735  0.2087  0.7994 -0.4303
   40MOL   C29120649   3.015   3.479   0.610 -0.3850  0.3007  0.0322
   40MOL   C29220650   2.930   3.374   0.571 -0.4914  0.4679 -1.1390
   40MOL   C29320651   2.952   3.312   0.451 -0.0884 -0.0984  0.8031
   40MOL   C29420652   3.058   3.354   0.371  0.4910 -0.0529 -0.2217
   40MOL   C29520653   3.136   3.468   0.397 -0.2600 -0.0849 -1.1828
   40MOL   C29620654   3.117   3.526   0.525 -0.1425  0.5661  0.2866
   40MOL   C29720655   2.838   3.351   0.673 -0.2281  0.4706  0.2541
   40MOL   C29820656   2.864   3.446   0.770 -0.7898  0.3319 -0.0509
   40MOL   C29920657   2.773   3.455   0.881 -0.1218  0.1798 -0.4409
   40MOL   C30020658   2.668   3.365   0.896 -0.0263 -1.3277  0.3891
   40MOL   C30120659   2.651   3.262   0.802  0.2799  0.2357 -0.4496
   40MOL   C30220660   2.737   3.255   0.694 -0.7111  0.3427  0.9240
   40MOL   H30320661   3.010   3.504   0.985 -0.1018 -0.4969 -1.1415
   40MOL   H30420662   3.039   3.669   1.042  0.9496 -0.3942  0.8028
   40MOL   H30520663   3.137   3.650   0.769  0.2416 -2.4069  1.4677
   40MOL   H30620664   2.885   3.231   0.427 -2.0749  1.6411  0.3689
   40MOL   H30720665   3.061   3.310   0.273  0.2185 -0.4849 -0.0396
   40MOL   H30820666   3.213   3.504   0.331 -0.6362 -0.7041 -1.9622
   40MOL   H30920667   3.195   3.596   0.548  0.2057  0.1231  0.4674
   40MOL   H31020668   2.787   3.545   0.938  3.1960  0.0526 -0.9783
   40MOL   H31120669   2.602   3.380   0.979 -0.2229 -0.3173  0.0635
   40MOL   H31220670   2.576   3.184   0.806  2.1648 -1.5723  0.5874
   40MOL   H31320671   2.722   3.182   0.615  0.4604  1.0273  0.0551
   40MOL   C31420672   2.965   3.765   0.788  0.3160 -0.7726  0.3409
   40MOL   C31520673   3.007   3.893   0.849 -0.2095  0.4101 -0.0140
   40MOL   N31620674   3.159   3.919   0.845  0.4075  0.2433 -0.6274
   40MOL   C31720675   3.238   3.942   0.959 -0.2611  0.4433 -0.1106
   40MOL   C31820676   3.375   3.949   0.926  0.1433  0.1253  0.2560
   40MOL   C31920677   3.468   3.975   1.029  0.3716 -0.0014 -0.2022
   40MOL   C32020678   3.422   3.986   1.162 -0.1357 -0.0105 -0.3602
   40MOL   C32120679   3.287   3.974   1.192 -0.8445  0.1868  0.1454
   40MOL   C32220680   3.196   3.960   1.090 -0.4503  0.8149  0.4353
   40MOL   C32320681   3.378   3.942   0.782 -0.2882  0.7696  0.7107
   40MOL   C32420682   3.244   3.922   0.733  0.9078  0.1555  0.5679
   40MOL   C32520683   3.216   3.908   0.598 -0.6145  0.2759  0.6713
   40MOL   C32620684   3.318   3.917   0.499 -0.4716 -0.2973 -0.0975
   40MOL   C32720685   3.449   3.931   0.543 -0.1419 -0.5962  0.4124
   40MOL   C32820686   3.479   3.951   0.682  0.1860  0.2384  0.5088
   40MOL   H32920687   2.950   3.768   0.680 -0.2238  0.3929  0.4381
   40MOL   H33020688   2.864   3.745   0.824 -0.6957  2.0784 -0.7259
   40MOL   H33120689   2.969   3.885   0.951 -0.0019 -2.0638 -0.1146
   40MOL   H33220690   3.575   3.975   1.012  0.5751 -0.8892  1.0471
   40MOL   H33320691   3.493   3.992   1.244 -0.4230  0.8172 -0.1603
   40MOL   H33420692   3.251   3.979   1.294 -0.5360  0.5502  0.2368
   40MOL   H33520693   3.090   3.955   1.110 -0.3859  0.5580  0.7116
   40MOL   H33620694   3.114   3.896   0.563 -0.9155 -1.1473  1.9827
   40MOL   H33720695   3.295   3.915   0.393 -0.3142  2.8918 -0.2345
   40MOL   H33820696   3.524   3.940   0.465 -0.3127  0.6997  0.3928
   40MOL   H33920697   3.581   3.964   0.713 -0.0499 -0.8929  1.8140
   40MOL   C34020698   2.938   4.017   0.791 -0.3263 -0.5271 -0.5971
   40MOL   C34120699   2.785   4.034   0.790  0.5399  0.3856  0.1838
   40MOL   N34220700   2.720   4.020   0.916 -0.4495 -0.3020 -0.0039
   40MOL   C34320701   2.600   3.953   0.930  0.2534  0.3492  0.4499
   40MOL   C34420702   2.551   3.960   1.062  0.1394  0.7686 -0.7251
   40MOL   C34520703   2.430   3.899   1.091 -0.2068 -0.2002  0.3504
   40MOL   C34620704   2.367   3.823   0.996  0.0442 -1.1196  0.4263
   40MOL   C34720705   2.413   3.803   0.868 -0.3400 -0.1220 -0.5870
   40MOL   C34820706   2.529   3.874   0.830  0.1995  0.1120  0.0098
   40MOL   C34920707   2.643   4.034   1.128  0.4264  0.2001 -0.5174
   40MOL   C35020708   2.748   4.075   1.042 -0.3345 -0.8239 -0.1555
   40MOL   C35120709   2.863   4.147   1.091  0.0912  0.0504 -0.3222
   40MOL   C35220710   2.874   4.177   1.229  0.5620  0.1626  0.4139
   40MOL   C35320711   2.762   4.146   1.310 -0.7995 -0.4252  0.0682
   40MOL   C35420712   2.649   4.084   1.259  0.4597  0.0619 -0.2477
   40MOL   H35520713   2.981   4.105   0.838 -0.0445 -1.0608  0.1525
   40MOL   H35620714   2.972   4.036   0.690  0.9607  1.0721  0.1212
   40MOL   H35720715   2.739   3.962   0.723 -0.0940  1.6305 -0.7469
   40MOL   H35820716   2.385   3.921   1.187  0.4414  0.4056  0.5173
   40MOL   H35920717   2.274   3.775   1.024  0.7229 -1.1210  2.7023
   40MOL   H36020718   2.355   3.751   0.793 -0.6309 -0.0119 -0.4367
   40MOL   H36120719   2.575   3.859   0.734  1.7268  0.4235  0.6742
   40MOL   H36220720   2.949   4.159   1.028  0.6792  1.3679  0.7143
   40MOL   H36320721   2.962   4.224   1.270  0.5676 -0.2528  0.8789
   40MOL   H36420722   2.771   4.167   1.415  1.3495  1.1590 -0.4109
   40MOL   H36520723   2.565   4.073   1.326  0.3324  0.4970 -0.3362
   40MOL   C36620724   2.742   4.167   0.721  0.0413  0.0278  0.3603
   40MOL   C36720725   2.760   4.167   0.571  0.5382 -0.0836 -0.1617
   40MOL   N36820726   2.669   4.059   0.518  0.0157  0.0539  0.0261
   40MOL   C36920727   2.715   3.938   0.466  1.0214 -0.3585  0.1779
   40MOL   C37020728   2.603   3.854   0.429 -0.3044  0.6523  0.1021
   40MOL   C37120729   2.624   3.728   0.375 -0.0337  0.1168  0.4087
   40MOL   C37220730   2.759   3.686   0.344  0.0177  0.2055  0.2996
   40MOL   C37320731   2.869   3.768   0.369 -0.3137  0.4762  0.1432
   40MOL   C37420732   2.849   3.901   0.422  0.7027 -0.0237 -0.0234
   40MOL   C37520733   2.489   3.924   0.452  0.6397  0.1261 -0.5951
   40MOL   C37620734   2.531   4.047   0.518 -0.2241 -0.5296 -0.1684
   40MOL   C37720735   2.429   4.140   0.559  0.0571 -0.3152 -0.5181
   40MOL   C37820736   2.294   4.120   0.545 -0.4548 -0.4071  0.3272
   40MOL   C37920737   2.253   4.001   0.480 -0.0026  0.3625  0.3301
   40MOL   C38020738   2.347   3.904   0.433 -0.5678 -0.2083  0.7396
   40MOL   H38120739   2.639   4.180   0.754  0.4477  0.8245  1.3377
   40MOL   H38220740   2.808   4.246   0.758 -0.3254  0.5842 -0.1778
   40MOL   H38320741   2.863   4.138   0.555  1.3473  1.8756  1.2991
   40MOL   H38420742   2.538   3.663   0.364 -0.4024  0.2165  2.3820
   40MOL   H38520743   2.780   3.581   0.328  0.2794  0.5255 -1.5980
   40MOL   H38620744   2.965   3.723   0.348 -0.2867  1.4456 -1.9303
   40MOL   H38720745   2.932   3.971   0.424  0.2535  0.4773  1.2322
   40MOL   H38820746   2.471   4.226   0.609  0.6740 -1.1262  0.3638
   40MOL   H38920747   2.227   4.195   0.585 -2.3329 -2.0634  0.3498
   40MOL   H39020748   2.146   3.988   0.469  0.0822  1.1224 -1.4476
   40MOL   H39120749   2.322   3.809   0.389 -1.4542  0.6645 -0.6846
   40MOL   C39220750   2.731   4.304   0.495 -0.0919 -0.4416  0.2723
   40MOL   C39320751   2.841   4.411   0.512  0.5701 -0.0609 -0.3015
   40MOL   N39420752   2.970   4.347   0.493  0.4825 -0.5830  0.1708
   40MOL   C39520753   3.066   4.319   0.592 -0.1807 -0.5424  0.6361
   40MOL   C39620754   3.184   4.263   0.536 -0.2720 -0.8137  0.3610
   40MOL   C39720755   3.296   4.247   0.618  0.2777 -0.4362 -0.4553
   40MOL   C39820756   3.288   4.282   0.751  0.3024  0.3380  0.2126
   40MOL   C39920757   3.168   4.322   0.810 -0.3850  0.3947  0.7880
   40MOL   C40020758   3.058   4.340   0.729  0.2930  0.1858  0.9455
   40MOL   C40120759   3.152   4.249   0.399  0.5813  0.0446  0.1340
   40MOL   C40220760   3.021   4.303   0.376  0.3026  0.2090 -0.6064
   40MOL   C40320761   2.969   4.310   0.249  0.3156  0.2062  0.2260
   40MOL   C40420762   3.029   4.254   0.134 -0.1514  0.3102 -0.5167
   40MOL   C40520763   3.160   4.206   0.154 -0.2059 -0.0840 -0.3547
   40MOL   C40620764   3.219   4.193   0.288  0.0583 -0.0995  1.1672
   40MOL   H40720765   2.729   4.290   0.387  1.7015 -0.4545  0.2185
   40MOL   H40820766   2.637   4.353   0.518  1.0820  2.4779 -0.9738
   40MOL   H40920767   2.838   4.433   0.618  0.1222 -3.3541  0.3988
   40MOL   H41020768   3.393   4.208   0.588 -0.5882 -2.1959 -1.0003
   40MOL   H41120769   3.373   4.265   0.815 -0.1371  0.9190  0.9524
   40MOL   H41220770   3.158   4.344   0.915 -1.4961  2.9322  0.2105
   40MOL   H41320771   2.964   4.368   0.775 -0.9706 -1.8096 -0.3281
   40MOL   H41420772   2.869   4.347   0.234 -0.1533 -0.4177  1.7861
   40MOL   H41520773   2.980   4.272   0.039 -1.4596 -0.7176 -0.0440
   40MOL   H41620774   3.225   4.189   0.069 -1.2393 -0.1635 -1.1429
   40MOL   H41720775   3.324   4.166   0.290  0.7044  2.1838  0.6994
   40MOL   C41820776   2.818   4.550   0.435 -0.6441 -0.1273  0.2447
   40MOL   C41920777   2.942   4.631   0.405  1.2817  0.3909 -0.2647
   40MOL   N42020778   2.920   4.741   0.317  0.3560 -0.0403 -0.3574
   40MOL   C42120779   2.989   4.752   0.190  0.0631 -0.6903  0.0416
   40MOL   C42220780   2.946   4.878   0.134  0.0691  0.4425  0.4825
   40MOL   C42320781   3.008   4.916   0.009  0.5207  0.1705  0.1638
   40MOL   C42420782   3.095   4.830   8.165 -0.2500 -0.3786 -0.0355
   40MOL   C42520783   3.129   4.707   0.001 -0.2677  0.0658 -0.0435
   40MOL   C42620784   3.081   4.671   0.126  0.3947 -0.4653 -0.2893
   40MOL   C42720785   2.853   4.937   0.223  0.3878  0.1915 -0.3778
   40MOL   C42820786   2.842   4.851   0.335  1.2049 -0.4616  0.2858
   40MOL   C42920787   2.759   4.884   0.445  0.3463 -0.0869  1.2481
   40MOL   C43020788   2.691   5.007   0.439 -0.0116 -0.1559 -0.3385
   40MOL   C43120789   2.717   5.106   0.345  0.0740 -0.1031 -0.1840
   40MOL   C43220790   2.795   5.065   0.237 -0.6122  0.2648  0.4063
   40MOL   H43320791   2.775   4.534   0.336 -1.0800 -1.4024  0.6340
   40MOL   H43420792   2.741   4.604   0.490 -1.8919 -2.1540  0.5284
   40MOL   H43520793   3.008   4.561   0.355  0.6391 -0.5835  0.2370
   40MOL   H43620794   2.978   5.008   8.189 -2.9510 -1.1822 -0.4513
   40MOL   H43720795   3.141   4.865   8.073  0.8395 -0.3110  0.5369
   40MOL   H43820796   3.199   4.650   8.168 -0.9506  0.7569 -1.5209
   40MOL   H43920797   3.116   4.576   0.163 -0.6024 -1.2761 -1.3777
   40MOL   H44020798   2.737   4.813   0.524  0.4866 -0.1078  1.2699
   40MOL   H44120799   2.619   5.020   0.518  3.4107 -0.2881  2.9495
   40MOL   H44220800   2.668   5.201   0.347 -0.8305 -0.5447 -0.8802
   40MOL   H44320801   2.824   5.140   0.165 -1.7831  0.8486  0.5264
   40MOL   C44420802   3.029   4.678   0.525  0.2857  0.3987  0.7272
   40MOL   C44520803   3.170   4.719   0.493  0.4975 -0.3722 -0.2575
   40MOL   N44620804   3.235   4.811   0.588  0.7998 -0.3317 -0.3539
   40MOL   C44720805   3.268   4.944   0.562 -0.0952 -0.2895 -0.5341
   40MOL   C44820806   3.341   4.996   0.669 -0.9013 -0.0108  0.3353
   40MOL   C44920807   3.370   5.135   0.667  0.2144  0.2033  0.3021
   40MOL   C45020808   3.339   5.217   0.556 -0.2179 -0.5470  0.3109
   40MOL   C45120809   3.275   5.158   0.446 -0.1083 -0.1154 -0.8075
   40MOL   C45220810   3.232   5.022   0.449 -1.0497 -0.2408  0.0247
   40MOL   C45320811   3.353   4.896   0.766  0.2846 -0.6493  0.6561
   40MOL   C45420812   3.284   4.783   0.720  0.2018  0.3149 -0.3710
   40MOL   C45520813   3.275   4.669   0.804  0.2394 -0.5985  0.0179
   40MOL   C45620814   3.338   4.666   0.929 -0.6134  0.0935  0.0129
   40MOL   C45720815   3.413   4.781   0.966 -0.4907  0.1021  0.2541
   40MOL   C45820816   3.423   4.895   0.883  0.3586 -0.2719  0.2595
   40MOL   H45920817   2.976   4.764   0.568  1.0980  2.5962 -2.5053
   40MOL   H46020818   3.037   4.599   0.599  1.9804  0.8938  1.0932
   40MOL   H46120819   3.155   4.772   0.399 -0.5509 -1.5086 -0.7471
   40MOL   H46220820   3.417   5.187   0.749 -1.2640 -0.5013  1.6192
   40MOL   H46320821   3.364   5.321   0.540 -0.8254 -0.1161  2.0844
   40MOL   H46420822   3.243   5.223   0.365 -1.9133 -0.2787 -0.2485
   40MOL   H46520823   3.180   4.981   0.364 -1.0902  0.6137 -0.3696
   40MOL   H46620824   3.219   4.589   0.758  0.7995 -0.7067 -0.4896
   40MOL   H46720825   3.344   4.582   0.996 -0.3985  0.6712  0.7199
   40MOL   H46820826   3.477   4.778   1.053 -1.3355  0.2667  0.8759
   40MOL   H46920827   3.490   4.977   0.904  0.9247 -0.9034  0.9396
   40MOL   C47020828   3.269   4.604   0.458 -0.0580  0.4183  0.4683
   40MOL   C47120829   3.413   4.633   0.414  0.3876 -0.9900  0.7298
   40MOL   N47220830   3.495   4.511   0.411  0.1631  1.0701 -0.8886
   40MOL   C47320831   3.553   4.447   0.526 -0.5780 -0.7128  0.3303
   40MOL   C47420832   3.619   4.329   0.485 -0.4795 -0.9164 -0.8022
   40MOL   C47520833   3.689   4.255   0.587 -0.1178 -0.1747 -0.0835
   40MOL   C47620834   3.684   4.297   0.722 -0.6633  0.1356  0.0303
   40MOL   C47720835   3.614   4.417   0.760  0.8284  0.4470 -0.2061
   40MOL   C47820836   3.549   4.491   0.658 -0.6573  1.1294 -0.7391
   40MOL   C47920837   3.598   4.313   0.341 -0.7482  0.5708 -0.0760
   40MOL   C48020838   3.516   4.424   0.303 -0.6215  0.0292  0.1977
   40MOL   C48120839   3.470   4.430   0.173 -0.3163  0.3563 -0.4982
   40MOL   C48220840   3.517   4.341   0.079  0.0463  0.6040  0.4794
   40MOL   C48320841   3.613   4.236   0.105  0.1655 -0.3795  0.2948
   40MOL   C48420842   3.645   4.223   0.243  0.3132 -0.2885 -0.8439
   40MOL   H48520843   3.287   4.542   0.546 -0.9308 -0.3112  0.1425
   40MOL   H48620844   3.219   4.530   0.395 -1.0444  0.5275  1.1228
   40MOL   H48720845   3.453   4.698   0.492 -1.7612  2.1132 -0.6824
   40MOL   H48820846   3.742   4.163   0.564  0.8360  0.6866 -1.3910
   40MOL   H48920847   3.721   4.226   0.794  0.1814 -0.3836 -0.9015
   40MOL   H49020848   3.592   4.440   0.863 -0.0825 -1.6550  0.0837
   40MOL   H49120849   3.488   4.578   0.678 -3.6634 -1.5882  2.7457
   40MOL   H49220850   3.388   4.494   0.143  0.9299  2.0705 -0.2971
   40MOL   H49320851   3.482   4.363   8.207  1.1317 -0.0657 -0.0706
   40MOL   H49420852   3.652   4.169   0.030 -0.2152  0.2489 -0.4687
   40MOL   H49520853   3.705   4.139   0.275 -0.5201 -1.1621 -1.5195
   40MOL   C49620854   3.419   4.733   0.294 -0.4417 -0.0427 -0.3343
   40MOL   C49720855   3.559   4.757   0.234 -0.4730 -0.0776 -0.7707
   40MOL   N49820856   3.590   4.904   0.235 -0.0383  0.0888  0.0325
   40MOL   C49920857   3.526   4.999   0.163 -0.3281 -0.3105  0.9928
   40MOL   C50020858   3.590   5.126   0.179 -0.1408 -0.6255  0.6913
   40MOL   C50120859   3.536   5.240   0.115  0.0744 -0.0077 -0.0770
   40MOL   C50220860   3.420   5.236   0.045  0.7966  0.0147  0.1458
   40MOL   C50320861   3.355   5.109   0.028 -0.1570  0.1472  0.4228
   40MOL   C50420862   3.411   4.993   0.080 -0.8356  1.0550  0.0815
   40MOL   C50520863   3.699   5.101   0.263  0.2647  0.5640  0.3774
   40MOL   C50620864   3.696   4.967   0.303  0.0692 -0.6091 -0.1078
   40MOL   C50720865   3.785   4.913   0.396 -0.3831  0.2922  0.4818
   40MOL   C50820866   3.885   4.994   0.449 -0.2606  0.7386 -0.0365
   40MOL   C50920867   3.891   5.132   0.412 -0.2543  0.2974  0.6287
   40MOL   C51020868   3.804   5.181   0.314  0.5788  0.0812 -0.0327
   40MOL   H51120869   3.358   4.702   0.210 -0.6658  0.3939 -0.3327
   40MOL   H51220870   3.381   4.830   0.324  0.7541  0.6532 -1.0593
   40MOL   H51320871   3.565   4.713   0.134 -1.7143  0.0772 -0.9293
   40MOL   H51420872   3.587   5.335   0.113  1.2157 -0.6424 -1.7029
   40MOL   H51520873   3.377   5.320   8.219 -0.1166 -0.8887 -0.5582
   40MOL   H51620874   3.269   5.090   8.192 -2.3397  1.1595  2.9642
   40MOL   H51720875   3.354   4.901   0.073  1.8763 -0.5414 -1.5168
   40MOL   H51820876   3.769   4.809   0.420  0.2275  0.3272  1.0634
   40MOL   H51920877   3.953   4.948   0.519 -1.2399 -1.4854 -0.5360
   40MOL   H52020878   3.958   5.205   0.456  0.3356  1.2271 -1.7770
   40MOL   H52120879   3.812   5.282   0.275  1.8507  0.5239  1.3440
   40MOL   H52220880   3.631   4.698   0.289 -1.2931 -0.5682 -0.2070
   41MOL     C120881   7.381   5.030   1.400 -0.3242  0.4914 -0.0337
   41MOL     C220882   7.299   5.153   1.440 -0.9412  0.4691  0.4266
   41MOL     N320883   7.203   5.197   1.341  0.5870 -0.1518 -0.2659
   41MOL     C420884   7.219   5.322   1.270 -0.4532 -0.4277 -0.0099
   41MOL     C520885   7.111   5.345   1.179  1.2704  0.2586  0.0585
   41MOL     C620886   7.102   5.461   1.100 -0.2265  0.0268 -0.4225
   41MOL     C720887   7.207   5.557   1.110  0.6062  0.0158  0.3874
   41MOL     C820888   7.320   5.531   1.192  0.6429 -0.3616 -0.3275
   41MOL     C920889   7.324   5.418   1.272  0.4738 -0.5709 -0.0774
   41MOL    C1020890   7.021   5.236   1.204  0.9697  0.1721  0.0453
   41MOL    C1120891   7.082   5.140   1.286  0.7096 -0.1553  0.2779
   41MOL    C1220892   7.022   5.016   1.316  0.2126  1.2428  0.5613
   41MOL    C1320893   6.897   4.991   1.269  0.2310 -0.3048  0.5532
   41MOL    C1420894   6.832   5.087   1.185 -0.5273  0.6737  0.1808
   41MOL    C1520895   6.895   5.205   1.151  0.5036 -0.2621  0.1455
   41MOL    H1620896   7.319   4.942   1.382  0.1787 -0.1189  1.1409
   41MOL    H1720897   7.441   4.999   1.485 -1.3694 -0.5371  0.3319
   41MOL    H1820898   7.376   5.230   1.445  0.1093 -0.4046 -1.4185
   41MOL    H1920899   7.010   5.484   1.049  0.1936  2.3081 -0.2105
   41MOL    H2020900   7.201   5.651   1.057 -0.0282 -0.2644 -0.0546
   41MOL    H2120901   7.394   5.609   1.194  0.1287  0.0980  2.2873
   41MOL    H2220902   7.416   5.401   1.325  0.1012  0.0003  0.7736
   41MOL    H2320903   7.073   4.946   1.380  1.6489 -0.8743 -2.7846
   41MOL    H2420904   6.854   4.895   1.293 -0.7569 -0.1340 -0.4989
   41MOL    H2520905   6.734   5.058   1.152 -0.6468  1.8203 -0.4873
   41MOL    H2620906   6.848   5.280   1.089 -1.6560 -1.2077  0.6002
   41MOL    H2720907   7.452   5.056   1.321  1.7875  0.7881  1.9236
   41MOL    C2820908   7.226   5.131   1.571  0.3106 -0.8157  0.3292
   41MOL    C2920909   7.317   5.129   1.703 -0.4559 -0.1135 -0.3373
   41MOL    N3020910   7.420   5.227   1.708  0.6038  0.0342 -1.0627
   41MOL    C3120911   7.552   5.187   1.746  0.1314 -0.3642  0.1793
   41MOL    C3220912   7.630   5.302   1.753 -0.0442  0.0427 -0.6230
   41MOL    C3320913   7.765   5.296   1.791  0.0910 -0.2001 -0.2484
   41MOL    C3420914   7.815   5.169   1.828 -1.1347  0.1938  0.1417
   41MOL    C3520915   7.739   5.051   1.830 -0.2548 -0.1722 -0.0079
   41MOL    C3620916   7.608   5.060   1.777 -0.2172  0.4341 -0.4900
   41MOL    C3720917   7.551   5.407   1.697  0.8596 -0.5414 -0.3972
   41MOL    C3820918   7.418   5.361   1.686  0.1376 -1.4239  0.2846
   41MOL    C3920919   7.311   5.450   1.661 -0.8714 -0.0358 -0.4852
   41MOL    C4020920   7.336   5.586   1.640 -0.4125  0.5567  0.0573
   41MOL    C4120921   7.471   5.635   1.639  0.7158  0.1175 -0.2397
   41MOL    C4220922   7.575   5.544   1.668 -0.0932  0.6634  0.3769
   41MOL    H4320923   7.131   5.184   1.583 -0.6325 -2.2612 -0.4440
   41MOL    H4420924   7.189   5.028   1.565  3.2877 -1.9542  0.8594
   41MOL    H4520925   7.377   5.038   1.702  0.6200  0.5867 -0.4462
   41MOL    H4620926   7.831   5.381   1.782 -1.6714  1.3555  1.0379
   41MOL    H4720927   7.920   5.160   1.852 -1.4220 -3.0371  0.3927
   41MOL    H4820928   7.778   4.953   1.855  1.2777  0.7544  1.3420
   41MOL    H4920929   7.553   4.967   1.774  1.2898 -0.4465 -1.5139
   41MOL    H5020930   7.210   5.412   1.660 -0.5595 -0.8751 -1.3058
   41MOL    H5120931   7.263   5.664   1.630 -0.9520 -0.0588 -0.9186
   41MOL    H5220932   7.485   5.742   1.632  0.1641  0.2843  1.0845
   41MOL    H5320933   7.675   5.584   1.681  0.3554 -0.8739  1.7368
   41MOL    C5420934   7.234   5.129   1.831 -0.8622  0.3666  0.3872
   41MOL    C5520935   7.156   4.999   1.867  0.0176 -0.9419  1.1074
   41MOL    N5620936   7.231   4.878   1.872 -0.1612 -0.4490  0.6264
   41MOL    C5720937   7.199   4.760   1.806  0.2782  0.3529 -0.0909
   41MOL    C5820938   7.298   4.663   1.845  0.3587  0.0596  0.4265
   41MOL    C5920939   7.291   4.540   1.778  0.4502  0.7324  0.1970
   41MOL    C6020940   7.193   4.505   1.683 -0.6920 -0.4930  0.3176
   41MOL    C6120941   7.088   4.596   1.664 -0.4258  0.0311  0.0819
   41MOL    C6220942   7.097   4.727   1.714  0.5022  0.1698 -0.1016
   41MOL    C6320943   7.393   4.726   1.935  0.5901 -0.6225  0.0095
   41MOL    C6420944   7.347   4.860   1.952  0.2551 -0.2691 -0.0393
   41MOL    C6520945   7.421   4.941   2.037 -0.2822  0.6807 -0.3603
   41MOL    C6620946   7.533   4.893   2.112  0.5906 -0.7524  0.9142
   41MOL    C6720947   7.580   4.763   2.089 -0.3641 -0.1403 -0.4428
   41MOL    C6820948   7.505   4.680   2.010 -0.2214 -0.6185  0.2141
   41MOL    H6920949   7.304   5.148   1.911  0.4508  1.7847 -1.0618
   41MOL    H7020950   7.165   5.214   1.826  0.4906  1.3961 -1.4672
   41MOL    H7120951   7.082   4.993   1.787 -0.6698 -0.5613  1.7186
   41MOL    H7220952   7.362   4.460   1.794 -0.4073 -0.5507 -2.1385
   41MOL    H7320953   7.200   4.409   1.634 -2.4733  0.3924 -1.7094
   41MOL    H7420954   7.003   4.574   1.601  0.5626 -2.9408 -0.2952
   41MOL    H7520955   7.027   4.800   1.678 -0.0399 -0.5821 -0.5925
   41MOL    H7620956   7.400   5.045   2.055  1.2401  0.7982  0.8779
   41MOL    H7720957   7.592   4.957   2.176  1.0762 -1.2086  0.9230
   41MOL    H7820958   7.668   4.721   2.135  0.7930  4.1045  1.5133
   41MOL    H7920959   7.550   4.583   1.995 -1.9999 -1.3777 -0.3610
   41MOL    C8020960   7.086   5.023   1.999  0.2241 -0.4552 -0.4422
   41MOL    C8120961   6.980   5.138   2.010 -0.3625 -0.7259  0.1155
   41MOL    N8220962   6.906   5.153   1.886  0.0951 -0.1652 -0.2246
   41MOL    C8320963   6.907   5.266   1.805  0.7727  0.3837  0.2132
   41MOL    C8420964   6.849   5.234   1.676 -0.1662 -0.1735 -0.3355
   41MOL    C8520965   6.858   5.325   1.574  0.2312 -0.4818 -0.0432
   41MOL    C8620966   6.914   5.451   1.594  0.0459  0.2474 -0.0985
   41MOL    C8720967   6.960   5.492   1.719 -0.2516  0.5156 -0.4232
   41MOL    C8820968   6.965   5.395   1.824 -0.1223 -0.3679 -1.0279
   41MOL    C8920969   6.787   5.106   1.695 -0.3507 -0.3034 -0.3992
   41MOL    C9020970   6.819   5.059   1.824  0.6602  0.4669 -0.0668
   41MOL    C9120971   6.777   4.930   1.864  0.3533  0.2199  0.4773
   41MOL    C9220972   6.696   4.855   1.786  0.6825 -0.1609  0.6921
   41MOL    C9320973   6.647   4.910   1.667 -0.5814 -0.5595  0.1903
   41MOL    C9420974   6.698   5.030   1.612  0.6373  0.5430 -0.2290
   41MOL    H9520975   7.043   4.930   2.034  0.9808 -0.0743  1.5697
   41MOL    H9620976   7.159   5.045   2.077  0.5880  1.0388 -1.1947
   41MOL    H9720977   7.044   5.225   2.021 -1.3413  0.2848 -1.9537
   41MOL    H9820978   6.818   5.302   1.476 -0.0718  1.9071 -0.5118
   41MOL    H9920979   6.914   5.522   1.512 -1.5948  1.7124  1.1493
   41MOL   H10020980   7.007   5.588   1.734 -0.9622  0.5323  2.0102
   41MOL   H10120981   6.998   5.427   1.921  0.9501 -2.4077 -0.6844
   41MOL   H10220982   6.809   4.893   1.961  2.3177  3.4812  1.1466
   41MOL   H10320983   6.658   4.760   1.820 -0.5618  0.7844  1.9769
   41MOL   H10420984   6.573   4.844   1.626  0.7954 -1.8632 -0.2702
   41MOL   H10520985   6.665   5.057   1.513  1.8575  0.9883 -0.5313
   41MOL   C10620986   6.885   5.127   2.133  0.0469  0.1499 -0.5300
   41MOL   C10720987   6.964   5.167   2.254 -0.0918  0.2946  1.0003
   41MOL   N10820988   7.006   5.303   2.254  0.0232  0.7689  0.2741
   41MOL   C10920989   7.138   5.347   2.267 -0.2058 -1.2293 -0.1945
   41MOL   C11020990   7.140   5.489   2.255  0.4517  0.1287  0.9806
   41MOL   C11120991   7.264   5.557   2.255 -0.3859  0.5276 -0.6294
   41MOL   C11220992   7.386   5.486   2.265  0.6945 -0.1563  0.9407
   41MOL   C11320993   7.385   5.347   2.276  0.1070  0.3400 -0.1317
   41MOL   C11420994   7.259   5.275   2.280  0.1684 -0.3808  0.5708
   41MOL   C11520995   7.001   5.532   2.250 -0.5523 -0.5520  0.0809
   41MOL   C11620996   6.921   5.418   2.257  0.1726 -0.9408 -0.1108
   41MOL   C11720997   6.781   5.435   2.276 -0.0858  0.2214  0.4067
   41MOL   C11820998   6.727   5.561   2.280  0.2075 -0.4618 -0.1647
   41MOL   C11920999   6.803   5.680   2.254 -0.4635 -0.2999  0.1691
   41MOL   C12021000   6.942   5.662   2.236  0.1375  1.2446  0.2600
   41MOL   H12121001   6.798   5.192   2.126 -1.2305 -1.6102 -1.4579
   41MOL   H12221002   6.847   5.025   2.139  0.5629  0.0393  1.1275
   41MOL   H12321003   7.055   5.109   2.241 -1.3172 -1.6658  1.0029
   41MOL   H12421004   7.262   5.665   2.247  0.4719  0.5112 -1.1134
   41MOL   H12521005   7.479   5.540   2.254 -0.0879  0.7888 -1.2439
   41MOL   H12621006   7.475   5.288   2.269 -1.2444 -1.5520 -2.0463
   41MOL   H12721007   7.277   5.169   2.291  0.7492 -0.3291  0.1533
   41MOL   H12821008   6.723   5.344   2.286  2.0803 -1.3433 -0.9485
   41MOL   H12921009   6.623   5.579   2.306  0.2107 -1.1039  0.3180
   41MOL   H13021010   6.759   5.777   2.239  0.0486  0.1407  1.4809
   41MOL   H13121011   7.004   5.746   2.207 -1.4835  1.2411 -3.5196
   41MOL   C13221012   6.906   5.129   2.388 -0.5203  1.0206  0.3723
   41MOL   C13321013   6.854   4.979   2.394  0.3920  0.1450  0.1039
   41MOL   N13421014   6.946   4.879   2.335  0.3764  0.4563 -0.6364
   41MOL   C13521015   6.908   4.777   2.239  0.8438 -0.0071 -0.0510
   41MOL   C13621016   7.023   4.712   2.195 -0.2674 -0.1993  0.1208
   41MOL   C13721017   7.011   4.624   2.086  0.0189 -0.2106  0.6838
   41MOL   C13821018   6.892   4.597   2.029 -0.2454  0.2486 -0.2092
   41MOL   C13921019   6.772   4.659   2.068  0.7403 -0.8867  0.3313
   41MOL   C14021020   6.778   4.738   2.185 -0.2185  0.0752 -0.2271
   41MOL   C14121021   7.131   4.758   2.279 -0.5294  0.4599 -0.8194
   41MOL   C14221022   7.086   4.861   2.362  0.4900 -0.2026 -0.0139
   41MOL   C14321023   7.177   4.928   2.449  0.1980  0.3834 -0.2219
   41MOL   C14421024   7.309   4.883   2.453  0.2335  0.0519  0.3769
   41MOL   C14521025   7.353   4.782   2.371 -0.3073 -0.0117  0.4886
   41MOL   C14621026   7.267   4.719   2.287  0.0901  0.1084  0.0723
   41MOL   H14721027   6.981   5.159   2.461  1.5151  0.8787 -1.6225
   41MOL   H14821028   6.813   5.181   2.412 -2.1817 -1.3217 -0.7458
   41MOL   H14921029   6.758   4.972   2.343  0.7865  1.0957 -0.7825
   41MOL   H15021030   7.100   4.567   2.063 -0.6567 -1.3448  0.8443
   41MOL   H15121031   6.875   4.517   1.959 -2.2480 -0.4883  1.0648
   41MOL   H15221032   6.675   4.634   2.026  1.8182  0.8295 -3.3864
   41MOL   H15321033   6.682   4.778   2.215 -0.1213  0.5515 -0.5396
   41MOL   H15421034   7.152   5.018   2.503  4.1649  1.8275 -0.6180
   41MOL   H15521035   7.386   4.922   2.518 -0.0076 -0.9560  1.3007
   41MOL   H15621036   7.454   4.748   2.386  0.0785  1.8138  2.3270
   41MOL   H15721037   7.300   4.636   2.226 -0.4632  1.1101 -1.6463
   41MOL   C15821038   6.815   4.944   2.540 -0.4426  1.0794  0.4175
   41MOL   C15921039   6.738   4.803   2.551 -0.1452  0.4508  0.3116
   41MOL   N16021040   6.819   4.685   2.568  0.2122 -0.3051  0.1075
   41MOL   C16121041   6.793   4.563   2.517  0.2057 -0.2207  0.5343
   41MOL   C16221042   6.892   4.466   2.555 -0.6173  0.4313 -0.4818
   41MOL   C16321043   6.895   4.338   2.498  0.5344 -0.0218 -0.1997
   41MOL   C16421044   6.794   4.298   2.408  0.4129  0.0034  0.6320
   41MOL   C16521045   6.692   4.392   2.379 -0.3790 -0.1706 -0.1330
   41MOL   C16621046   6.691   4.522   2.433 -0.1818  0.1630 -0.3159
   41MOL   C16721047   6.975   4.533   2.651  0.4056  0.5460  1.0629
   41MOL   C16821048   6.927   4.667   2.656  0.8087 -0.0226 -0.0224
   41MOL   C16921049   6.996   4.759   2.741 -0.4863 -0.0182 -0.6728
   41MOL   C17021050   7.104   4.712   2.824 -0.2841  0.0140 -0.3090
   41MOL   C17121051   7.144   4.581   2.817  0.2845 -0.2048  0.1893
   41MOL   C17221052   7.083   4.494   2.730 -0.1619 -0.6762 -0.1987
   41MOL   H17321053   6.916   4.943   2.580  0.1330 -1.2959 -0.9828
   41MOL   H17421054   6.760   5.022   2.592  3.1706  3.5662  0.7258
   41MOL   H17521055   6.682   4.791   2.459  0.7318  3.3776 -0.6635
   41MOL   H17621056   6.967   4.266   2.534 -0.1993  0.0557  1.4857
   41MOL   H17721057   6.792   4.200   2.362  1.0766  0.2330  0.1058
   41MOL   H17821058   6.620   4.364   2.303  1.5929 -1.0291 -1.7306
   41MOL   H17921059   6.621   4.590   2.387 -0.7781 -0.3469 -0.1651
   41MOL   H18021060   6.970   4.863   2.751 -0.9030 -0.3519  2.2641
   41MOL   H18121061   7.145   4.787   2.890 -0.0063  0.1183 -0.6003
   41MOL   H18221062   7.221   4.531   2.875  1.5176 -0.8265 -1.9080
   41MOL   H18321063   7.116   4.391   2.726  0.6003 -0.5578  2.2681
   41MOL   C18421064   6.627   4.809   2.653 -0.4896  0.2307 -0.0732
   41MOL   C18521065   6.511   4.911   2.610  0.4685  0.8895  0.1883
   41MOL   N18621066   6.447   4.871   2.486 -0.0285  0.4329 -0.2410
   41MOL   C18721067   6.452   4.943   2.367  0.2961  0.4532 -0.1928
   41MOL   C18821068   6.400   4.861   2.263  0.2270  0.1039  0.1280
   41MOL   C18921069   6.421   4.906   2.131  0.5028 -0.1714  0.4199
   41MOL   C19021070   6.489   5.028   2.102  0.2153  0.1123  0.8734
   41MOL   C19121071   6.534   5.108   2.207  0.4725  0.1009  0.5371
   41MOL   C19221072   6.510   5.066   2.341  0.1808  0.3643  0.0901
   41MOL   C19321073   6.341   4.748   2.327  0.1796 -0.4544  0.4827
   41MOL   C19421074   6.368   4.759   2.461 -0.4387  0.1984 -0.8604
   41MOL   C19521075   6.316   4.665   2.555 -0.6396  0.0071 -0.1692
   41MOL   C19621076   6.244   4.556   2.506 -0.0056  0.0286  0.7492
   41MOL   C19721077   6.227   4.539   2.365  0.1528 -0.4058 -0.1873
   41MOL   C19821078   6.268   4.635   2.279 -0.2687 -0.1278  0.3075
   41MOL   H19921079   6.584   4.710   2.671 -1.7227  0.9721  1.1756
   41MOL   H20021080   6.668   4.844   2.748 -1.7509 -0.2949  0.6945
   41MOL   H20121081   6.564   5.005   2.590  0.6780  0.5749 -0.7345
   41MOL   H20221082   6.382   4.841   2.054 -0.7386 -0.1312  0.9986
   41MOL   H20321083   6.502   5.064   2.001  0.5772 -0.8338  0.5854
   41MOL   H20421084   6.585   5.195   2.168  0.7917 -0.1511  0.3817
   41MOL   H20521085   6.563   5.122   2.417 -2.0653  0.4611  1.6421
   41MOL   H20621086   6.334   4.676   2.661  2.6657  0.9653 -0.7700
   41MOL   H20721087   6.218   4.482   2.581 -1.8289  0.0967  0.2208
   41MOL   H20821088   6.166   4.454   2.339  1.6001 -1.1396 -1.2736
   41MOL   H20921089   6.252   4.619   2.174 -1.1247  2.1753  0.0519
   41MOL   C21021090   6.412   4.944   2.719  0.3391 -0.3724 -0.6679
   41MOL   C21121091   6.464   5.060   2.811 -0.1006  0.4663 -0.5246
   41MOL   N21221092   6.482   5.183   2.735 -0.4457  0.1328 -0.8233
   41MOL   C21321093   6.599   5.246   2.716  0.0864 -0.2128  0.1573
   41MOL   C21421094   6.580   5.364   2.633  0.2885 -0.1263  0.2590
   41MOL   C21521095   6.691   5.440   2.597  0.4646 -0.4309 -0.3130
   41MOL   C21621096   6.822   5.407   2.636  0.0093  0.4699  0.1536
   41MOL   C21721097   6.843   5.292   2.713  0.0241  0.4203 -0.2370
   41MOL   C21821098   6.732   5.209   2.749 -0.1117 -0.6262 -0.2578
   41MOL   C21921099   6.434   5.369   2.616  0.5574 -0.1849 -0.1118
   41MOL   C22021100   6.381   5.252   2.672  0.0885 -0.8373  0.3009
   41MOL   C22121101   6.243   5.231   2.660  0.2899  0.6831 -0.4907
   41MOL   C22221102   6.150   5.317   2.603 -0.3095  0.5607 -0.3978
   41MOL   C22321103   6.210   5.430   2.542 -0.6523 -0.0188 -0.2433
   41MOL   C22421104   6.352   5.451   2.534  0.0143 -0.0928 -0.9182
   41MOL   H22521105   6.315   4.979   2.683  1.6421  1.4916 -2.4371
   41MOL   H22621106   6.385   4.854   2.773  1.8810 -0.3687  0.1436
   41MOL   H22721107   6.561   5.025   2.847 -1.0130  0.3029  1.8713
   41MOL   H22821108   6.678   5.532   2.541  0.2898 -0.8512 -0.9597
   41MOL   H22921109   6.903   5.471   2.603 -1.2989  1.3226 -1.5130
   41MOL   H23021110   6.943   5.254   2.722 -0.5539 -1.1635 -0.2661
   41MOL   H23121111   6.768   5.120   2.799  1.0009  1.0906  2.0995
   41MOL   H23221112   6.193   5.148   2.708  0.1299  0.2149 -1.4595
   41MOL   H23321113   6.044   5.311   2.581 -0.4059 -0.3655  0.3133
   41MOL   H23421114   6.144   5.500   2.493 -0.1380  2.3246  2.2772
   41MOL   H23521115   6.394   5.537   2.484 -0.3177  1.7271  1.8136
   41MOL   C23621116   6.377   5.083   2.932 -0.1905 -0.8812 -0.3407
   41MOL   C23721117   6.350   4.967   3.027  0.5583  0.3949  0.3306
   41MOL   N23821118   6.448   4.857   3.030 -0.6862 -0.4413  0.0706
   41MOL   C23921119   6.418   4.720   3.026 -0.6657  0.7264 -0.2333
   41MOL   C24021120   6.534   4.645   3.044 -0.6129 -0.1956  0.5683
   41MOL   C24121121   6.527   4.506   3.023  0.0584  0.3913  0.1876
   41MOL   C24221122   6.408   4.439   2.999  0.3451  0.5355 -0.5076
   41MOL   C24321123   6.287   4.512   2.984 -0.0076 -1.0144 -0.9152
   41MOL   C24421124   6.294   4.655   3.000  0.2351 -0.6874  0.3132
   41MOL   C24521125   6.640   4.737   3.074  0.6355 -0.8540  0.0002
   41MOL   C24621126   6.580   4.866   3.075  0.1162 -0.1601  0.2211
   41MOL   C24721127   6.659   4.974   3.123  0.6360  0.6512 -0.0416
   41MOL   C24821128   6.799   4.957   3.142  0.2084 -0.2222  0.0580
   41MOL   C24921129   6.855   4.829   3.129 -0.2833  0.1560  0.5025
   41MOL   C25021130   6.778   4.722   3.095  0.1286  0.0267 -0.0301
   41MOL   H25121131   6.431   5.160   2.987 -0.2962 -0.3252 -1.0096
   41MOL   H25221132   6.292   5.146   2.905 -1.2183 -2.2123 -0.2442
   41MOL   H25321133   6.251   4.923   3.011  0.2707  0.3793  2.0589
   41MOL   H25421134   6.615   4.444   3.031 -0.2619 -0.0550  0.2483
   41MOL   H25521135   6.396   4.332   3.001 -1.5571  0.6667 -2.4157
   41MOL   H25621136   6.191   4.464   2.976 -0.9608  0.5277  0.7179
   41MOL   H25721137   6.202   4.712   2.988  0.1392 -1.0795 -0.8592
   41MOL   H25821138   6.618   5.074   3.122  1.8802  1.1638 -0.5680
   41MOL   H25921139   6.860   5.046   3.157 -3.5236  2.5649 -0.6094
   41MOL   H26021140   6.961   4.807   3.137 -0.3352 -1.1204 -1.8949
   41MOL   H26121141   6.818   4.623   3.084 -1.4893 -0.4744 -1.6791
   41MOL   C26221142   6.333   5.021   3.179 -0.5609  0.6801 -0.2771
   41MOL   C26321143   6.214   5.117   3.195 -0.2205  0.5472 -0.8822
   41MOL   N26421144   6.096   5.076   3.129  0.4082 -0.3064 -0.4198
   41MOL   C26521145   6.021   5.154   3.037  0.4034 -0.2964 -0.8686
   41MOL   C26621146   5.918   5.078   2.977 -0.6168 -0.3260  0.2678
   41MOL   C26721147   5.831   5.146   2.890  0.7366 -0.7090 -0.3183
   41MOL   C26821148   5.842   5.283   2.862 -0.1863  0.8027 -0.1640
   41MOL   C26921149   5.944   5.357   2.923  0.1948 -0.8191  0.5186
   41MOL   C27021150   6.031   5.294   3.013  0.3916 -0.4518 -0.5509
   41MOL   C27121151   5.929   4.944   3.025 -0.3362  0.2612  0.2201
   41MOL   C27221152   6.031   4.946   3.123  0.7031 -0.4667 -0.5684
   41MOL   C27321153   6.059   4.823   3.188 -0.4841  0.1578  0.2433
   41MOL   C27421154   5.994   4.704   3.152  0.5493 -0.3041 -0.3252
   41MOL   C27521155   5.892   4.705   3.060 -0.8580 -0.3103  0.8015
   41MOL   C27621156   5.858   4.825   2.999 -0.3715 -0.5957  0.1725
   41MOL   H27721157   6.321   4.940   3.251  1.5947  1.2631  0.7777
   41MOL   H27821158   6.428   5.064   3.208 -0.9053  0.9518  0.4684
   41MOL   H27921159   6.252   5.207   3.146 -0.2984  0.5786 -0.8833
   41MOL   H28021160   5.768   5.086   2.825 -1.8412  2.2638 -0.7155
   41MOL   H28121161   5.776   5.331   2.791  0.1693 -1.0907 -1.8234
   41MOL   H28221162   5.962   5.463   2.910 -0.9614 -0.5160  1.3408
   41MOL   H28321163   6.112   5.353   3.053  0.1455 -0.8250  0.5195
   41MOL   H28421164   6.136   4.823   3.264 -1.0713  1.1696  0.8685
   41MOL   H28521165   6.024   4.616   3.208  3.0230  1.6428  1.5693
   41MOL   H28621166   5.846   4.610   3.035 -0.4017 -0.2825 -0.1655
   41MOL   H28721167   5.777   4.833   2.927 -1.2874 -2.4128  0.9804
   41MOL   C28821168   6.183   5.167   3.341  0.4715  0.3014  0.0373
   41MOL   C28921169   6.304   5.243   3.397  0.8646  0.1750 -0.0203
   41MOL   N29021170   6.338   5.355   3.311  0.9069  0.1033 -0.4416
   41MOL   C29121171   6.462   5.371   3.245 -0.1701 -0.0901 -0.3193
   41MOL   C29221172   6.453   5.474   3.152 -0.3459 -0.4790 -0.2650
   41MOL   C29321173   6.559   5.502   3.064  0.8287 -0.2599  0.4675
   41MOL   C29421174   6.686   5.436   3.088  0.1530  0.0941  0.0299
   41MOL   C29521175   6.696   5.329   3.182  0.0724 -0.3168  0.0663
   41MOL   C29621176   6.581   5.296   3.253 -0.0966  0.7734  0.2477
   41MOL   C29721177   6.330   5.540   3.169 -0.1180  0.1429 -0.5263
   41MOL   C29821178   6.258   5.464   3.263 -0.0649  0.3467  0.1461
   41MOL   C29921179   6.125   5.492   3.289  0.3657  0.0164  0.2657
   41MOL   C30021180   6.060   5.600   3.223 -0.1859  0.6903 -0.3226
   41MOL   C30121181   6.132   5.681   3.136 -0.2531 -0.3449  0.3472
   41MOL   C30221182   6.261   5.649   3.108 -0.6612 -0.5863  0.8678
   41MOL   H30321183   6.095   5.231   3.339 -1.1266 -1.8060  1.3422
   41MOL   H30421184   6.162   5.079   3.402  1.0029  0.3051  0.2276
   41MOL   H30521185   6.390   5.176   3.393 -1.1713 -2.6650  1.9934
   41MOL   H30621186   6.546   5.567   2.978 -0.2234  0.5571  1.2315
   41MOL   H30721187   6.781   5.441   3.036  0.8014 -1.9026  0.9988
   41MOL   H30821188   6.791   5.281   3.197 -1.4131 -3.0612  1.0194
   41MOL   H30921189   6.572   5.217   3.327  1.7148 -0.2087 -0.5431
   41MOL   H31021190   6.053   5.436   3.348 -1.8877  2.2943 -0.2454
   41MOL   H31121191   5.954   5.615   3.240 -0.5781 -1.5091 -0.7658
   41MOL   H31221192   6.077   5.764   3.096 -3.6085 -1.0904  3.1226
   41MOL   H31321193   6.319   5.721   3.053 -0.5236  0.1120  1.9285
   41MOL   C31421194   6.292   5.289   3.543 -0.4836 -0.1839 -0.2734
   41MOL   C31521195   6.310   5.174   3.646 -0.0958 -0.1789 -0.1573
   41MOL   N31621196   6.428   5.091   3.624  0.2840 -0.0390  0.2434
   41MOL   C31721197   6.416   4.956   3.581 -0.2209  0.9851 -0.0241
   41MOL   C31821198   6.545   4.910   3.539 -0.4138 -0.3153 -0.6012
   41MOL   C31921199   6.559   4.782   3.485  0.0134 -0.1214  0.4802
   41MOL   C32021200   6.451   4.696   3.468  0.4459 -0.4157 -0.2416
   41MOL   C32121201   6.323   4.742   3.513 -0.5705 -0.3330  0.0975
   41MOL   C32221202   6.303   4.869   3.569 -0.0787 -0.0303  0.2629
   41MOL   C32321203   6.633   5.019   3.547  0.2755 -0.7116 -0.3673
   41MOL   C32421204   6.564   5.130   3.608  0.5039  0.3882  0.0863
   41MOL   C32521205   6.631   5.246   3.645  0.5490  0.0782  0.1309
   41MOL   C32621206   6.766   5.254   3.614 -0.2750 -0.0694 -0.0855
   41MOL   C32721207   6.832   5.156   3.539 -0.4135  1.0499  0.1813
   41MOL   C32821208   6.770   5.033   3.505 -0.0369  0.5434 -0.0919
   41MOL   H32921209   6.356   5.375   3.563  1.8916 -1.5514 -1.7291
   41MOL   H33021210   6.197   5.340   3.559  0.1153  1.3603 -1.4460
   41MOL   H33121211   6.224   5.108   3.638 -1.5909  1.9426 -2.8061
   41MOL   H33221212   6.656   4.748   3.451 -0.2023 -0.2879  0.0267
   41MOL   H33321213   6.458   4.603   3.414 -3.8136 -0.3988 -1.0085
   41MOL   H33421214   6.235   4.684   3.491  0.4357 -0.9459 -2.4677
   41MOL   H33521215   6.203   4.898   3.595 -0.1324 -0.3434  0.4189
   41MOL   H33621216   6.587   5.322   3.708 -0.3074  0.0456 -0.4196
   41MOL   H33721217   6.818   5.342   3.649 -0.9538  0.3717 -0.1630
   41MOL   H33821218   6.934   5.173   3.510 -0.4340 -1.0250 -1.2112
   41MOL   H33921219   6.809   4.954   3.443  0.5136 -2.0080  3.3278
   41MOL   C34021220   6.320   5.230   3.795 -0.3966 -0.4708  0.1334
   41MOL   C34121221   6.189   5.260   3.873 -0.0743 -0.4748  0.5733
   41MOL   N34221222   6.089   5.161   3.830  0.5403  0.3006 -0.6416
   41MOL   C34321223   5.965   5.193   3.782  0.0772 -0.2098  0.1621
   41MOL   C34421224   5.902   5.077   3.740  0.6036  0.2583 -0.1620
   41MOL   C34521225   5.781   5.086   3.672  0.1241 -0.2399  0.8277
   41MOL   C34621226   5.718   5.211   3.652 -0.4287 -0.9545 -0.3218
   41MOL   C34721227   5.784   5.331   3.697  0.4554 -0.1232 -0.0943
   41MOL   C34821228   5.907   5.317   3.761  0.4432  0.4042  0.2805
   41MOL   C34921229   5.978   4.964   3.791  0.2024 -0.4796  0.2619
   41MOL   C35021230   6.097   5.026   3.837  0.2008  0.7671 -0.6138
   41MOL   C35121231   6.202   4.942   3.882 -1.1148  0.5766  0.1305
   41MOL   C35221232   6.195   4.801   3.866 -0.2313 -0.1144 -0.3730
   41MOL   C35321233   6.074   4.740   3.821  0.0393 -0.3471 -0.1333
   41MOL   C35421234   5.967   4.826   3.801 -1.1377 -0.3276 -1.0177
   41MOL   H35521235   6.373   5.159   3.858 -0.8766  1.6478  3.0518
   41MOL   H35621236   6.389   5.314   3.806 -0.3624 -0.5465  0.5038
   41MOL   H35721237   6.155   5.360   3.846  0.2190 -0.8057 -1.0336
   41MOL   H35821238   5.735   4.997   3.632  1.8693 -0.2860 -1.1592
   41MOL   H35921239   5.624   5.223   3.601  0.2902  1.5915 -1.1053
   41MOL   H36021240   5.739   5.429   3.686  0.0380 -0.5701 -2.7992
   41MOL   H36121241   5.938   5.412   3.804  0.2666  0.8820 -0.6368
   41MOL   H36221242   6.294   4.979   3.924  0.2206 -0.4440 -1.8113
   41MOL   H36321243   6.279   4.737   3.890  0.0798  0.6519  0.6285
   41MOL   H36421244   6.057   4.633   3.813 -2.9752  0.2283 -2.1968
   41MOL   H36521245   5.870   4.780   3.785 -2.3568  1.8108  0.0969
   41MOL   C36621246   6.205   5.256   4.029 -0.3735  0.0703 -0.2048
   41MOL   C36721247   6.305   5.374   4.077 -0.3417  0.2211  0.3084
   41MOL   N36821248   6.275   5.506   4.018 -1.0528  0.1470  0.5424
   41MOL   C36921249   6.368   5.584   3.945 -0.4832 -0.2912  0.1898
   41MOL   C37021250   6.307   5.709   3.905  0.5152  0.2255  0.3101
   41MOL   C37121251   6.391   5.803   3.836 -0.6536 -0.4168  0.2305
   41MOL   C37221252   6.522   5.764   3.797 -0.6942  0.1497 -0.0192
   41MOL   C37321253   6.583   5.638   3.835  0.1265 -0.2398  0.1687
   41MOL   C37421254   6.502   5.547   3.913  0.3948  0.1182 -0.3997
   41MOL   C37521255   6.166   5.704   3.938  0.0583  0.4956  0.2075
   41MOL   C37621256   6.153   5.577   4.017  0.0178 -0.2608 -0.4420
   41MOL   C37721257   6.029   5.546   4.079  0.1882 -0.3030 -0.0111
   41MOL   C37821258   5.919   5.627   4.048 -0.1362 -0.3489 -0.1623
   41MOL   C37921259   5.932   5.742   3.967 -0.2732  0.2591  0.2788
   41MOL   C38021260   6.055   5.790   3.923  0.9660 -0.4765 -0.6447
   41MOL   H38121261   6.108   5.269   4.078 -0.2864  1.1511 -0.3060
   41MOL   H38221262   6.242   5.158   4.058 -2.7461 -0.9324 -0.4639
   41MOL   H38321263   6.400   5.335   4.041  0.5446  0.5361  2.2298
   41MOL   H38421264   6.341   5.893   3.804  0.9025  0.5767  0.5343
   41MOL   H38521265   6.589   5.825   3.738 -1.7993 -0.6570 -2.1342
   41MOL   H38621266   6.680   5.603   3.802 -1.1401 -3.3684 -0.3679
   41MOL   H38721267   6.538   5.448   3.937  0.8900  0.1582 -0.9487
   41MOL   H38821268   6.016   5.458   4.140  1.5403 -1.2709 -1.0869
   41MOL   H38921269   5.823   5.606   4.092 -1.5705  1.2836 -2.3827
   41MOL   H39021270   5.845   5.802   3.949  0.7330  2.7326  3.3546
   41MOL   H39121271   6.051   5.887   3.877 -0.3927 -0.6722 -0.9652
   41MOL   C39221272   6.309   5.400   4.225 -0.1766  0.0483  0.2501
   41MOL   C39321273   6.366   5.282   4.306 -0.1447 -0.2311 -0.6201
   41MOL   N39421274   6.481   5.223   4.244 -0.3440 -0.2118 -0.2196
   41MOL   C39521275   6.486   5.091   4.195  0.1130 -0.0480  0.0161
   41MOL   C39621276   6.597   5.076   4.107  0.6874 -0.1157 -0.0598
   41MOL   C39721277   6.610   4.949   4.048 -0.0074  0.5903  0.7483
   41MOL   C39821278   6.529   4.843   4.080 -0.0520  0.2475  0.7618
   41MOL   C39921279   6.417   4.859   4.160 -0.4336  0.8484  0.3163
   41MOL   C40021280   6.397   4.984   4.220  0.2753  0.1554  0.0983
   41MOL   C40121281   6.664   5.204   4.106  0.0455 -0.2225 -0.0612
   41MOL   C40221282   6.595   5.290   4.194  0.1564  0.1561  0.1760
   41MOL   C40321283   6.644   5.419   4.222  0.1465  0.1927 -0.2401
   41MOL   C40421284   6.760   5.470   4.162 -0.6171  1.0947 -0.3360
   41MOL   C40521285   6.825   5.393   4.064 -0.0578  0.1441  0.1317
   41MOL   C40621286   6.778   5.260   4.044  0.4446  0.2031  0.0752
   41MOL   H40721287   6.373   5.488   4.234  0.0836  0.2605 -3.1299
   41MOL   H40821288   6.211   5.427   4.264  0.2520  1.9342  0.0945
   41MOL   H40921289   6.287   5.207   4.303 -1.0337  0.7312 -1.8413
   41MOL   H41021290   6.696   4.935   3.985 -0.4501  0.5916  0.1424
   41MOL   H41121291   6.550   4.748   4.032  2.6540  0.0385  2.2768
   41MOL   H41221292   6.348   4.780   4.186 -0.3106  1.2232  1.8075
   41MOL   H41321293   6.310   4.999   4.282  0.0826 -0.1518 -0.0933
   41MOL   H41421294   6.600   5.475   4.303  0.7981  0.2064  0.0995
   41MOL   H41521295   6.812   5.560   4.190  0.9134  0.4327 -1.0114
   41MOL   H41621296   6.910   5.431   4.010 -0.1323 -0.7250 -0.6096
   41MOL   H41721297   6.839   5.202   3.976  3.7617 -0.0714  3.1201
   41MOL   C41821298   6.388   5.317   4.458  0.1401 -0.6247 -0.2719
   41MOL   C41921299   6.265   5.319   4.545 -0.1018 -0.2593 -0.2075
   41MOL   N42021300   6.193   5.187   4.541  0.0957  0.1052 -0.3783
   41MOL   C42121301   6.053   5.177   4.519 -0.5298 -0.3518 -0.6024
   41MOL   C42221302   6.020   5.040   4.523  0.0251  0.5095  0.5460
   41MOL   C42321303   5.889   5.001   4.491  0.3196  0.5437 -0.1369
   41MOL   C42421304   5.790   5.101   4.469 -0.0013  0.3281  0.0128
   41MOL   C42521305   5.821   5.234   4.483 -0.8800 -0.7999  0.4396
   41MOL   C42621306   5.951   5.276   4.503 -0.1113 -0.1876 -0.5513
   41MOL   C42721307   6.138   4.968   4.561 -0.2775  0.1988  0.2060
   41MOL   C42821308   6.241   5.064   4.574 -0.1858 -0.1965 -0.5479
   41MOL   C42921309   6.371   5.024   4.618 -0.3933 -0.1138  0.2231
   41MOL   C43021310   6.398   4.892   4.644 -0.3570  0.3462 -0.2620
   41MOL   C43121311   6.296   4.794   4.627  0.6894 -0.9042  0.3101
   41MOL   C43221312   6.166   4.836   4.592 -0.0799  0.1443  0.0226
   41MOL   H43321313   6.458   5.245   4.500  1.2317 -1.2341 -3.0403
   41MOL   H43421314   6.439   5.412   4.467 -0.5546 -0.2518 -0.2197
   41MOL   H43521315   6.191   5.379   4.493  0.3756  1.4783  1.0580
   41MOL   H43621316   5.852   4.901   4.507  1.5406  0.0659 -0.2776
   41MOL   H43721317   5.686   5.077   4.453 -0.4720  2.4533 -0.2865
   41MOL   H43821318   5.753   5.317   4.473 -0.4248 -0.4299  0.3661
   41MOL   H43921319   5.972   5.381   4.486 -1.8692  0.2226 -0.2549
   41MOL   H44021320   6.447   5.098   4.641 -1.3229  0.2765  2.1282
   41MOL   H44121321   6.498   4.872   4.680  0.0088 -0.2061 -1.5181
   41MOL   H44221322   6.311   4.693   4.665  0.0139 -0.8689  0.6849
   41MOL   H44321323   6.098   4.753   4.594 -1.1106  1.0136  1.2042
   41MOL   C44421324   6.292   5.376   4.693  0.1325 -0.4113 -0.0895
   41MOL   C44521325   6.284   5.527   4.715 -0.7957  0.1916  0.1408
   41MOL   N44621326   6.160   5.575   4.656  0.6901 -0.0894 -0.5772
   41MOL   C44721327   6.151   5.643   4.539 -0.3901 -0.2088 -0.8581
   41MOL   C44821328   6.017   5.678   4.505  0.2600  0.0127  0.2446
   41MOL   C44921329   5.993   5.750   4.381 -0.9330 -0.6153  0.1067
   41MOL   C45021330   6.106   5.772   4.294  0.7360 -0.2966 -0.4430
   41MOL   C45121331   6.236   5.745   4.332 -0.3647  0.1868  0.0644
   41MOL   C45221332   6.261   5.683   4.455 -1.1335 -0.1287 -0.0003
   41MOL   C45321333   5.939   5.629   4.615  0.9062 -0.5863 -0.1499
   41MOL   C45421334   6.029   5.559   4.701  0.2424  0.3247 -0.1661
   41MOL   C45521335   5.980   5.485   4.815  1.2565 -0.6598 -0.3896
   41MOL   C45621336   5.844   5.494   4.844 -0.3803 -0.0784 -0.1167
   41MOL   C45721337   5.752   5.554   4.755  0.0822  0.7045  0.8017
   41MOL   C45821338   5.794   5.621   4.640 -0.5373  0.2472  1.2111
   41MOL   H45921339   6.214   5.327   4.751 -0.0061  1.5016  1.4006
   41MOL   H46021340   6.386   5.330   4.721  0.1938  0.8196  1.7961
   41MOL   H46121341   6.363   5.577   4.658 -0.3877 -0.6932 -0.0782
   41MOL   H46221342   5.893   5.781   4.357 -1.5064 -1.2043  1.6394
   41MOL   H46321343   6.093   5.823   4.200  0.4567 -1.6461 -1.1648
   41MOL   H46421344   6.322   5.774   4.272 -1.0243 -0.6591 -1.3330
   41MOL   H46521345   6.364   5.665   4.480 -0.3939  2.9908 -0.5412
   41MOL   H46621346   6.041   5.427   4.882  0.9350  0.9912  1.3611
   41MOL   H46721347   5.798   5.457   4.934 -1.5353 -1.0593 -1.0860
   41MOL   H46821348   5.649   5.534   4.782  0.0735  1.4230  1.3143
   41MOL   H46921349   5.719   5.669   4.578 -1.2233 -4.1734 -1.6743
   41MOL   C47021350   6.298   5.572   4.864 -0.3600  0.0020 -0.0714
   41MOL   C47121351   6.265   5.722   4.884 -0.1117 -0.6782 -0.5835
   41MOL   N47221352   6.133   5.749   4.944 -0.3777  0.4983 -0.1030
   41MOL   C47321353   6.044   5.846   4.888  0.0682 -0.1066 -0.5562
   41MOL   C47421354   5.912   5.829   4.951 -0.3336 -0.9874  0.2781
   41MOL   C47521355   5.804   5.903   4.900  0.2700 -0.2297  0.3525
   41MOL   C47621356   5.814   5.982   4.787 -1.2730  0.1653  0.0924
   41MOL   C47721357   5.946   5.999   4.731  1.0640 -1.1412 -0.4553
   41MOL   C47821358   6.058   5.928   4.775  0.6882 -0.5007 -0.3771
   41MOL   C47921359   5.935   5.734   5.060 -1.0814  0.1963  0.2969
   41MOL   C48021360   6.069   5.696   5.054 -0.2375 -0.4022 -0.1936
   41MOL   C48121361   6.122   5.606   5.151  0.0710  0.0373 -0.0626
   41MOL   C48221362   6.049   5.558   5.255  0.1409  0.4831 -0.2981
   41MOL   C48321363   5.909   5.583   5.258  0.1730 -0.0110  0.2654
   41MOL   C48421364   5.853   5.676   5.161 -0.1574  0.0022 -0.0460
   41MOL   H48521365   6.237   5.509   4.929 -0.4742  0.3181  0.1279
   41MOL   H48621366   6.395   5.542   4.903  0.2489  0.3719 -1.2880
   41MOL   H48721367   6.267   5.777   4.790  0.7914 -0.4945 -0.4672
   41MOL   H48821368   5.708   5.901   4.948  0.2987  2.4066  0.6157
   41MOL   H48921369   5.734   6.033   4.735 -1.8446 -1.9963 -1.1894
   41MOL   H49021370   5.953   6.065   4.645  1.8655  0.9037  1.1216
   41MOL   H49121371   6.151   5.940   4.720  1.5643  1.5674  1.4865
   41MOL   H49221372   6.227   5.580   5.150  0.1388  0.2716  1.0343
   41MOL   H49321373   6.091   5.490   5.327 -4.0645 -2.3443 -0.3684
   41MOL   H49421374   5.852   5.537   5.337 -1.2024  1.2745  0.0411
   41MOL   H49521375   5.752   5.714   5.166 -0.6942 -1.5421  1.2364
   41MOL   C49621376   6.370   5.794   4.977  0.0886 -0.0043 -0.3610
   41MOL   C49721377   6.499   5.839   4.917  0.3160 -0.0255  0.4850
   41MOL   N49821378   6.497   5.894   4.785  0.0166  0.2788  0.5353
   41MOL   C49921379   6.555   5.843   4.664  0.1023  0.4399  0.2457
   41MOL   C50021380   6.507   5.914   4.552  0.5469 -0.0637  0.4064
   41MOL   C50121381   6.552   5.869   4.422  0.3000  0.1456 -0.8644
   41MOL   C50221382   6.641   5.764   4.406  0.3981  0.2275  0.2273
   41MOL   C50321383   6.690   5.690   4.521  0.3994 -0.5355 -0.0970
   41MOL   C50421384   6.646   5.729   4.650  0.4256 -0.7979  0.1707
   41MOL   C50521385   6.419   6.011   4.605 -0.7430 -0.1950 -0.1732
   41MOL   C50621386   6.423   6.003   4.749 -0.3887  0.2159 -0.5964
   41MOL   C50721387   6.353   6.100   4.824  0.3241 -0.1149  0.0241
   41MOL   C50821388   6.274   6.196   4.751 -0.1687 -0.7287  0.1048
   41MOL   C50921389   6.256   6.192   4.612  0.2931  0.0713 -0.1986
   41MOL   C51021390   6.335   6.101   4.541 -1.2862 -0.2142  0.2291
   41MOL   H51121391   6.319   5.882   5.017 -1.0663  0.6344 -3.0977
   41MOL   H51221392   6.387   5.740   5.070 -1.7106  1.9031  1.1453
   41MOL   H51321393   6.575   5.760   4.916 -1.3403 -1.6409  0.6860
   41MOL   H51421394   6.510   5.925   4.340  0.3315  3.5437  1.3373
   41MOL   H51521395   6.677   5.734   4.309 -0.7836 -0.9487  0.1407
   41MOL   H51621396   6.763   5.612   4.506  1.2795  0.4329 -1.0041
   41MOL   H51721397   6.679   5.676   4.738  2.1127 -1.5674 -0.8946
   41MOL   H51821398   6.357   6.095   4.932 -3.7916  0.3815  0.2938
   41MOL   H51921399   6.226   6.278   4.801  0.8315 -0.9534  1.4728
   41MOL   H52021400   6.192   6.264   4.564  0.4340 -0.6451 -1.4739
   41MOL   H52121401   6.319   6.098   4.434 -1.1119  0.6060  0.1718
   41MOL   H52221402   6.536   5.920   4.979 -1.5296  1.3658 -0.2094
   42MOL     C121403   2.883   2.501   1.061 -0.1361  0.6050 -0.4358
   42MOL     C221404   2.945   2.402   1.171 -0.3959 -0.1459 -0.4033
   42MOL     N321405   3.084   2.357   1.152  0.0718  0.3777  0.6402
   42MOL     C421406   3.129   2.222   1.133  0.3849 -0.5296 -0.0975
   42MOL     C521407   3.270   2.220   1.140  0.6251 -0.0500 -0.0580
   42MOL     C621408   3.334   2.096   1.142 -0.4202  0.2746 -0.6137
   42MOL     C721409   3.262   1.977   1.118 -0.1030  0.6226 -0.4725
   42MOL     C821410   3.124   1.981   1.094  0.1610  0.1496 -0.6743
   42MOL     C921411   3.055   2.103   1.100 -0.4726  0.7455 -0.7895
   42MOL    C1021412   3.315   2.350   1.153 -0.0698  0.0287 -0.5151
   42MOL    C1121413   3.197   2.434   1.155  0.5736 -0.0784 -0.1174
   42MOL    C1221414   3.209   2.577   1.158 -0.0497  0.1370  0.5075
   42MOL    C1321415   3.337   2.636   1.159 -0.7745 -0.4396 -0.2554
   42MOL    C1421416   3.449   2.550   1.167 -0.1131 -0.5740 -0.0079
   42MOL    C1521417   3.441   2.408   1.169 -0.3828 -0.3733 -1.2845
   42MOL    H1621418   2.912   2.469   0.961  0.9413 -1.3080  0.4619
   42MOL    H1721419   2.926   2.600   1.073 -0.8634  1.0569 -1.4585
   42MOL    H1821420   2.889   2.309   1.159 -0.2208 -0.4128  0.8357
   42MOL    H1921421   3.441   2.093   1.155 -0.6146  1.4416  1.3857
   42MOL    H2021422   3.312   1.881   1.123  2.0869  1.7918  0.6307
   42MOL    H2121423   3.057   1.896   1.085  1.8601 -1.3876  0.7282
   42MOL    H2221424   2.947   2.107   1.095 -0.6033  1.0577  1.6378
   42MOL    H2321425   3.122   2.641   1.152  0.9071  1.3062 -1.6166
   42MOL    H2421426   3.356   2.742   1.170 -3.3389  0.2886 -2.3314
   42MOL    H2521427   3.549   2.590   1.159 -0.8282  1.5406  1.2163
   42MOL    H2621428   3.528   2.343   1.172 -1.2994 -1.5916  2.3908
   42MOL    H2721429   2.774   2.503   1.068 -0.1761  0.0857 -0.9132
   42MOL    C2821430   2.922   2.449   1.316 -0.4557  0.1087 -0.6272
   42MOL    C2921431   2.981   2.347   1.418 -0.4934  0.1646 -0.6137
   42MOL    N3021432   3.009   2.402   1.553 -0.0894  0.0703 -0.2918
   42MOL    C3121433   3.133   2.433   1.612  0.0342 -0.3494 -0.1487
   42MOL    C3221434   3.116   2.472   1.750  0.4474 -0.0607  0.2195
   42MOL    C3321435   3.227   2.505   1.826  0.3323 -1.0273  0.0464
   42MOL    C3421436   3.357   2.499   1.768  0.5368  0.2150  0.1428
   42MOL    C3521437   3.370   2.462   1.634  1.0740 -0.4544 -0.7174
   42MOL    C3621438   3.258   2.426   1.551 -0.5219 -0.0344 -0.4597
   42MOL    C3721439   2.976   2.467   1.772 -0.3315 -0.0863  0.1520
   42MOL    C3821440   2.917   2.434   1.651 -0.1328 -0.0880  0.2452
   42MOL    C3921441   2.776   2.429   1.644 -0.4571 -0.0157  0.0407
   42MOL    C4021442   2.698   2.434   1.757  0.3277  0.5700  0.0930
   42MOL    C4121443   2.755   2.481   1.878  0.0912 -0.6972  0.3660
   42MOL    C4221444   2.897   2.499   1.883 -0.4949  0.3471  0.3109
   42MOL    H4321445   2.979   2.540   1.331  0.0677 -0.1147 -1.2547
   42MOL    H4421446   2.815   2.465   1.330 -0.7814 -1.7215 -0.9190
   42MOL    H4521447   3.083   2.324   1.389 -0.2237 -0.0891  0.5386
   42MOL    H4621448   3.204   2.530   1.928 -0.5452  3.0669 -1.0558
   42MOL    H4721449   3.440   2.537   1.826  0.6084  1.8905 -1.0374
   42MOL    H4821450   3.473   2.454   1.601  1.4407  0.7911  0.1033
   42MOL    H4921451   3.273   2.387   1.451  2.3516  0.5208 -0.2801
   42MOL    H5021452   2.740   2.397   1.548  0.1658 -3.2658  0.7937
   42MOL    H5121453   2.591   2.425   1.744  0.3635  0.8035 -0.3881
   42MOL    H5221454   2.697   2.505   1.966  0.4571  2.0392 -0.0878
   42MOL    H5321455   2.946   2.558   1.959  2.4928 -0.7957 -0.6261
   42MOL    C5421456   2.915   2.208   1.424  0.1121  0.2893  0.8926
   42MOL    C5521457   2.977   2.102   1.521  0.8858 -0.0851 -0.0530
   42MOL    N5621458   2.888   1.990   1.561  0.4109 -0.0783  0.2110
   42MOL    C5721459   2.831   1.985   1.687  0.1604 -0.2976  0.3937
   42MOL    C5821460   2.738   1.879   1.688 -0.7304  0.1141  0.5658
   42MOL    C5921461   2.658   1.861   1.813 -1.1003 -0.6297 -0.4997
   42MOL    C6021462   2.678   1.950   1.922  0.2369 -0.4528 -0.4331
   42MOL    C6121463   2.775   2.056   1.913  0.2357 -0.6551  0.4514
   42MOL    C6221464   2.844   2.072   1.794  0.6388  0.0265 -0.8959
   42MOL    C6321465   2.737   1.810   1.558  0.4788 -0.3373  0.3841
   42MOL    C6421466   2.836   1.881   1.481  0.0070 -0.6587  0.1499
   42MOL    C6521467   2.859   1.846   1.349  0.5568 -0.2494  0.2383
   42MOL    C6621468   2.781   1.745   1.286 -0.6929 -0.0988  0.4214
   42MOL    C6721469   2.689   1.669   1.361 -0.2663  0.0614 -0.0522
   42MOL    C6821470   2.668   1.706   1.498 -0.7950  0.1693 -1.0508
   42MOL    H6921471   2.809   2.208   1.449 -0.1825 -0.3891 -0.2841
   42MOL    H7021472   2.921   2.164   1.324  0.0322 -0.2484  1.1263
   42MOL    H7121473   3.006   2.161   1.608 -1.6798  0.2006  0.6564
   42MOL    H7221474   2.591   1.777   1.824  1.3839 -2.7287 -0.7409
   42MOL    H7321475   2.614   1.943   2.009  0.1709  1.8169 -0.2710
   42MOL    H7421476   2.796   2.133   1.985  0.8820  0.0950 -0.5199
   42MOL    H7521477   2.902   2.163   1.790 -1.1349  1.1916 -0.4894
   42MOL    H7621478   2.929   1.896   1.284  1.0497 -2.3934 -0.8960
   42MOL    H7721479   2.803   1.730   1.181 -2.2270 -0.7878  0.1943
   42MOL    H7821480   2.625   1.597   1.312  2.3730 -1.4904 -1.3044
   42MOL    H7921481   2.581   1.669   1.552 -0.2463  0.4234  0.0228
   42MOL    C8021482   3.107   2.043   1.465 -0.1527 -0.1161 -0.1011
   42MOL    C8121483   3.172   1.943   1.562 -0.3868 -0.1656 -0.0302
   42MOL    N8221484   3.299   1.906   1.500 -0.5169  0.0099 -0.3811
   42MOL    C8321485   3.333   1.788   1.433 -0.9252 -0.4721  0.7202
   42MOL    C8421486   3.467   1.783   1.394  0.2316  0.0881 -0.3061
   42MOL    C8521487   3.517   1.662   1.340  0.2677  0.3915 -0.3409
   42MOL    C8621488   3.435   1.551   1.332 -0.1902  0.3352  0.3966
   42MOL    C8721489   3.300   1.555   1.368 -0.1053  0.5771  1.0331
   42MOL    C8821490   3.244   1.677   1.410  0.2413 -0.2791 -0.4047
   42MOL    C8921491   3.522   1.909   1.433 -0.0928  0.0087 -0.6692
   42MOL    C9021492   3.418   1.984   1.493  0.4033  0.3901 -0.0413
   42MOL    C9121493   3.441   2.115   1.541  0.0454  0.0957 -0.1542
   42MOL    C9221494   3.572   2.165   1.529 -1.6519 -0.3374 -0.8118
   42MOL    C9321495   3.677   2.092   1.475 -1.4572  0.2771  0.2011
   42MOL    C9421496   3.651   1.965   1.427  0.2713  0.4919 -0.1636
   42MOL    H9521497   3.098   2.000   1.365  0.1114 -0.6275  0.0922
   42MOL    H9621498   3.177   2.125   1.453 -0.8656  0.3147 -1.4438
   42MOL    H9721499   3.111   1.853   1.565 -1.7199  0.7570  0.7696
   42MOL    H9821500   3.621   1.660   1.311 -0.7187  0.9614 -4.1244
   42MOL    H9921501   3.473   1.455   1.300  2.0975  0.8386  1.4843
   42MOL   H10021502   3.233   1.472   1.352  1.4976 -0.6382  0.4683
   42MOL   H10121503   3.140   1.678   1.437  0.2619 -1.8525 -0.2273
   42MOL   H10221504   3.358   2.174   1.578  1.5474  2.4270 -0.3861
   42MOL   H10321505   3.593   2.265   1.564  0.9669 -1.6972  1.7729
   42MOL   H10421506   3.783   2.111   1.486 -0.8842 -1.4796 -2.0664
   42MOL   H10521507   3.737   1.913   1.388  0.4213  0.2203  0.5300
   42MOL   C10621508   3.175   1.991   1.702 -0.1775 -0.1895  1.0486
   42MOL   C10721509   3.272   1.924   1.801  0.0384  1.0254  0.1072
   42MOL   N10821510   3.269   2.000   1.923  0.5765 -0.6073  0.0663
   42MOL   C10921511   3.359   2.105   1.953  0.1992  0.3907  0.0488
   42MOL   C11021512   3.320   2.163   2.078 -0.6105 -0.9811  0.2844
   42MOL   C11121513   3.390   2.269   2.137  0.0772  0.0880  0.7479
   42MOL   C11221514   3.505   2.321   2.071 -0.7173 -0.7081  0.0421
   42MOL   C11321515   3.547   2.265   1.945  0.3650 -0.0851 -0.2860
   42MOL   C11421516   3.470   2.157   1.888  0.0000 -0.0545 -0.3891
   42MOL   C11521517   3.209   2.091   2.127  0.3499 -0.7373  0.0362
   42MOL   C11621518   3.174   1.997   2.027  0.0781 -0.0877  0.1619
   42MOL   C11721519   3.049   1.931   2.038  0.5315 -0.4296  0.7241
   42MOL   C11821520   2.971   1.949   2.151  0.8798  0.5211  0.2223
   42MOL   C11921521   3.014   2.031   2.255  0.3896  0.1093 -0.0763
   42MOL   C12021522   3.133   2.108   2.242 -0.2060 -0.2978 -0.1099
   42MOL   H12121523   3.192   2.099   1.706 -1.1947 -0.0298  1.1521
   42MOL   H12221524   3.083   1.964   1.753 -0.3641 -1.2944  0.1390
   42MOL   H12321525   3.373   1.928   1.760  1.1181  0.1200  2.5725
   42MOL   H12421526   3.366   2.311   2.234  3.1217  0.8014  1.2307
   42MOL   H12521527   3.560   2.406   2.108  0.3468 -0.5908 -1.7528
   42MOL   H12621528   3.633   2.307   1.895 -0.9408  0.1844 -2.3825
   42MOL   H12721529   3.513   2.115   1.798  3.7431  0.6087  1.0111
   42MOL   H12821530   3.017   1.870   1.954 -0.9425 -0.3394  1.2111
   42MOL   H12921531   2.873   1.904   2.152 -0.3753  3.1745  1.8059
   42MOL   H13021532   2.946   2.041   2.337  1.0967  1.5032  0.3553
   42MOL   H13121533   3.155   2.193   2.306  1.0163  0.1754 -1.1425
   42MOL   C13221534   3.254   1.769   1.826 -0.7340 -0.2071 -0.4982
   42MOL   C13321535   3.322   1.709   1.948 -0.0258  0.2563  0.1279
   42MOL   N13421536   3.306   1.561   1.965  0.5779  0.1306 -0.2382
   42MOL   C13521537   3.286   1.499   2.090 -0.4826 -0.1550 -0.4019
   42MOL   C13621538   3.309   1.358   2.081 -0.1451  0.5903 -0.2589
   42MOL   C13721539   3.314   1.281   2.203  0.0353  0.4798 -0.0780
   42MOL   C13821540   3.289   1.341   2.328  0.0134  0.8293 -0.1197
   42MOL   C13921541   3.251   1.477   2.336 -0.7760 -0.7834 -0.3638
   42MOL   C14021542   3.258   1.554   2.219  0.4198 -0.1757 -0.7513
   42MOL   C14121543   3.327   1.330   1.946 -0.1276  0.4092 -0.0098
   42MOL   C14221544   3.324   1.458   1.876  0.2042 -0.5889  0.0185
   42MOL   C14321545   3.350   1.465   1.737  0.1649  0.0436 -0.1430
   42MOL   C14421546   3.368   1.343   1.666  0.1380 -0.0120  0.3354
   42MOL   C14521547   3.354   1.218   1.727 -0.2016  0.4860  0.2002
   42MOL   C14621548   3.346   1.212   1.869 -0.5127 -0.3208 -0.4732
   42MOL   H14721549   3.147   1.748   1.820 -0.8357 -0.0433  0.6785
   42MOL   H14821550   3.296   1.725   1.735 -0.8754 -5.1177  1.6341
   42MOL   H14921551   3.278   1.749   2.040 -0.4481  0.9347 -0.3617
   42MOL   H15021552   3.347   1.178   2.202  0.6084  0.6666 -1.0529
   42MOL   H15121553   3.293   1.281   2.418 -2.8242  0.9707  0.1677
   42MOL   H15221554   3.228   1.518   2.432  0.8241  0.7273 -0.5941
   42MOL   H15321555   3.236   1.660   2.228  0.4749 -0.1890 -0.4555
   42MOL   H15421556   3.367   1.555   1.680  2.1685 -0.2818 -0.1129
   42MOL   H15521557   3.391   1.353   1.561  0.2399  0.7777  0.4323
   42MOL   H15621558   3.352   1.125   1.673 -0.6783  0.7339 -0.2128
   42MOL   H15721559   3.342   1.116   1.917  0.2703  1.7773  4.0938
   42MOL   C15821560   3.477   1.739   1.954  0.1305  0.0407  0.1818
   42MOL   C15921561   3.543   1.726   2.095  0.0670 -0.0144  0.1665
   42MOL   N16021562   3.685   1.697   2.075 -0.0457  0.2490  0.2289
   42MOL   C16121563   3.747   1.589   2.139  0.0026  0.3810  0.4330
   42MOL   C16221564   3.890   1.604   2.125 -0.0822  1.0148 -0.0839
   42MOL   C16321565   3.972   1.508   2.184  0.3932 -0.1464 -0.0951
   42MOL   C16421566   3.914   1.396   2.257  0.2664 -0.7725  0.2986
   42MOL   C16521567   3.775   1.381   2.261 -0.4765 -0.2528  0.6962
   42MOL   C16621568   3.691   1.479   2.205 -0.6818  0.4691  0.3991
   42MOL   C16721569   3.918   1.717   2.040 -0.9336  0.1873 -0.3247
   42MOL   C16821570   3.789   1.772   2.010  0.3523  0.2400 -0.4604
   42MOL   C16921571   3.780   1.882   1.932 -0.2056 -0.2062 -1.3758
   42MOL   C17021572   3.892   1.952   1.888 -0.4545 -0.0452  0.1085
   42MOL   C17121573   4.021   1.897   1.918 -0.4502 -0.1092  0.3175
   42MOL   C17221574   4.033   1.786   2.000 -0.2908 -0.5351 -0.7281
   42MOL   H17321575   3.534   1.680   1.883  0.7134  0.4561  0.2972
   42MOL   H17421576   3.505   1.836   1.914 -1.9108  0.3898 -0.4953
   42MOL   H17521577   3.503   1.639   2.147  1.7835  0.9803  3.2114
   42MOL   H17621578   4.079   1.515   2.177  0.5007  0.2479  1.8816
   42MOL   H17721579   3.969   1.313   2.298  1.5450  0.5809  1.3788
   42MOL   H17821580   3.731   1.298   2.313 -0.6800 -0.2766  0.4882
   42MOL   H17921581   3.583   1.471   2.216 -0.7971 -0.8347 -1.5913
   42MOL   H18021582   3.692   1.939   1.905 -0.7056 -0.1097  0.4142
   42MOL   H18121583   3.875   2.039   1.827  0.6416  0.9053  1.1390
   42MOL   H18221584   4.109   1.943   1.876 -0.9906  0.8528  0.2082
   42MOL   H18321585   4.133   1.756   2.030 -0.4405  1.1436  1.5673
   42MOL   C18421586   3.518   1.845   2.196 -0.2422  1.0042 -0.0782
   42MOL   C18521587   3.592   1.841   2.324  0.2402  0.2656 -0.7939
   42MOL   N18621588   3.622   1.971   2.373  0.2548 -0.1497  0.1838
   42MOL   C18721589   3.752   2.025   2.372 -0.7352  0.2291 -0.9321
   42MOL   C18821590   3.745   2.157   2.415  0.5331  0.9773  0.0747
   42MOL   C18921591   3.860   2.236   2.411 -0.4576  0.1894  0.3891
   42MOL   C19021592   3.990   2.182   2.374  0.4089  1.0736 -0.1215
   42MOL   C19121593   3.995   2.052   2.337 -0.8781  0.0965 -0.0695
   42MOL   C19221594   3.878   1.971   2.331 -0.3271 -0.1524  0.0889
   42MOL   C19321595   3.605   2.186   2.449  0.2719 -0.3389 -0.1699
   42MOL   C19421596   3.530   2.067   2.417  0.2932  0.2223 -0.1947
   42MOL   C19521597   3.395   2.056   2.443  0.7074 -0.1693 -0.2504
   42MOL   C19621598   3.326   2.162   2.503  0.3415 -0.3138  0.4440
   42MOL   C19721599   3.399   2.280   2.539 -0.2835 -0.1982 -0.3257
   42MOL   C19821600   3.539   2.300   2.511  0.6245 -0.2870 -0.5359
   42MOL   H19921601   3.535   1.941   2.149 -1.0315  0.6243 -1.1663
   42MOL   H20021602   3.412   1.864   2.213 -0.6480 -0.0295 -1.2885
   42MOL   H20121603   3.693   1.805   2.304  0.1297 -1.9473  2.1886
   42MOL   H20221604   3.865   2.344   2.423 -0.8035  0.3439 -0.8011
   42MOL   H20321605   4.073   2.251   2.382  0.9070  0.4405  0.1838
   42MOL   H20421606   4.089   2.017   2.297 -1.8128 -0.4665 -1.8031
   42MOL   H20521607   3.893   1.881   2.274 -0.3818  1.3713 -2.4137
   42MOL   H20621608   3.338   1.966   2.423  0.5458  0.0815 -0.9677
   42MOL   H20721609   3.219   2.158   2.516  0.1578  0.5279 -0.6935
   42MOL   H20821610   3.344   2.364   2.578 -0.7155  0.3550 -2.0486
   42MOL   H20921611   3.599   2.389   2.525 -0.1020  0.2877 -1.0658
   42MOL   C21021612   3.539   1.748   2.433  0.1484 -0.3563 -0.3393
   42MOL   C21121613   3.629   1.720   2.554  0.4065 -0.0500  0.9806
   42MOL   N21221614   3.557   1.660   2.667 -0.4973  0.4582  0.3619
   42MOL   C21321615   3.525   1.721   2.787  0.3989  0.2095  0.7016
   42MOL   C21421616   3.469   1.618   2.868  0.1854  0.0980  0.1654
   42MOL   C21521617   3.438   1.650   2.999 -1.0789  0.7633 -0.2741
   42MOL   C21621618   3.459   1.786   3.037  0.1822 -0.3663  0.0598
   42MOL   C21721619   3.514   1.886   2.955  0.7014  0.1396  0.5534
   42MOL   C21821620   3.550   1.850   2.824  0.6759 -0.2763  0.2986
   42MOL   C21921621   3.462   1.494   2.796 -0.1005 -1.2277 -0.4060
   42MOL   C22021622   3.515   1.526   2.670  0.2662  0.6995 -0.5637
   42MOL   C22121623   3.520   1.424   2.574 -0.2459  0.0364  0.3918
   42MOL   C22221624   3.493   1.291   2.605 -0.5165  0.3098  0.0610
   42MOL   C22321625   3.427   1.260   2.729  0.1211  0.4035 -0.3824
   42MOL   C22421626   3.417   1.360   2.829  0.4066  0.2443 -0.0861
   42MOL   H22521627   3.441   1.780   2.467 -1.1941 -1.0676 -3.3721
   42MOL   H22621628   3.514   1.652   2.386 -0.2532 -0.5527  0.2838
   42MOL   H22721629   3.664   1.815   2.595  3.2114 -1.4270  1.9092
   42MOL   H22821630   3.393   1.574   3.061 -0.5873  0.1566 -0.6505
   42MOL   H22921631   3.421   1.818   3.133  1.8657 -0.0728  0.6398
   42MOL   H23021632   3.533   1.984   2.995 -1.9459  0.9637 -0.1471
   42MOL   H23121633   3.602   1.928   2.771 -0.3700  2.8759  3.6731
   42MOL   H23221634   3.571   1.450   2.482  0.5646  0.4656  0.9503
   42MOL   H23321635   3.510   1.219   2.525 -1.1673  0.1266  0.0824
   42MOL   H23421636   3.383   1.164   2.754  1.0050  0.7563  2.7707
   42MOL   H23521637   3.375   1.335   2.925 -0.4843 -0.4364 -0.6515
   42MOL   C23621638   3.776   1.663   2.525  0.2166 -0.0052 -0.0614
   42MOL   C23721639   3.849   1.595   2.635  1.0755  0.3189  0.8323
   42MOL   N23821640   3.962   1.523   2.581  0.9698 -0.5236  0.4089
   42MOL   C23921641   3.987   1.390   2.593 -0.3049  0.8026  0.0234
   42MOL   C24021642   4.113   1.355   2.535  0.0581 -0.2707 -0.4676
   42MOL   C24121643   4.155   1.220   2.540  0.1837 -0.2681  0.1002
   42MOL   C24221644   4.067   1.122   2.601  0.0894  0.2317 -0.3283
   42MOL   C24321645   3.936   1.157   2.643 -0.4732 -0.3115 -0.5808
   42MOL   C24421646   3.900   1.291   2.643  0.9134 -0.6764 -0.3063
   42MOL   C24521647   4.169   1.478   2.490  0.3517  0.1016 -0.4790
   42MOL   C24621648   4.070   1.575   2.513 -0.8049 -0.0743 -0.1332
   42MOL   C24721649   4.109   1.708   2.475 -0.1898 -0.2401 -0.1798
   42MOL   C24821650   4.232   1.740   2.416 -0.5071  0.6834 -0.6231
   42MOL   C24921651   4.324   1.638   2.390 -0.3485  0.1476  0.5328
   42MOL   C25021652   4.285   1.507   2.421  0.6057 -0.6511  0.0161
   42MOL   H25121653   3.753   1.573   2.468 -1.0494 -0.3708  0.9835
   42MOL   H25221654   3.822   1.740   2.463 -0.3945  1.0917  0.7995
   42MOL   H25321655   3.789   1.519   2.684  1.4088 -1.5842 -1.6531
   42MOL   H25421656   4.255   1.192   2.510 -0.4369 -2.8995  0.3417
   42MOL   H25521657   4.087   1.016   2.597 -2.0621 -0.1998 -0.2357
   42MOL   H25621658   3.881   1.075   2.686  1.1791 -1.8637 -1.4127
   42MOL   H25721659   3.805   1.315   2.688  1.4314  1.0272 -0.0681
   42MOL   H25821660   4.054   1.797   2.503  0.7148  0.3051 -0.1048
   42MOL   H25921661   4.256   1.841   2.387 -1.8867  1.1165 -0.2842
   42MOL   H26021662   4.414   1.640   2.330 -1.9772 -2.6430 -2.1831
   42MOL   H26121663   4.344   1.423   2.387  1.3634  0.3096 -1.0735
   42MOL   C26221664   3.897   1.683   2.746  0.3356 -0.3115  0.1178
   42MOL   C26321665   3.933   1.609   2.874  0.1221  0.3849 -0.3121
   42MOL   N26421666   4.016   1.695   2.953  0.1468  0.6562  0.1856
   42MOL   C26521667   4.153   1.692   2.951  0.1605 -0.0127  0.3577
   42MOL   C26621668   4.207   1.791   3.042 -0.2289  1.7767  0.3226
   42MOL   C26721669   4.347   1.794   3.063 -0.4842  0.2116  0.2110
   42MOL   C26821670   4.434   1.711   2.990 -0.0162  0.0115  0.6411
   42MOL   C26921671   4.389   1.618   2.899  0.0480  0.8009 -0.4075
   42MOL   C27021672   4.246   1.608   2.881 -0.0862 -0.0285 -0.2686
   42MOL   C27121673   4.096   1.860   3.091  0.2863 -0.1897  0.3371
   42MOL   C27221674   3.979   1.810   3.023  0.6573 -0.1638 -0.6091
   42MOL   C27321675   3.854   1.868   3.054  0.1649 -0.2659 -0.2119
   42MOL   C27421676   3.844   1.984   3.125 -0.2983  0.2270  0.0468
   42MOL   C27521677   3.958   2.035   3.189 -0.0848  0.4798 -0.2164
   42MOL   C27621678   4.083   1.970   3.179 -0.3709 -0.5523  0.3914
   42MOL   H27721679   3.985   1.742   2.722  0.5469 -0.6754 -0.0167
   42MOL   H27821680   3.818   1.753   2.772  1.4925  0.3292  1.9889
   42MOL   H27921681   3.996   1.529   2.836  0.4708  0.0897  0.8744
   42MOL   H28021682   4.404   1.851   3.135  0.9080 -0.4479 -0.3456
   42MOL   H28121683   4.540   1.716   3.008 -0.3592  0.6966  2.6728
   42MOL   H28221684   4.464   1.561   2.847 -0.0190  1.5586 -1.3502
   42MOL   H28321685   4.202   1.543   2.806 -3.1224  1.3374  0.2510
   42MOL   H28421686   3.764   1.837   3.003  1.3874 -1.0516 -1.9781
   42MOL   H28521687   3.744   2.023   3.135 -0.0566  0.8476  0.0329
   42MOL   H28621688   3.952   2.131   3.239 -0.4943  0.2532  0.1632
   42MOL   H28721689   4.173   2.019   3.211 -1.1570  1.3346 -0.1560
   42MOL   C28821690   3.815   1.540   2.951  0.5457  0.5109 -0.8282
   42MOL   C28921691   3.860   1.460   3.076  0.4892  0.0416  0.6048
   42MOL   N29021692   3.747   1.446   3.170  0.2626  0.1779 -0.9865
   42MOL   C29121693   3.727   1.546   3.267  0.5461  0.0456 -0.4110
   42MOL   C29221694   3.604   1.519   3.332 -0.3210 -1.0428  0.2300
   42MOL   C29321695   3.566   1.610   3.433  0.2852 -0.4500  0.5170
   42MOL   C29421696   3.646   1.718   3.475  0.4559  1.1174 -0.1690
   42MOL   C29521697   3.768   1.741   3.412 -0.3572 -0.1545  0.3570
   42MOL   C29621698   3.805   1.656   3.307  0.3417 -0.2022  0.6000
   42MOL   C29721699   3.559   1.391   3.281 -0.0773 -0.6263 -0.5462
   42MOL   C29821700   3.647   1.347   3.172 -0.1959  0.3119  0.3515
   42MOL   C29921701   3.627   1.230   3.101 -0.1329 -0.6708 -0.2237
   42MOL   C30021702   3.510   1.154   3.130 -0.4805 -0.1480  0.1576
   42MOL   C30121703   3.424   1.197   3.231 -0.7318  0.4869  0.8570
   42MOL   C30221704   3.446   1.317   3.306 -0.4749 -0.1789 -0.2403
   42MOL   H30321705   3.749   1.622   2.978 -0.7709 -1.2505  1.4942
   42MOL   H30421706   3.758   1.469   2.890 -2.7516  1.8978  0.5098
   42MOL   H30521707   3.937   1.518   3.127  0.3646  2.0858 -1.4502
   42MOL   H30621708   3.467   1.596   3.472 -0.5008  0.6932 -0.9957
   42MOL   H30721709   3.622   1.770   3.567 -0.0247  1.1565 -0.3154
   42MOL   H30821710   3.840   1.819   3.432 -1.7824  1.9341 -2.4285
   42MOL   H30921711   3.900   1.675   3.258 -0.3250 -0.1633 -0.6974
   42MOL   H31021712   3.688   1.204   3.016  0.1033  0.7646 -0.5090
   42MOL   H31121713   3.483   1.070   3.068  2.9127  0.8127 -2.7989
   42MOL   H31221714   3.335   1.138   3.249 -0.8865 -0.8035 -3.4381
   42MOL   H31321715   3.380   1.346   3.387 -0.6260  0.9763 -0.7801
   42MOL   C31421716   3.926   1.330   3.023  0.5860  0.0749 -0.3190
   42MOL   C31521717   3.959   1.217   3.121  0.1941  0.5109 -0.6533
   42MOL   N31621718   3.996   1.086   3.060  0.9965  0.8531  0.2805
   42MOL   C31721719   3.926   0.962   3.070  0.2019  0.4482 -0.1948
   42MOL   C31821720   3.998   0.859   2.999  0.7181  0.1314 -0.1998
   42MOL   C31921721   3.952   0.726   3.012  0.1015 -0.7435 -0.4069
   42MOL   C32021722   3.828   0.707   3.084  0.7284 -0.1040 -0.4657
   42MOL   C32121723   3.753   0.808   3.151 -0.2309 -0.4586 -0.1939
   42MOL   C32221724   3.806   0.940   3.145  0.0540 -0.5319  0.6668
   42MOL   C32321725   4.112   0.920   2.946 -0.2033 -0.3994 -0.1981
   42MOL   C32421726   4.101   1.059   2.969  0.3906 -0.0956 -0.5050
   42MOL   C32521727   4.206   1.142   2.921 -0.3005  0.4731  0.6494
   42MOL   C32621728   4.320   1.088   2.850  0.6655 -0.7127 -0.0488
   42MOL   C32721729   4.312   0.954   2.812  0.0445  0.0470 -0.4286
   42MOL   C32821730   4.220   0.865   2.869  0.4710 -0.0487 -0.0253
   42MOL   H32921731   3.866   1.282   2.945  1.0056 -0.3934 -0.3539
   42MOL   H33021732   4.020   1.364   2.979  2.0119 -0.7139  2.0560
   42MOL   H33121733   3.877   1.203   3.191  0.7130  1.6304  0.1924
   42MOL   H33221734   4.013   0.643   2.979  1.1871 -0.9997  2.0817
   42MOL   H33321735   3.800   0.604   3.103  1.9468  0.0418  2.2167
   42MOL   H33421736   3.662   0.791   3.207 -0.6398  1.7334 -0.1756
   42MOL   H33521737   3.750   1.017   3.195 -0.0107  1.2567 -2.0300
   42MOL   H33621738   4.202   1.246   2.948 -1.0180  0.5187  0.3703
   42MOL   H33721739   4.399   1.152   2.812 -0.1792  0.5904  0.3747
   42MOL   H33821740   4.389   0.914   2.748  1.8019  0.0812  1.5903
   42MOL   H33921741   4.224   0.758   2.852 -1.2655 -0.0628 -0.4421
   42MOL   C34021742   4.073   1.266   3.212  0.1977 -0.1656  0.7523
   42MOL   C34121743   4.122   1.175   3.323  0.4351  0.0075 -0.2273
   42MOL   N34221744   4.012   1.122   3.412  0.0780  0.0133  1.0288
   42MOL   C34321745   3.923   1.203   3.482 -0.0142 -0.6059  0.6767
   42MOL   C34421746   3.815   1.126   3.536  0.3636  0.8327 -0.2073
   42MOL   C34521747   3.708   1.197   3.605  0.8641 -0.6444  0.4555
   42MOL   C34621748   3.718   1.334   3.626  0.4611  0.1443 -0.3874
   42MOL   C34721749   3.825   1.409   3.575 -0.1834  0.3343 -0.3739
   42MOL   C34821750   3.927   1.348   3.502 -0.0071  0.0340  0.0013
   42MOL   C34921751   3.839   0.991   3.504  0.4482  1.4050 -0.0415
   42MOL   C35021752   3.961   0.988   3.424  0.4425 -0.6513  0.0550
   42MOL   C35121753   4.006   0.867   3.366  0.5762  0.6577 -0.1320
   42MOL   C35221754   3.942   0.745   3.406  0.4459  0.0552 -0.1621
   42MOL   C35321755   3.827   0.749   3.480  0.5022  0.1250 -0.1312
   42MOL   C35421756   3.773   0.866   3.528  0.1352  0.0779 -0.2425
   42MOL   H35521757   4.156   1.304   3.154  0.7964 -0.1497  1.6046
   42MOL   H35621758   4.029   1.353   3.261 -2.5948 -0.5242 -1.0284
   42MOL   H35721759   4.178   1.238   3.392  0.9208 -1.5792  0.8579
   42MOL   H35821760   3.621   1.139   3.631 -0.2765  0.6097 -0.4980
   42MOL   H35921761   3.636   1.389   3.671  1.8692  0.9126  1.3330
   42MOL   H36021762   3.827   1.516   3.590 -0.4015  0.5032 -1.5625
   42MOL   H36121763   4.008   1.409   3.464 -0.8242  0.2764 -1.4042
   42MOL   H36221764   4.094   0.855   3.306  0.1576 -1.0375 -0.4327
   42MOL   H36321765   3.984   0.652   3.370 -1.1789 -1.0998  0.8438
   42MOL   H36421766   3.775   0.657   3.503 -1.4844  0.7548 -1.8928
   42MOL   H36521767   3.682   0.860   3.585  0.0996 -0.5825 -0.3662
   42MOL   C36621768   4.236   1.082   3.276  0.0337  0.2493  0.8949
   42MOL   C36721769   4.327   1.035   3.395 -0.2694  0.2683 -0.3545
   42MOL   N36821770   4.370   0.901   3.365  0.3051  0.4106  0.3780
   42MOL   C36921771   4.362   0.791   3.445 -0.4639  0.1875 -0.1325
   42MOL   C37021772   4.417   0.674   3.379  0.0071  0.6368  0.2941
   42MOL   C37121773   4.419   0.546   3.437 -0.0884  0.2216 -0.2620
   42MOL   C37221774   4.373   0.534   3.574  0.6459  0.1396  0.2858
   42MOL   C37321775   4.326   0.648   3.643 -0.3525  0.2365  0.9378
   42MOL   C37421776   4.320   0.774   3.573  0.2607  0.4005 -0.1274
   42MOL   C37521777   4.462   0.720   3.255  1.1278  0.0805 -0.0737
   42MOL   C37621778   4.444   0.861   3.253  0.3163  0.1376 -0.3040
   42MOL   C37721779   4.491   0.932   3.138  0.0628 -0.4454  0.2298
   42MOL   C37821780   4.554   0.873   3.026  0.5666 -0.2297 -0.0383
   42MOL   C37921781   4.558   0.737   3.030 -0.1938  0.2495 -0.3519
   42MOL   C38021782   4.514   0.657   3.139  0.2187  0.3504 -0.0594
   42MOL   H38121783   4.197   0.994   3.225 -1.1213  1.1223  0.2734
   42MOL   H38221784   4.301   1.130   3.203  0.4126 -0.1356  0.9759
   42MOL   H38321785   4.266   1.020   3.484 -0.8771  2.3931 -0.3829
   42MOL   H38421786   4.455   0.462   3.380  2.6330  1.5750 -0.6526
   42MOL   H38521787   4.367   0.438   3.624  2.0753  0.7373  1.6704
   42MOL   H38621788   4.278   0.650   3.740 -1.3695  1.4314  0.4302
   42MOL   H38721789   4.268   0.856   3.621  0.1598  1.3945 -1.9170
   42MOL   H38821790   4.472   1.038   3.135  1.4512 -0.2348 -1.7725
   42MOL   H38921791   4.578   0.927   2.936 -1.1640 -1.2265 -1.1228
   42MOL   H39021792   4.604   0.676   2.954  1.5546 -0.5069  1.2655
   42MOL   H39121793   4.529   0.550   3.137 -1.6293  0.0668  0.6849
   42MOL   C39221794   4.440   1.128   3.424 -0.6055 -0.5681  0.1352
   42MOL   C39321795   4.532   1.093   3.539 -0.1750 -0.4115  0.2232
   42MOL   N39421796   4.654   1.033   3.493 -0.0296 -0.1793 -0.2281
   42MOL   C39521797   4.722   0.918   3.548  0.6900  0.2350  0.1326
   42MOL   C39621798   4.831   0.883   3.466 -0.3853 -0.6058 -0.3560
   42MOL   C39721799   4.907   0.768   3.501  0.2785 -0.0849  0.2210
   42MOL   C39821800   4.873   0.700   3.623 -0.8640 -0.2319  0.1356
   42MOL   C39921801   4.760   0.730   3.697  1.4159 -0.5958  0.1441
   42MOL   C40021802   4.680   0.841   3.660 -0.9486 -0.2725  0.2618
   42MOL   C40121803   4.849   0.994   3.379 -0.5293  0.4369  1.1191
   42MOL   C40221804   4.744   1.085   3.394 -0.5749  0.0652  0.3562
   42MOL   C40321805   4.737   1.206   3.322  0.0375  0.1644  0.2743
   42MOL   C40421806   4.833   1.231   3.227 -0.4335  0.3198 -0.4322
   42MOL   C40521807   4.938   1.142   3.203  0.3747  0.4791 -0.6044
   42MOL   C40621808   4.940   1.017   3.269 -0.1380  0.0888 -0.9729
   42MOL   H40721809   4.493   1.139   3.330 -0.9360 -0.8452 -0.0852
   42MOL   H40821810   4.402   1.226   3.451  1.2144 -0.2324  1.5999
   42MOL   H40921811   4.486   1.018   3.603 -0.8247  0.1311  0.3958
   42MOL   H41021812   5.000   0.745   3.451 -0.5304 -3.3374  0.1012
   42MOL   H41121813   4.935   0.619   3.659 -0.1914  1.4298  2.8996
   42MOL   H41221814   4.731   0.660   3.774 -1.5710  0.9324  0.4579
   42MOL   H41321815   4.590   0.867   3.715 -1.5837 -1.8725  0.0025
   42MOL   H41421816   4.666   1.286   3.340  0.2670  0.1921  1.0535
   42MOL   H41521817   4.828   1.326   3.176 -0.5182  0.9915  0.8122
   42MOL   H41621818   5.022   1.171   3.141  2.1422 -1.9574  0.5603
   42MOL   H41721819   5.017   0.944   3.253  0.7150  0.4168  1.4933
   42MOL   C41821820   4.576   1.213   3.623 -0.2316 -0.0834  0.4349
   42MOL   C41921821   4.471   1.269   3.726  0.3103  0.4880  0.7039
   42MOL   N42021822   4.413   1.164   3.811  0.1776  0.3385 -0.0122
   42MOL   C42121823   4.279   1.158   3.826  0.1410 -0.3864 -0.6718
   42MOL   C42221824   4.249   1.041   3.899 -0.4069  0.0012 -0.4747
   42MOL   C42321825   4.116   1.002   3.922  0.1713  0.2331  0.1719
   42MOL   C42421826   4.006   1.084   3.876 -0.4359 -0.0694 -0.0449
   42MOL   C42521827   4.036   1.203   3.810  0.2400  0.7214  0.1523
   42MOL   C42621828   4.169   1.246   3.790 -0.4091  0.0865 -0.0315
   42MOL   C42721829   4.373   0.982   3.937  0.0507 -0.9383 -0.9372
   42MOL   C42821830   4.471   1.066   3.887  0.1085  0.5693  0.1261
   42MOL   C42921831   4.605   1.041   3.915 -0.0033 -0.0103 -0.0525
   42MOL   C43021832   4.644   0.923   3.983 -0.0612 -0.0746 -0.6836
   42MOL   C43121833   4.542   0.837   4.028  0.1375  0.3429 -1.1879
   42MOL   C43221834   4.407   0.866   4.011  0.3384  0.0656 -0.3708
   42MOL   H43321835   4.666   1.191   3.680  1.2959  2.4227 -0.8980
   42MOL   H43421836   4.596   1.291   3.550  0.3872 -0.4456  0.2135
   42MOL   H43521837   4.383   1.299   3.669 -1.4658  1.7733  3.9596
   42MOL   H43621838   4.104   0.908   3.973  0.1381  0.1460  0.0043
   42MOL   H43721839   3.904   1.050   3.883 -0.1361 -0.7708  1.0652
   42MOL   H43821840   3.966   1.281   3.784  1.7029  1.2792 -2.2719
   42MOL   H43921841   4.180   1.345   3.749  0.3014  0.5443  1.2064
   42MOL   H44021842   4.689   1.100   3.884 -0.0013  0.5352  0.9722
   42MOL   H44121843   4.748   0.895   3.987 -0.0969  0.0607  2.3909
   42MOL   H44221844   4.584   0.755   4.084 -2.2465  0.4960  0.8955
   42MOL   H44321845   4.328   0.808   4.056 -0.7964  2.0101  0.1875
   42MOL   C44421846   4.514   1.390   3.818  0.4683  0.1921 -0.1629
   42MOL   C44521847   4.536   1.522   3.735  0.0491  0.0245  0.3153
   42MOL   N44621848   4.407   1.554   3.673 -0.1460 -0.4776  0.3989
   42MOL   C44721849   4.373   1.547   3.536 -0.0451 -0.0020 -0.7499
   42MOL   C44821850   4.237   1.588   3.518  0.0925 -0.2746 -0.1843
   42MOL   C44921851   4.184   1.593   3.386 -0.0541  0.0186 -0.3323
   42MOL   C45021852   4.252   1.542   3.278 -0.5039  0.7132 -0.0163
   42MOL   C45121853   4.384   1.507   3.292  0.2946  0.5099 -0.9327
   42MOL   C45221854   4.448   1.511   3.420  0.0088 -0.1649 -0.2348
   42MOL   C45321855   4.184   1.624   3.643  0.2621  0.3894 -0.7352
   42MOL   C45421856   4.290   1.591   3.738 -0.1181 -0.9565 -0.2565
   42MOL   C45521857   4.270   1.610   3.877 -0.2542  0.6068 -0.3117
   42MOL   C45621858   4.144   1.645   3.921 -0.5730 -0.8478  0.2348
   42MOL   C45721859   4.038   1.673   3.834 -0.0338 -0.0741  0.1520
   42MOL   C45821860   4.062   1.671   3.696 -0.1440  0.9935  0.2918
   42MOL   H45921861   4.432   1.411   3.886  0.2031 -0.9077 -0.1428
   42MOL   H46021862   4.604   1.378   3.879 -1.8481  0.6402  3.4860
   42MOL   H46121863   4.606   1.486   3.659 -0.1046  1.8341 -0.7107
   42MOL   H46221864   4.077   1.606   3.378 -0.0451  1.9774  1.8555
   42MOL   H46321865   4.216   1.538   3.176  1.6629  1.0961 -0.8259
   42MOL   H46421866   4.436   1.473   3.204  0.3593  0.9742 -1.0792
   42MOL   H46521867   4.555   1.496   3.415  0.3711  2.6781 -2.0364
   42MOL   H46621868   4.345   1.598   3.953 -1.6091  0.8277  1.0867
   42MOL   H46721869   4.121   1.650   4.026 -2.7210  1.1642 -0.2802
   42MOL   H46821870   3.934   1.685   3.863 -0.0779  0.4589 -0.2140
   42MOL   H46921871   3.978   1.702   3.636 -0.5128  0.6932  0.6550
   42MOL   C47021872   4.590   1.636   3.808 -0.3994  0.3162 -0.7547
   42MOL   C47121873   4.731   1.698   3.764  0.4239 -0.0834 -0.5875
   42MOL   N47221874   4.847   1.624   3.819  0.0166  0.6148  0.5520
   42MOL   C47321875   4.920   1.664   3.933 -0.4755 -0.5739 -0.1713
   42MOL   C47421876   5.020   1.565   3.960 -0.2292 -0.4597 -0.4191
   42MOL   C47521877   5.096   1.583   4.083  0.6322 -0.1797 -0.5579
   42MOL   C47621878   5.085   1.699   4.163 -0.3081 -0.1657  0.3468
   42MOL   C47721879   4.984   1.784   4.133  0.4964 -0.0769  0.2980
   42MOL   C47821880   4.899   1.775   4.022  0.3663  0.7498  0.2327
   42MOL   C47921881   5.010   1.465   3.857 -0.2073  0.0303  0.8670
   42MOL   C48021882   4.908   1.504   3.765  0.1968  0.1916 -0.2314
   42MOL   C48121883   4.880   1.421   3.658 -0.3952 -0.9125 -0.1256
   42MOL   C48221884   4.960   1.303   3.638 -0.2491  0.1846 -0.4610
   42MOL   C48321885   5.051   1.260   3.732 -0.4170  0.1703  0.2392
   42MOL   C48421886   5.075   1.339   3.844  0.3543  0.3278 -0.3906
   42MOL   H48521887   4.526   1.722   3.789 -0.0726  0.4914 -1.0918
   42MOL   H48621888   4.599   1.605   3.912 -2.1270 -0.6866 -0.8927
   42MOL   H48721889   4.734   1.794   3.816 -1.1191 -1.7163  2.6586
   42MOL   H48821890   5.166   1.504   4.104 -2.0324 -2.6003 -0.5081
   42MOL   H48921891   5.141   1.700   4.255 -2.3607 -0.3489  1.6169
   42MOL   H49021892   4.947   1.861   4.199 -1.4130  0.1894 -1.0244
   42MOL   H49121893   4.820   1.846   4.003  0.9054  1.4101  0.4374
   42MOL   H49221894   4.803   1.436   3.584 -1.2948 -1.4899  0.6818
   42MOL   H49321895   4.942   1.239   3.554  0.4290 -1.3911  0.5741
   42MOL   H49421896   5.096   1.163   3.716 -2.5549 -1.0649  1.4949
   42MOL   H49521897   5.145   1.303   3.918 -0.8956 -1.0636  0.1258
   42MOL   C49621898   4.749   1.722   3.617 -0.2406 -0.5014 -0.1723
   42MOL   C49721899   4.650   1.828   3.559  0.2716 -0.2192  0.1459
   42MOL   N49821900   4.681   1.960   3.599 -0.2996  0.0931  0.9083
   42MOL   C49921901   4.614   2.041   3.692  0.0216 -0.3299 -0.0898
   42MOL   C50021902   4.690   2.160   3.704  0.5370  0.1967  0.6061
   42MOL   C50121903   4.646   2.258   3.793 -0.2612 -0.2196 -0.0417
   42MOL   C50221904   4.531   2.241   3.870  0.0671  0.4409 -0.2568
   42MOL   C50321905   4.457   2.124   3.862 -0.0658 -0.0362  0.3027
   42MOL   C50421906   4.498   2.022   3.773 -0.0076 -0.3363 -0.3156
   42MOL   C50521907   4.806   2.153   3.617 -0.6071  0.4124 -0.6606
   42MOL   C50621908   4.798   2.022   3.556  0.4391 -0.1846  0.1654
   42MOL   C50721909   4.899   1.981   3.464 -0.9499 -0.0977 -0.1223
   42MOL   C50821910   5.009   2.062   3.440  0.7770 -0.1168  0.2917
   42MOL   C50921911   5.020   2.190   3.498 -0.7491 -0.8059  0.9827
   42MOL   C51021912   4.917   2.237   3.586  0.3555 -0.0951  0.2746
   42MOL   H51121913   4.852   1.758   3.623 -0.2835 -0.2964 -0.6653
   42MOL   H51221914   4.732   1.635   3.554 -0.8161 -1.7214  1.6163
   42MOL   H51321915   4.545   1.817   3.588 -0.0153 -1.0795 -1.1664
   42MOL   H51421916   4.696   2.353   3.795 -2.0929  0.7552  1.0485
   42MOL   H51521917   4.499   2.322   3.934  0.1665  0.3669 -0.1130
   42MOL   H51621918   4.373   2.100   3.925  0.5856 -2.4927  0.2785
   42MOL   H51721919   4.436   1.933   3.763 -0.4419  0.0872 -1.4960
   42MOL   H51821920   4.894   1.884   3.418 -1.5513  0.1983 -0.6915
   42MOL   H51921921   5.083   2.023   3.372 -1.8464 -0.4998 -2.4074
   42MOL   H52021922   5.102   2.256   3.476 -0.6716 -0.6600  1.6879
   42MOL   H52121923   4.937   2.326   3.643 -1.8498  1.2271 -0.9355
   42MOL   H52221924   4.646   1.828   3.450 -3.5052 -0.2251  0.2025
   43MOL     C121925   4.704   6.827   0.598  0.1097  0.3611  0.0698
   43MOL     C221926   4.584   6.917   0.613  0.2583  0.9762 -0.1310
   43MOL     N321927   4.545   6.972   0.480  0.1856  0.6049  0.1432
   43MOL     C421928   4.540   7.107   0.450  0.1295  0.4437 -0.0712
   43MOL     C521929   4.520   7.127   0.310 -0.3061 -0.0890  0.4360
   43MOL     C621930   4.539   7.262   0.259 -1.0082  0.1957  0.7758
   43MOL     C721931   4.567   7.373   0.342  0.1534  1.0623 -0.1556
   43MOL     C821932   4.572   7.354   0.480  0.9984 -0.2736 -0.3780
   43MOL     C921933   4.557   7.226   0.537  1.0215  0.7048 -0.0813
   43MOL    C1021934   4.481   7.001   0.260 -0.0529  0.5804 -0.1616
   43MOL    C1121935   4.498   6.903   0.364  0.1077 -0.2542 -0.2499
   43MOL    C1221936   4.473   6.766   0.337  0.1279  0.4325 -0.0745
   43MOL    C1321937   4.444   6.729   0.204  0.0681 -0.1600 -0.1897
   43MOL    C1421938   4.439   6.818   0.101  0.1569 -0.0962  0.2908
   43MOL    C1521939   4.458   6.952   0.127 -0.3095 -0.3833 -0.1102
   43MOL    H1621940   4.698   6.744   0.528  2.2720  0.5557 -0.3817
   43MOL    H1721941   4.732   6.780   0.692 -0.8960 -1.3012 -0.4515
   43MOL    H1821942   4.611   7.008   0.667 -0.3745 -0.3039  2.4076
   43MOL    H1921943   4.530   7.282   0.154 -0.6116  0.2521  0.7519
   43MOL    H2021944   4.579   7.472   0.301  0.2837  0.5110 -1.4648
   43MOL    H2121945   4.606   7.432   0.547  0.1636  0.6562 -1.0300
   43MOL    H2221946   4.554   7.220   0.645 -0.4329  2.8572  0.0396
   43MOL    H2321947   4.490   6.692   0.413  2.0441  0.6901 -0.2155
   43MOL    H2421948   4.445   6.622   0.191 -0.8170 -0.0810 -0.9104
   43MOL    H2521949   4.425   6.786   8.226 -0.3171 -0.3243  0.4267
   43MOL    H2621950   4.466   7.024   0.047  0.7262 -0.1025  0.2327
   43MOL    H2721951   4.784   6.892   0.563  1.0458 -1.7452 -1.8533
   43MOL    C2821952   4.453   6.860   0.677  0.1738  0.4219 -0.7418
   43MOL    C2921953   4.481   6.791   0.813  0.0268  0.9018  0.7031
   43MOL    N3021954   4.562   6.869   0.903 -0.5560 -0.1178 -0.4627
   43MOL    C3121955   4.670   6.821   0.978 -0.2130  0.6565  0.5424
   43MOL    C3221956   4.722   6.923   1.058 -0.3576 -0.0882  0.2907
   43MOL    C3321957   4.832   6.893   1.146 -0.2297  0.6945  0.7084
   43MOL    C3421958   4.887   6.760   1.154 -0.3980  0.4380 -0.1963
   43MOL    C3521959   4.831   6.660   1.066 -0.4982  0.8344  0.4552
   43MOL    C3621960   4.727   6.695   0.982  0.0732  1.0000  0.4308
   43MOL    C3721961   4.648   7.046   1.033  0.4026 -0.1156 -0.0030
   43MOL    C3821962   4.552   7.008   0.936  0.1661 -1.2065 -0.8221
   43MOL    C3921963   4.463   7.107   0.881 -0.3198 -0.1379  0.1603
   43MOL    C4021964   4.482   7.238   0.916  0.2500  1.0416 -0.6912
   43MOL    C4121965   4.574   7.281   1.009  0.3105 -0.5032 -0.2267
   43MOL    C4221966   4.650   7.185   1.080  0.5250 -0.3334 -0.0181
   43MOL    H4321967   4.368   6.928   0.682  1.1532  1.4563  3.7788
   43MOL    H4421968   4.409   6.785   0.611 -0.9632 -0.2870  0.7870
   43MOL    H4521969   4.542   6.704   0.789 -2.9686 -1.6331  1.9850
   43MOL    H4621970   4.872   6.976   1.202 -1.5166  1.3517  0.6899
   43MOL    H4721971   4.967   6.730   1.219  2.6866  2.1732 -2.9983
   43MOL    H4821972   4.880   6.564   1.061 -0.6108  0.6995  1.6949
   43MOL    H4921973   4.686   6.612   0.926  0.9630  0.0172  1.2075
   43MOL    H5021974   4.378   7.079   0.820 -0.5458  0.2600  0.2915
   43MOL    H5121975   4.428   7.315   0.864 -0.9925  1.2180  0.8317
   43MOL    H5221976   4.571   7.385   1.037  1.8832 -0.6899  0.6818
   43MOL    H5321977   4.719   7.221   1.155  0.7612  1.5963 -1.1276
   43MOL    C5421978   4.355   6.750   0.896 -0.0454 -0.1546 -0.0010
   43MOL    C5521979   4.283   6.621   0.851  0.2062 -0.2423  0.4727
   43MOL    N5621980   4.374   6.511   0.849 -0.5508  0.5636 -0.1027
   43MOL    C5721981   4.421   6.449   0.729  0.0169 -0.6891 -0.2167
   43MOL    C5821982   4.501   6.338   0.766  0.7023 -0.5921  0.9378
   43MOL    C5921983   4.546   6.254   0.661 -0.3610 -0.0596 -0.1732
   43MOL    C6021984   4.526   6.290   0.524 -0.5110  0.5477  0.8032
   43MOL    C6121985   4.445   6.403   0.493 -0.4054 -0.1683  0.3152
   43MOL    C6221986   4.393   6.482   0.591 -0.9474  0.0316 -0.2121
   43MOL    C6321987   4.514   6.339   0.911  0.3500 -0.3025  0.4702
   43MOL    C6421988   4.441   6.450   0.960  0.9195 -0.1023  0.3535
   43MOL    C6521989   4.447   6.482   1.098  0.5386  0.4339  0.6197
   43MOL    C6621990   4.529   6.404   1.182  1.2663 -0.4018  0.2006
   43MOL    C6721991   4.585   6.283   1.140  0.3458 -0.6134 -0.3811
   43MOL    C6821992   4.567   6.249   1.002 -0.3551 -0.0118 -0.2775
   43MOL    H6921993   4.388   6.746   1.000 -0.8483  0.7939  0.2925
   43MOL    H7021994   4.286   6.834   0.894  1.4464  1.1328  1.4845
   43MOL    H7121995   4.243   6.638   0.751  1.0920 -1.0754 -0.0391
   43MOL    H7221996   4.606   6.171   0.693  0.1281  0.5266  0.4228
   43MOL    H7321997   4.559   6.228   0.442  1.3246  0.1805  1.7935
   43MOL    H7421998   4.434   6.436   0.390  0.8609 -0.3315  0.1239
   43MOL    H7521999   4.322   6.558   0.560 -3.0793 -2.5963 -2.0394
   43MOL    H7622000   4.403   6.570   1.144  0.2616 -0.7612  2.7105
   43MOL    H7722001   4.546   6.442   1.282  1.4246  0.9761 -0.3368
   43MOL    H7822002   4.638   6.220   1.209  1.7113  1.6553  0.7280
   43MOL    H7922003   4.617   6.159   0.969  2.8593  0.8879  1.9396
   43MOL    C8022004   4.149   6.571   0.920  0.6972 -0.2853  0.4007
   43MOL    C8122005   4.026   6.669   0.914  0.3397 -1.0509 -0.3970
   43MOL    N8222006   4.022   6.738   0.784 -0.0025  0.3860 -0.5270
   43MOL    C8322007   4.023   6.876   0.761 -0.0267 -0.5680  0.2229
   43MOL    C8422008   3.993   6.901   0.627 -0.1532 -0.9085  0.5370
   43MOL    C8522009   3.984   7.036   0.587  0.1174 -0.1997 -0.0650
   43MOL    C8622010   4.019   7.139   0.679 -0.0682 -0.3504  0.1512
   43MOL    C8722011   4.054   7.112   0.809  0.0856  0.1066  0.3738
   43MOL    C8822012   4.043   6.980   0.856 -0.4459 -0.4630 -0.2032
   43MOL    C8922013   3.975   6.774   0.561  0.7725 -0.5471  0.0495
   43MOL    C9022014   3.991   6.676   0.660  0.4840 -0.1855 -0.1747
   43MOL    C9122015   3.964   6.543   0.633 -0.3111  0.3924  0.3360
   43MOL    C9222016   3.929   6.509   0.501  0.2079 -0.7421 -0.3968
   43MOL    C9322017   3.912   6.608   0.404 -1.0916 -0.3160  0.5965
   43MOL    C9422018   3.934   6.739   0.435 -0.3564 -0.5886  0.0437
   43MOL    H9522019   4.124   6.475   0.875  0.0921  0.4929 -0.9742
   43MOL    H9622020   4.175   6.533   1.019  0.1024  0.5628  0.8837
   43MOL    H9722021   4.040   6.749   0.986 -1.7654 -0.3277 -0.7412
   43MOL    H9822022   3.961   7.067   0.486  0.2656 -0.6151 -0.2262
   43MOL    H9922023   4.017   7.241   0.644  0.9980 -1.3963 -3.1484
   43MOL   H10022024   4.089   7.193   0.872  0.8199 -0.2988  0.4870
   43MOL   H10122025   4.060   6.956   0.960  0.8218  2.5468  0.3206
   43MOL   H10222026   3.966   6.472   0.714 -1.2861 -0.8682 -0.7361
   43MOL   H10322027   3.890   6.413   0.472 -2.9608  0.2354  0.4696
   43MOL   H10422028   3.863   6.581   0.311 -1.7475 -0.0016  0.8422
   43MOL   H10522029   3.923   6.822   0.367 -2.2171 -0.6866  0.1841
   43MOL   C10622030   3.888   6.609   0.950 -0.2995  0.0444  0.3328
   43MOL   C10722031   3.757   6.692   0.921 -0.8805  0.5894 -0.9300
   43MOL   N10822032   3.637   6.612   0.949  0.4562  0.5545  0.1979
   43MOL   C10922033   3.546   6.567   0.852  0.0384  0.3253 -0.4465
   43MOL   C11022034   3.439   6.494   0.919  0.2898 -0.0705  0.4356
   43MOL   C11122035   3.327   6.445   0.842 -0.0617 -0.1042 -0.8388
   43MOL   C11222036   3.328   6.457   0.699 -0.8734 -0.2378  0.6756
   43MOL   C11322037   3.432   6.525   0.636  0.2890 -0.1952  0.8589
   43MOL   C11422038   3.536   6.581   0.710 -0.0375 -0.1799  0.0591
   43MOL   C11522039   3.472   6.491   1.059 -0.0036 -0.7331 -0.4704
   43MOL   C11622040   3.595   6.564   1.073 -0.5039  0.2363  0.2488
   43MOL   C11722041   3.658   6.581   1.200  0.3410  0.8001  0.3395
   43MOL   C11822042   3.594   6.524   1.310  0.1385 -0.0426  0.5122
   43MOL   C11922043   3.473   6.457   1.300  0.2508 -0.3575 -0.1383
   43MOL   C12022044   3.411   6.439   1.169  0.1939 -0.3095  0.1767
   43MOL   H12122045   3.881   6.506   0.915 -1.6321  1.1296 -2.7646
   43MOL   H12222046   3.902   6.587   1.056 -0.4589 -0.0441  0.3369
   43MOL   H12322047   3.753   6.701   0.812  0.9510 -1.7099 -1.2399
   43MOL   H12422048   3.242   6.402   0.893  1.1058 -1.0107  0.3751
   43MOL   H12522049   3.249   6.411   0.641 -0.9520  0.6303  0.0883
   43MOL   H12622050   3.429   6.529   0.528 -0.8849  0.4965  0.9059
   43MOL   H12722051   3.613   6.626   0.649 -0.0048 -0.2977  0.0139
   43MOL   H12822052   3.755   6.624   1.218  1.7678 -2.1446 -0.0686
   43MOL   H12922053   3.645   6.529   1.405  0.2538 -1.2879  0.5186
   43MOL   H13022054   3.440   6.414   1.393  1.5075  0.7468  0.8447
   43MOL   H13122055   3.320   6.381   1.173 -1.4434  2.1362 -0.8589
   43MOL   C13222056   3.749   6.829   0.991 -0.1679  0.2200 -0.3751
   43MOL   C13322057   3.625   6.913   0.937  0.7489 -0.2744  0.7719
   43MOL   N13422058   3.531   6.941   1.046  0.2861  0.4087  0.9630
   43MOL   C13522059   3.410   6.878   1.069 -0.4059 -0.8141  1.0482
   43MOL   C13622060   3.351   6.937   1.183 -0.3491  0.1849  0.0811
   43MOL   C13722061   3.223   6.890   1.227  0.1319 -0.5572  0.0012
   43MOL   C13822062   3.145   6.808   1.138 -0.3582  0.3844 -0.2610
   43MOL   C13922063   3.199   6.758   1.018  0.0360  0.3042 -0.8387
   43MOL   C14022064   3.331   6.792   0.988 -0.0708 -0.3659  0.2688
   43MOL   C14122065   3.452   7.018   1.243  0.2112 -0.2456  0.5161
   43MOL   C14222066   3.565   7.017   1.153  0.1918 -0.2926 -0.7854
   43MOL   C14322067   3.684   7.084   1.191  1.1370  0.0395 -0.0964
   43MOL   C14422068   3.693   7.142   1.320  0.0699 -0.4072  0.1223
   43MOL   C14522069   3.579   7.150   1.404  0.2001  0.1949  0.0269
   43MOL   C14622070   3.457   7.091   1.364  0.3596  0.5189 -0.3758
   43MOL   H14722071   3.746   6.809   1.098  0.9462 -0.3736 -0.4423
   43MOL   H14822072   3.841   6.881   0.967 -0.1621  0.8144  0.9063
   43MOL   H14922073   3.571   6.866   0.855  2.6583 -1.4524  0.1688
   43MOL   H15022074   3.186   6.921   1.323 -1.2841  2.0344 -1.3377
   43MOL   H15122075   3.047   6.777   1.172  1.0403 -2.9801  0.9264
   43MOL   H15222076   3.143   6.699   0.946  0.4769 -1.1497 -0.0209
   43MOL   H15322077   3.378   6.753   0.899  0.7566 -1.6657  1.2411
   43MOL   H15422078   3.778   7.086   1.137  0.4395  0.3507 -1.3228
   43MOL   H15522079   3.790   7.175   1.355  0.8755 -1.8355 -0.7349
   43MOL   H15622080   3.584   7.187   1.505  3.0444 -0.9700  0.3549
   43MOL   H15722081   3.376   7.102   1.434 -1.0349  0.4916 -1.9428
   43MOL   C15822082   3.665   7.045   0.865  0.2178 -0.0584  0.5663
   43MOL   C15922083   3.552   7.130   0.813 -0.2542 -0.0762  0.0087
   43MOL   N16022084   3.599   7.261   0.773  0.2118  0.2723 -0.1875
   43MOL   C16122085   3.602   7.372   0.858 -0.6634  0.3589 -0.3086
   43MOL   C16222086   3.677   7.481   0.799  0.2007 -0.4623 -0.5043
   43MOL   C16322087   3.688   7.601   0.871 -0.1807 -0.1331 -0.1721
   43MOL   C16422088   3.628   7.621   0.997 -0.5754  0.0080  0.1187
   43MOL   C16522089   3.556   7.509   1.051 -0.4689  0.2889  0.0937
   43MOL   C16622090   3.542   7.391   0.983 -0.6990  0.5011  0.0027
   43MOL   C16722091   3.724   7.432   0.672  0.2041 -0.1036 -0.0759
   43MOL   C16822092   3.683   7.293   0.659 -0.0869 -0.0140  0.8159
   43MOL   C16922093   3.720   7.225   0.544 -0.2292  0.5533  0.2669
   43MOL   C17022094   3.795   7.284   0.450 -0.3771  0.2424  0.3362
   43MOL   C17122095   3.836   7.417   0.452  0.0159  0.0036 -0.0401
   43MOL   C17222096   3.792   7.493   0.555  0.2144 -0.1910  0.1928
   43MOL   H17322097   3.732   7.102   0.930 -0.7040  1.6373  0.0662
   43MOL   H17422098   3.728   7.006   0.785  0.0153  2.2661 -0.7575
   43MOL   H17522099   3.491   7.144   0.902  0.6340 -0.6139  0.7137
   43MOL   H17622100   3.744   7.680   0.824 -1.1347 -0.1694 -1.3993
   43MOL   H17722101   3.625   7.716   1.048 -1.6377 -0.1149  0.3011
   43MOL   H17822102   3.520   7.515   1.153 -0.2357 -0.8693  0.2457
   43MOL   H17922103   3.498   7.309   1.038 -1.6214 -0.8415 -2.6553
   43MOL   H18022104   3.697   7.120   0.531 -1.9978  0.7994  1.1952
   43MOL   H18122105   3.828   7.228   0.364  1.7559  1.5663  0.2389
   43MOL   H18222106   3.886   7.464   0.369  0.3078  0.9325  0.6634
   43MOL   H18322107   3.804   7.600   0.556 -0.0395 -0.1608  1.4868
   43MOL   C18422108   3.468   7.058   0.705 -0.5714 -0.5996 -0.2239
   43MOL   C18522109   3.344   7.133   0.651  0.4758  0.6764 -0.5019
   43MOL   N18622110   3.296   7.074   0.531 -0.6730 -0.3027 -0.2480
   43MOL   C18722111   3.324   7.119   0.405 -0.3826  0.4509  0.3671
   43MOL   C18822112   3.263   7.041   0.304  0.6269 -0.1593 -0.1005
   43MOL   C18922113   3.299   7.067   0.169 -0.3914  0.0856 -0.4792
   43MOL   C19022114   3.386   7.173   0.132  0.1701  0.6043  0.4946
   43MOL   C19122115   3.429   7.256   0.233 -0.5360 -0.4229  0.0303
   43MOL   C19222116   3.399   7.231   0.364 -0.9504  0.4201 -0.1675
   43MOL   C19322117   3.196   6.935   0.377 -0.9253 -1.0636 -0.2089
   43MOL   C19422118   3.231   6.953   0.514  0.3875  0.3197 -0.1150
   43MOL   C19522119   3.195   6.846   0.605  0.7487 -0.0612 -0.0027
   43MOL   C19622120   3.130   6.729   0.559 -0.0296  0.2788 -0.2401
   43MOL   C19722121   3.099   6.722   0.422 -0.8049  0.3067  0.0767
   43MOL   C19822122   3.129   6.822   0.329 -1.0400  0.7055  0.3756
   43MOL   H19922123   3.527   7.037   0.616  1.1803  0.3548  0.6916
   43MOL   H20022124   3.436   6.960   0.741 -1.4486 -0.8781 -1.6883
   43MOL   H20122125   3.389   7.227   0.619  0.8218  0.3658 -0.9382
   43MOL   H20222126   3.253   7.003   0.094  1.4085  0.8665 -2.3123
   43MOL   H20322127   3.402   7.210   0.032  2.7336 -0.1155  0.6182
   43MOL   H20422128   3.502   7.331   0.210 -1.1048  0.6294  1.5558
   43MOL   H20522129   3.451   7.296   0.433  1.9735 -3.0040  1.0137
   43MOL   H20622130   3.223   6.849   0.709  0.2703  2.1338  0.0916
   43MOL   H20722131   3.103   6.642   0.617 -1.8641  0.9117 -0.1030
   43MOL   H20822132   3.047   6.633   0.389 -1.5668  0.5079  0.7005
   43MOL   H20922133   3.109   6.810   0.224  1.2481 -0.1268 -0.0000
   43MOL   C21022134   3.226   7.134   0.755  0.3604 -0.0065 -0.6738
   43MOL   C21122135   3.223   7.271   0.821 -0.6112  1.0343  0.3942
   43MOL   N21222136   3.144   7.353   0.735  0.0750 -0.0414  0.3408
   43MOL   C21322137   3.203   7.465   0.663  0.2549  0.5026  0.5016
   43MOL   C21422138   3.098   7.531   0.584  0.0683  0.7006  0.0595
   43MOL   C21522139   3.129   7.649   0.509 -0.4459 -0.3080  0.0846
   43MOL   C21622140   3.261   7.694   0.487 -0.2075  0.1485  0.0108
   43MOL   C21722141   3.361   7.617   0.555 -0.3309  0.0904  0.1114
   43MOL   C21822142   3.337   7.508   0.638  0.4488  1.0339 -0.5245
   43MOL   C21922143   2.980   7.455   0.609  0.3302 -0.2014  0.5419
   43MOL   C22022144   3.009   7.358   0.710 -0.1271  0.0878  0.2917
   43MOL   C22122145   2.912   7.270   0.763  0.0901  0.0462  0.0570
   43MOL   C22222146   2.780   7.281   0.721  0.1640  0.1525  0.5654
   43MOL   C22322147   2.752   7.372   0.617  0.4766 -0.2342  0.9862
   43MOL   C22422148   2.848   7.458   0.556 -0.2331 -0.5547  0.2568
   43MOL   H22522149   3.134   7.100   0.708  0.1821  3.2763 -2.8606
   43MOL   H22622150   3.245   7.057   0.830 -0.0887  0.5087 -0.0376
   43MOL   H22722151   3.324   7.313   0.818  0.7599 -2.1640 -0.9769
   43MOL   H22822152   3.043   7.692   0.459 -0.0574  0.4536  0.0554
   43MOL   H22922153   3.285   7.782   0.429 -1.6489 -0.4290 -1.5159
   43MOL   H23022154   3.464   7.645   0.537  0.4708 -2.6217  0.3152
   43MOL   H23122155   3.428   7.465   0.676 -0.4293  0.9032  1.4867
   43MOL   H23222156   2.936   7.201   0.843  3.0062  2.5083  1.4671
   43MOL   H23322157   2.708   7.213   0.764 -1.1677  2.4499  2.0471
   43MOL   H23422158   2.656   7.363   0.570  1.6362 -0.7529 -1.3620
   43MOL   H23522159   2.819   7.523   0.475  1.9795 -0.0647 -0.1811
   43MOL   C23622160   3.166   7.264   0.973  0.2219 -0.0878  0.2604
   43MOL   C23722161   3.114   7.402   1.028 -0.4300 -0.3333 -0.8621
   43MOL   N23822162   3.051   7.390   1.158 -0.4838 -0.2849  0.1979
   43MOL   C23922163   2.914   7.379   1.177  0.0572 -0.3674 -0.1083
   43MOL   C24022164   2.889   7.381   1.321  0.6309 -0.0519 -0.2376
   43MOL   C24122165   2.760   7.367   1.367  0.0774 -0.6759 -0.1480
   43MOL   C24222166   2.656   7.346   1.279  0.8730  0.0339  0.6303
   43MOL   C24322167   2.673   7.355   1.140 -0.4958 -0.5683 -0.0665
   43MOL   C24422168   2.803   7.381   1.092 -0.0917 -0.6212 -0.0654
   43MOL   C24522169   3.015   7.391   1.386  0.3504 -0.4932  0.0030
   43MOL   C24622170   3.110   7.375   1.284  0.7879 -0.0851  0.5447
   43MOL   C24722171   3.248   7.367   1.319 -0.7562  0.6155  0.3386
   43MOL   C24822172   3.292   7.375   1.453 -0.2077 -0.8627  0.4787
   43MOL   C24922173   3.199   7.407   1.551  0.2648 -0.1492  0.4235
   43MOL   C25022174   3.059   7.404   1.524 -0.0290  0.4039 -0.1076
   43MOL   H25122175   3.082   7.195   0.976 -1.2949  1.7405  1.1969
   43MOL   H25222176   3.238   7.227   1.046  0.1348 -1.8647 -0.5291
   43MOL   H25322177   3.026   7.412   0.965 -0.7381 -3.7781 -1.0444
   43MOL   H25422178   2.742   7.359   1.474 -0.1880  0.8160 -0.0756
   43MOL   H25522179   2.554   7.348   1.315 -1.6722 -2.8633 -5.6992
   43MOL   H25622180   2.593   7.358   1.068 -2.1670 -1.2128  1.7059
   43MOL   H25722181   2.813   7.381   0.984 -0.5652  0.4460 -0.1257
   43MOL   H25822182   3.325   7.372   1.243 -0.7122  1.4846  0.4334
   43MOL   H25922183   3.398   7.382   1.473 -0.0256  0.4569 -0.8502
   43MOL   H26022184   3.230   7.434   1.651  1.4553 -0.7604  0.2158
   43MOL   H26122185   2.986   7.417   1.602 -1.4265 -1.8750 -0.9652
   43MOL   C26222186   3.216   7.516   1.022  0.5334 -0.4923  0.4189
   43MOL   C26322187   3.159   7.658   0.989 -0.6576 -0.5207 -0.4337
   43MOL   N26422188   3.046   7.705   1.068  0.2770  0.8513 -0.2681
   43MOL   C26522189   2.917   7.732   1.016  0.4975  0.4724  0.5283
   43MOL   C26622190   2.834   7.786   1.125 -0.1846  0.9250  0.0876
   43MOL   C26722191   2.703   7.834   1.094 -0.1357  0.7636 -0.0344
   43MOL   C26822192   2.648   7.832   0.964 -0.6879  0.0013 -0.0208
   43MOL   C26922193   2.726   7.777   0.861  0.8291 -0.1977  0.2948
   43MOL   C27022194   2.863   7.733   0.881 -0.6329  0.0624 -0.2822
   43MOL   C27122195   2.913   7.775   1.240  0.1972 -0.3027 -0.3064
   43MOL   C27222196   3.038   7.728   1.204 -0.7043  0.9979 -0.5943
   43MOL   C27322197   3.141   7.719   1.296 -0.1819  0.9055 -0.3627
   43MOL   C27422198   3.130   7.773   1.426  0.4379  0.3171 -0.6419
   43MOL   C27522199   3.001   7.826   1.463  0.2984  0.8615  0.2193
   43MOL   C27622200   2.896   7.822   1.372 -0.4791  0.6543  0.6179
   43MOL   H27722201   3.289   7.526   1.102  0.4760 -2.7809  0.8094
   43MOL   H27822202   3.291   7.490   0.947 -0.8323  1.2810 -1.6047
   43MOL   H27922203   3.126   7.636   0.888 -2.7450 -0.6247  0.2456
   43MOL   H28022204   2.642   7.883   1.169  0.4591 -0.6349  1.3870
   43MOL   H28122205   2.552   7.879   0.952 -0.4686  0.9679  1.8329
   43MOL   H28222206   2.695   7.777   0.757 -1.4136  0.1423  0.9420
   43MOL   H28322207   2.929   7.707   0.800  0.1437 -2.1606  1.0386
   43MOL   H28422208   3.237   7.676   1.269  0.5044  1.5740  0.9625
   43MOL   H28522209   3.208   7.758   1.498  1.3349 -2.3044 -2.1158
   43MOL   H28622210   2.983   7.871   1.560 -1.1318  0.2565  0.2348
   43MOL   H28722211   2.802   7.869   1.398  0.2086  2.7655 -0.5853
   43MOL   C28822212   3.274   7.758   0.964 -0.6041  0.6590  0.7317
   43MOL   C28922213   3.233   7.906   0.945 -0.2236  1.0653 -0.2252
   43MOL   N29022214   3.334   8.007   0.989  0.6647  0.3176  0.3515
   43MOL   C29122215   3.328   8.091   1.105 -0.0301 -0.0103 -0.4299
   43MOL   C29222216   3.453   8.168   1.109 -0.2722  0.1724 -0.2722
   43MOL   C29322217   3.475   0.025   1.216  0.4548 -0.1045 -0.0626
   43MOL   C29422218   3.374   0.052   1.310 -0.4859 -0.1402 -0.1452
   43MOL   C29522219   3.253   8.205   1.307  0.5804  1.0472 -0.3627
   43MOL   C29622220   3.230   8.106   1.207 -0.0244  0.0774 -0.2961
   43MOL   C29722221   3.534   8.127   1.000 -0.0192 -0.2473 -0.0641
   43MOL   C29822222   3.460   8.031   0.927  0.2322  0.0794 -1.2697
   43MOL   C29922223   3.516   7.966   0.809  0.2711 -0.2125 -0.0198
   43MOL   C30022224   3.636   8.015   0.768 -0.2406 -0.0033 -0.4418
   43MOL   C30122225   3.712   8.111   0.835 -0.8951 -0.3606 -0.0613
   43MOL   C30222226   3.663   8.163   0.953  0.3252  0.6887 -0.9869
   43MOL   H30322227   3.338   7.770   1.052  1.1001  1.3944 -0.5712
   43MOL   H30422228   3.336   7.726   0.880 -0.8507  0.4656  0.6231
   43MOL   H30522229   3.147   7.912   1.012  1.6149 -0.4706  2.4017
   43MOL   H30622230   3.571   0.074   1.224  1.0485 -1.0472 -1.1739
   43MOL   H30722231   3.406   0.118   1.389  0.9765  1.1710 -1.7882
   43MOL   H30822232   3.179   8.223   1.382  0.6034 -0.3610  0.0138
   43MOL   H30922233   3.136   8.053   1.201 -0.6936  1.3041 -0.9170
   43MOL   H31022234   3.463   7.899   0.742  1.5242  0.3361 -1.5794
   43MOL   H31122235   3.663   7.972   0.672 -0.7453 -1.3301 -0.0082
   43MOL   H31222236   3.809   8.148   0.804 -0.9749 -0.5740 -0.5684
   43MOL   H31322237   3.713   0.017   1.003 -0.1214  1.2026 -1.3618
   43MOL   C31422238   3.167   7.924   0.812 -0.4557 -0.1366  0.8648
   43MOL   C31522239   3.163   8.073   0.763  0.3546  0.3777  0.0315
   43MOL   N31622240   3.107   8.065   0.627  0.0032 -0.3301  0.2117
   43MOL   C31722241   3.175   8.072   0.503  0.3271  0.3719  0.5359
   43MOL   C31822242   3.076   8.065   0.396 -0.7164 -0.4743  0.6925
   43MOL   C31922243   3.123   8.061   0.260 -0.0727 -0.2646 -0.6712
   43MOL   C32022244   3.261   8.068   0.237  0.0329  0.1521 -0.4027
   43MOL   C32122245   3.351   8.086   0.341  0.1567 -0.1333 -0.0463
   43MOL   C32222246   3.308   8.086   0.473 -0.2949 -0.3687  0.5413
   43MOL   C32322247   2.945   8.066   0.454  0.5673 -0.2471  1.0327
   43MOL   C32422248   2.966   8.057   0.591  0.1788  0.2054 -0.1279
   43MOL   C32522249   2.848   8.039   0.667  0.0576 -0.2890  0.0109
   43MOL   C32622250   2.717   8.040   0.608  0.5550  0.1643 -0.0711
   43MOL   C32722251   2.701   8.045   0.470  0.5687  0.9090  0.0873
   43MOL   C32822252   2.818   8.061   0.390 -0.0491 -0.3835 -0.3775
   43MOL   H32922253   3.213   7.856   0.740 -1.0477  0.0412  0.3138
   43MOL   H33022254   3.067   7.882   0.822 -0.7355  0.6256  1.3099
   43MOL   H33122255   3.265   8.102   0.739  0.5268 -0.0484  0.2394
   43MOL   H33222256   3.051   8.051   0.181 -0.3868 -1.6769 -0.2249
   43MOL   H33322257   3.291   8.074   0.133 -0.1009  3.3446 -0.2992
   43MOL   H33422258   3.453   8.115   0.326 -0.6911  3.1345  0.1779
   43MOL   H33522259   3.383   8.092   0.550 -2.0697 -2.8292  2.5490
   43MOL   H33622260   2.864   8.036   0.774  1.1460  0.3955 -0.1236
   43MOL   H33722261   2.632   8.015   0.670 -0.0567  1.8385 -0.2185
   43MOL   H33822262   2.606   8.036   0.419 -0.2649 -0.6255  1.8811
   43MOL   H33922263   2.817   8.063   0.282  0.8774  1.0281 -0.3726
   43MOL   C34022264   3.100   8.178   0.848  0.3846 -0.5234 -0.6196
   43MOL   C34122265   3.175   0.089   0.847 -0.1092  0.2192  0.0098
   43MOL   N34222266   3.189   0.146   0.708 -0.3664  0.4679 -0.3010
   43MOL   C34322267   3.309   0.159   0.638  0.5411 -0.7308  1.4618
   43MOL   C34422268   3.275   0.235   0.518  0.2610 -0.0144 -0.3106
   43MOL   C34522269   3.384   0.271   0.433 -0.1929  0.8973  0.0995
   43MOL   C34622270   3.515   0.233   0.454  0.0549 -0.0490  0.0505
   43MOL   C34722271   3.545   0.152   0.568  0.1475  0.3020  0.0487
   43MOL   C34822272   3.443   0.119   0.660  1.0151  1.0421 -0.4939
   43MOL   C34922273   3.139   0.275   0.519  0.4155  0.1655  0.5675
   43MOL   C35022274   3.088   0.214   0.637  0.4393  0.0242 -0.1173
   43MOL   C35122275   2.948   0.220   0.660  0.4431 -0.3794 -0.3624
   43MOL   C35222276   2.872   0.304   0.574 -0.1392  0.3947  0.7092
   43MOL   C35322277   2.926   0.373   0.473  0.2735 -0.2394  0.1614
   43MOL   C35422278   3.057   0.356   0.438 -0.0947 -0.0051  0.0466
   43MOL   H35522279   2.996   8.200   0.826  0.6492 -0.6026 -2.0084
   43MOL   H35622280   3.085   8.139   0.949  0.5153 -0.7592 -0.6904
   43MOL   H35722281   3.274   0.064   0.883  0.0393  1.5951  0.6246
   43MOL   H35822282   3.366   0.326   0.343  1.4720 -0.5521 -1.1588
   43MOL   H35922283   3.589   0.229   0.375 -0.7099 -2.7853 -0.5723
   43MOL   H36022284   3.642   0.113   0.594 -0.6209 -1.4798  0.3777
   43MOL   H36122285   3.470   0.062   0.748 -0.7424  1.7781  0.5498
   43MOL   H36222286   2.900   0.171   0.744 -2.2663 -0.1701 -1.7410
   43MOL   H36322287   2.766   0.309   0.592 -0.4281  0.3907 -0.9729
   43MOL   H36422288   2.851   0.435   0.426  1.5145 -0.9309 -2.8129
   43MOL   H36522289   3.100   0.408   0.354 -1.6776  2.2776  0.6055
   43MOL   C36622290   3.109   0.180   0.953  0.5778  0.0269 -0.3777
   43MOL   C36722291   3.171   0.320   0.956  0.4932 -0.3143 -0.4021
   43MOL   N36822292   3.092   0.417   1.033 -0.3236 -0.3223 -0.0530
   43MOL   C36922293   3.035   0.533   0.986  0.0673 -0.0672  0.1043
   43MOL   C37022294   2.994   0.609   1.101  0.6589  0.4416 -0.0564
   43MOL   C37122295   2.947   0.737   1.075  0.3912 -0.3302 -0.0872
   43MOL   C37222296   2.937   0.783   0.944 -0.4268  0.0292  0.3351
   43MOL   C37322297   2.982   0.713   0.832 -0.0169 -0.1420  0.7158
   43MOL   C37422298   3.023   0.580   0.852  1.1635 -0.8653 -0.0304
   43MOL   C37522299   3.023   0.536   1.221  1.2194  0.4212  0.1161
   43MOL   C37622300   3.082   0.415   1.177  0.3603  0.1244  0.5709
   43MOL   C37722301   3.129   0.323   1.275 -0.1241 -0.4074 -0.3063
   43MOL   C37822302   3.103   0.344   1.410 -0.5194  0.2043  0.8221
   43MOL   C37922303   3.034   0.463   1.448 -0.7179  0.0328 -0.3222
   43MOL   C38022304   3.000   0.559   1.354 -0.1848 -0.0611  0.2987
   43MOL   H38122305   3.003   0.178   0.929  0.0978 -0.0997  1.7410
   43MOL   H38222306   3.120   0.129   1.048 -2.7689  0.3912  0.2518
   43MOL   H38322307   3.171   0.359   0.855 -2.3261  0.0275 -0.3188
   43MOL   H38422308   2.910   0.796   1.157 -1.0171  1.3079 -1.8586
   43MOL   H38522309   2.883   0.875   0.930 -1.3965 -0.7737 -1.3790
   43MOL   H38622310   2.961   0.767   0.741  0.2769  1.0285  1.3287
   43MOL   H38722311   3.046   0.513   0.770  2.2016 -0.0159 -0.4421
   43MOL   H38822312   3.173   0.231   1.239  0.3003 -0.8145  1.2380
   43MOL   H38922313   3.149   0.279   1.483  0.7415 -0.1415 -0.2727
   43MOL   H39022314   3.020   0.485   1.553  0.9238 -0.7088  0.0659
   43MOL   H39122315   2.937   0.640   1.387 -2.3117 -2.2548  1.8393
   43MOL   C39222316   3.322   0.323   0.996 -0.0420  0.8316  0.6359
   43MOL   C39322317   3.381   0.465   0.977  0.4036  0.5416 -0.7939
   43MOL   N39422318   3.503   0.481   1.053 -0.4838  0.3889 -0.1518
   43MOL   C39522319   3.506   0.546   1.173  0.1797 -0.7239 -0.4773
   43MOL   C39622320   3.637   0.541   1.226  0.0818 -0.0839  0.4535
   43MOL   C39722321   3.666   0.602   1.351 -0.0865  0.4181 -0.2680
   43MOL   C39822322   3.568   0.678   1.418  0.0953 -0.0197 -0.2304
   43MOL   C39922323   3.443   0.687   1.370  0.7014  0.2798 -0.3961
   43MOL   C40022324   3.412   0.620   1.252 -0.6010 -0.0696  0.6091
   43MOL   C40122325   3.714   0.458   1.138 -0.2242  0.0621  0.0922
   43MOL   C40222326   3.624   0.412   1.043  1.1080 -0.5465  0.1109
   43MOL   C40322327   3.670   0.314   0.949  0.2905  0.2114  0.1855
   43MOL   C40422328   3.809   0.270   0.951  0.5829 -0.0251 -0.3350
   43MOL   C40522329   3.891   0.323   1.050  0.9329 -0.3715 -0.2925
   43MOL   C40622330   3.846   0.416   1.140  0.5395 -0.3881 -0.3032
   43MOL   H40722331   3.351   0.292   1.097 -0.1682 -0.1450  0.3735
   43MOL   H40822332   3.378   0.262   0.925  0.3655  2.2987 -0.3193
   43MOL   H40922333   3.312   0.542   1.010  0.8491  1.5180 -2.0936
   43MOL   H41022334   3.769   0.608   1.382 -0.4499 -0.3455  1.1290
   43MOL   H41122335   3.590   0.724   1.513  0.0793 -0.7372  0.1214
   43MOL   H41222336   3.361   0.733   1.422 -0.4824 -0.9555 -1.1152
   43MOL   H41322337   3.307   0.628   1.227 -1.0393 -1.0429  2.0955
   43MOL   H41422338   3.604   0.276   0.873 -0.4459  1.3650  0.2401
   43MOL   H41522339   3.851   0.196   0.885  0.2979 -1.5921  1.1911
   43MOL   H41622340   3.992   0.292   1.069  0.4467 -0.7584  1.9132
   43MOL   H41722341   3.913   0.443   1.221  1.5086 -0.8210 -0.9549
   43MOL   C41822342   3.400   0.493   0.829  0.8557 -0.3485 -0.0141
   43MOL   C41922343   3.481   0.613   0.791 -0.3863 -0.5799 -0.0295
   43MOL   N42022344   3.489   0.612   0.645  0.0249 -0.2677 -1.0334
   43MOL   C42122345   3.601   0.564   0.575 -0.0628 -0.4782  0.3386
   43MOL   C42222346   3.585   0.587   0.435 -0.3170  0.0718 -0.0553
   43MOL   C42322347   3.704   0.572   0.354 -0.3344  0.3887 -0.2561
   43MOL   C42422348   3.829   0.523   0.416  0.2659 -0.2161 -0.3578
   43MOL   C42522349   3.838   0.488   0.554 -0.1625  0.1421  0.1386
   43MOL   C42622350   3.721   0.499   0.627 -0.3029 -0.2555  0.0837
   43MOL   C42722351   3.453   0.635   0.416  0.1377 -0.7745  0.6649
   43MOL   C42822352   3.396   0.647   0.544  0.1331 -0.1388 -0.2125
   43MOL   C42922353   3.260   0.674   0.564  0.0200 -0.4345  0.3004
   43MOL   C43022354   3.176   0.698   0.451 -0.1449  0.8015  0.5119
   43MOL   C43122355   3.236   0.700   0.321 -0.2468 -0.1164 -0.1603
   43MOL   C43222356   3.373   0.669   0.303  0.5623  0.1916  0.4225
   43MOL   H43322357   3.441   0.412   0.769 -0.4266 -1.2603  0.3214
   43MOL   H43422358   3.298   0.509   0.795  0.7372 -0.6090  0.2110
   43MOL   H43522359   3.583   0.601   0.827 -0.3927 -0.8391 -0.0973
   43MOL   H43622360   3.689   0.613   0.255 -1.0929  1.4109  0.2626
   43MOL   H43722361   3.919   0.527   0.357  1.1116 -4.4167  0.5003
   43MOL   H43822362   3.931   0.446   0.591  0.6995  0.9423 -1.0714
   43MOL   H43922363   3.714   0.475   0.732 -0.3155 -0.2563  0.0826
   43MOL   H44022364   3.220   0.677   0.665  0.2906  0.7526  0.3815
   43MOL   H44122365   3.069   0.713   0.461 -0.2341 -0.5751  1.8005
   43MOL   H44222366   3.173   0.713   0.235  0.3644  0.1239 -0.5753
   43MOL   H44322367   3.418   0.678   0.204 -0.0912  1.3687  0.2196
   43MOL   C44422368   3.430   0.746   0.852  0.4902 -0.2047 -0.4498
   43MOL   C44522369   3.476   0.874   0.780  0.1354 -0.0136  0.3166
   43MOL   N44622370   3.393   0.980   0.817  0.2582 -0.6422  0.4496
   43MOL   C44722371   3.303   1.045   0.726 -0.1149 -0.1207 -0.3417
   43MOL   C44822372   3.237   1.150   0.797  0.1971  0.3547 -0.1818
   43MOL   C44922373   3.158   1.245   0.725  1.0334  0.9304  0.6223
   43MOL   C45022374   3.136   1.227   0.588 -0.6792  0.0307 -1.1278
   43MOL   C45122375   3.194   1.120   0.520 -0.2638 -0.7392  0.1004
   43MOL   C45222376   3.286   1.032   0.586 -0.2430 -0.2274  0.2852
   43MOL   C45322377   3.263   1.127   0.937 -0.0076 -0.7637 -0.3243
   43MOL   C45422378   3.369   1.034   0.942  0.0734 -0.0142  0.3502
   43MOL   C45522379   3.436   1.006   1.063  0.7342  0.1852 -0.5599
   43MOL   C45622380   3.376   1.045   1.187  0.0568 -0.3037  0.2989
   43MOL   C45722381   3.266   1.131   1.183  0.5974 -0.3871  0.7373
   43MOL   C45822382   3.214   1.174   1.059 -0.0995 -0.0838  0.1696
   43MOL   H45922383   3.322   0.757   0.845  0.3412 -1.3948 -0.2513
   43MOL   H46022384   3.464   0.743   0.956  1.4501  1.0187 -0.7137
   43MOL   H46122385   3.459   0.859   0.674  0.2650 -2.6698  0.6404
   43MOL   H46222386   3.106   1.325   0.775 -0.8440  0.5421 -0.6625
   43MOL   H46322387   3.086   1.300   0.525  0.6303  0.8050 -1.2799
   43MOL   H46422388   3.173   1.096   0.417 -1.0741  0.6057 -0.0570
   43MOL   H46522389   3.332   0.952   0.531 -0.4807 -0.5129  0.5035
   43MOL   H46622390   3.519   0.938   1.068  0.1506 -0.4566  0.8195
   43MOL   H46722391   3.413   0.994   1.274 -1.3146  0.1037  1.1399
   43MOL   H46822392   3.214   1.173   1.268 -0.3752  0.9521 -0.4964
   43MOL   H46922393   3.133   1.246   1.060 -0.9431 -0.9866 -1.4770
   43MOL   C47022394   3.631   0.911   0.790 -0.0086  0.2785  0.1813
   43MOL   C47122395   3.680   1.007   0.679 -0.1854  0.3916  0.3939
   43MOL   N47222396   3.639   1.144   0.701 -0.1382  0.3154  0.0177
   43MOL   C47322397   3.587   1.229   0.603  0.3901  0.6307  0.7315
   43MOL   C47422398   3.563   1.360   0.653  0.3506  0.1226 -0.7617
   43MOL   C47522399   3.503   1.457   0.577  0.4438 -0.1502  0.6459
   43MOL   C47622400   3.462   1.432   0.439  0.3975 -0.6432 -0.5369
   43MOL   C47722401   3.481   1.300   0.394  0.3182  0.5350  0.5966
   43MOL   C47822402   3.546   1.203   0.469 -0.1079  0.2393 -0.7207
   43MOL   C47922403   3.596   1.349   0.789 -0.0784  0.4587  0.2766
   43MOL   C48022404   3.661   1.221   0.812  0.3376 -0.1845 -0.5306
   43MOL   C48122405   3.733   1.201   0.933 -0.2966 -0.3819 -0.1602
   43MOL   C48222406   3.722   1.289   1.043 -0.9989 -0.5307 -0.3269
   43MOL   C48322407   3.650   1.408   1.024  0.5226 -0.8302 -0.4047
   43MOL   C48422408   3.595   1.439   0.895  1.2622  0.1459 -1.5375
   43MOL   H48522409   3.650   0.946   0.891  0.6322 -2.2514  0.9597
   43MOL   H48622410   3.679   0.814   0.780 -0.4418  0.0012  0.7660
   43MOL   H48722411   3.633   0.977   0.585  0.4758  0.4380  0.0472
   43MOL   H48822412   3.497   1.555   0.620  0.3234  1.6235 -3.1677
   43MOL   H48922413   3.420   1.513   0.382  0.7320  0.1759  0.3702
   43MOL   H49022414   3.460   1.267   0.294  1.2855  0.6134  0.3682
   43MOL   H49122415   3.566   1.106   0.425  0.4114  0.2157 -0.4356
   43MOL   H49222416   3.797   1.118   0.957  0.6158  0.1337 -0.7819
   43MOL   H49322417   3.778   1.267   1.133 -0.7016 -0.2349 -0.4409
   43MOL   H49422418   3.638   1.477   1.106 -4.0446 -2.1538  0.2061
   43MOL   H49522419   3.548   1.536   0.887 -0.9475 -0.8724 -1.3049
   43MOL   C49622420   3.829   1.007   0.634  0.3136 -0.6088 -0.1440
   43MOL   C49722421   3.868   0.883   0.556 -0.3577  0.2399  0.3641
   43MOL   N49822422   3.898   0.917   0.421  0.8729 -0.3216 -0.1855
   43MOL   C49922423   3.804   0.917   0.309 -0.2686  0.2780  0.2519
   43MOL   C50022424   3.869   0.964   0.194 -0.7125 -0.3312 -0.3532
   43MOL   C50122425   3.802   0.989   0.080 -0.3400 -0.4202 -0.1525
   43MOL   C50222426   3.672   0.960   0.070 -0.1018  0.1537  0.1572
   43MOL   C50322427   3.599   0.912   0.178  0.0604  0.8394 -0.2060
   43MOL   C50422428   3.666   0.899   0.302  0.5197  0.5539  0.0213
   43MOL   C50522429   4.011   0.968   0.231  0.2788  0.2692 -0.3580
   43MOL   C50622430   4.023   0.939   0.367  0.8886  0.7536  0.3567
   43MOL   C50722431   4.148   0.934   0.430  0.1098 -0.1618  0.0916
   43MOL   C50822432   4.269   0.943   0.359  0.2621 -0.1119 -0.4687
   43MOL   C50922433   4.258   0.974   0.225  0.8419 -0.0903  0.0911
   43MOL   C51022434   4.136   0.992   0.163  0.8259 -0.8188 -0.1744
   43MOL   H51122435   3.862   1.098   0.584  0.5174 -0.2661  0.6124
   43MOL   H51222436   3.889   1.001   0.724  0.4669  2.7884  0.0382
   43MOL   H51322437   3.786   0.811   0.547  1.0035 -1.3046  0.0027
   43MOL   H51422438   3.850   1.026   8.218 -1.7902 -1.1403 -1.2400
   43MOL   H51522439   3.629   0.980   8.200  0.0180  3.7002  0.7447
   43MOL   H51622440   3.494   0.889   0.173 -0.1600  1.1725  2.1438
   43MOL   H51722441   3.620   0.861   0.392  0.6707 -1.5860 -0.7651
   43MOL   H51822442   4.144   0.921   0.537 -0.0374  1.4985  0.2929
   43MOL   H51922443   4.363   0.944   0.412  0.6316  0.1148 -1.1119
   43MOL   H52022444   4.348   0.985   0.166  1.1398 -1.8860  0.1755
   43MOL   H52122445   4.137   1.015   0.057 -0.4982 -1.2350 -0.2885
   43MOL   H52222446   3.961   0.843   0.597  0.9281  0.4863 -2.2411
   44MOL     C122447   3.005   7.271   3.394  0.7879  1.0372  0.0919
   44MOL     C222448   3.110   7.372   3.332  0.7010 -0.0150  0.1756
   44MOL     N322449   3.143   7.481   3.422  0.3896  0.2998 -0.5031
   44MOL     C422450   3.113   7.611   3.396 -0.8875 -0.1480 -1.0168
   44MOL     C522451   3.164   7.693   3.499  0.0766 -0.5590 -0.4196
   44MOL     C622452   3.150   7.836   3.484  0.4056 -0.3229 -0.6229
   44MOL     C722453   3.085   7.889   3.375 -0.5936 -0.5155  0.3071
   44MOL     C822454   3.033   7.810   3.274  0.2560  0.4221  0.1444
   44MOL     C922455   3.042   7.665   3.280 -0.0308 -0.5603 -0.4735
   44MOL    C1022456   3.230   7.608   3.594  0.5668 -0.2666 -0.3649
   44MOL    C1122457   3.217   7.477   3.544 -0.1108  0.0627  0.3333
   44MOL    C1222458   3.267   7.372   3.627  0.7451 -0.8915 -0.0494
   44MOL    C1322459   3.344   7.395   3.744  0.1955  0.2441  0.3506
   44MOL    C1422460   3.373   7.528   3.782  0.1210  0.3301 -0.0672
   44MOL    C1522461   3.312   7.631   3.711  0.7653 -0.7587 -0.9613
   44MOL    H1622462   2.979   7.199   3.317 -0.8516 -2.3536  3.6488
   44MOL    H1722463   2.916   7.323   3.429 -0.3917 -1.6310  1.1865
   44MOL    H1822464   3.052   7.417   3.252  0.0531  1.8237  1.6562
   44MOL    H1922465   3.187   7.905   3.558 -1.1025  0.8717 -0.9646
   44MOL    H2022466   3.063   7.995   3.376  2.0276  0.0692  1.2203
   44MOL    H2122467   2.980   7.843   3.186  0.1496  0.1823  0.1175
   44MOL    H2222468   3.008   7.610   3.194 -0.4043  0.7997 -1.1857
   44MOL    H2322469   3.236   7.270   3.607 -1.2557 -0.0997 -1.1347
   44MOL    H2422470   3.374   7.310   3.804 -0.9526 -0.4502 -0.0608
   44MOL    H2522471   3.433   7.542   3.871 -0.2017  0.2770  0.1609
   44MOL    H2622472   3.336   7.733   3.738 -0.0195 -0.7257 -0.3950
   44MOL    H2722473   3.050   7.214   3.475  1.9109 -2.5039 -2.8887
   44MOL    C2822474   3.237   7.304   3.269  0.6291  0.2476  0.1759
   44MOL    C2922475   3.352   7.398   3.222 -0.7764 -0.1111  0.0013
   44MOL    N3022476   3.460   7.298   3.187 -0.1229 -0.8591  0.4750
   44MOL    C3122477   3.559   7.249   3.268 -0.2064  0.6099 -0.6346
   44MOL    C3222478   3.645   7.164   3.200 -0.1972  0.1437  0.4422
   44MOL    C3322479   3.750   7.108   3.269  0.3716 -1.3126 -0.4050
   44MOL    C3422480   3.772   7.137   3.405 -0.2709 -0.2481 -0.0366
   44MOL    C3522481   3.684   7.217   3.477  0.3432 -0.3820 -0.4236
   44MOL    C3622482   3.578   7.276   3.407  0.2179  0.3583 -0.2353
   44MOL    C3722483   3.589   7.145   3.072  0.8242 -0.6778  0.7431
   44MOL    C3822484   3.468   7.227   3.067 -0.2065  0.8402  0.2220
   44MOL    C3922485   3.373   7.208   2.968 -0.2723  0.2870  0.3583
   44MOL    C4022486   3.402   7.114   2.863  0.2517  0.2227  0.9166
   44MOL    C4122487   3.528   7.046   2.856 -0.7120  0.4292 -0.5053
   44MOL    C4222488   3.620   7.060   2.960 -0.2934  0.7747  0.3729
   44MOL    H4322489   3.284   7.241   3.345 -2.5418 -3.0000 -0.4159
   44MOL    H4422490   3.210   7.227   3.197  0.3993 -1.7251  2.3299
   44MOL    H4522491   3.384   7.449   3.313 -1.3544 -0.7910  0.5938
   44MOL    H4622492   3.818   7.041   3.218  1.2789 -2.1921  1.9302
   44MOL    H4722493   3.851   7.088   3.462 -0.4491 -0.4893  0.0031
   44MOL    H4822494   3.694   7.248   3.579  0.8484 -1.8096 -0.0237
   44MOL    H4922495   3.509   7.340   3.460  0.9620  0.0368  1.1359
   44MOL    H5022496   3.279   7.262   2.972 -0.2985  0.4149 -1.2670
   44MOL    H5122497   3.325   7.105   2.787  0.2413 -1.6924  1.1211
   44MOL    H5222498   3.561   6.973   2.783 -1.2046 -0.0936 -0.2129
   44MOL    H5322499   3.708   6.997   2.958 -0.2244  0.9243 -2.1333
   44MOL    C5422500   3.322   7.511   3.117 -0.7889  0.1185 -0.7241
   44MOL    C5522501   3.444   7.568   3.044 -1.1968 -0.0932 -0.4622
   44MOL    N5622502   3.408   7.688   2.968 -0.9332 -0.3620  0.3722
   44MOL    C5722503   3.416   7.697   2.830 -0.2128 -0.2658 -0.1346
   44MOL    C5822504   3.388   7.831   2.789  0.2964 -0.0785  1.0141
   44MOL    C5922505   3.380   7.862   2.650  0.0882 -0.0033 -0.0694
   44MOL    C6022506   3.418   7.768   2.556 -0.2899 -0.7118 -0.5822
   44MOL    C6122507   3.453   7.636   2.596  0.2785 -0.2924  0.4557
   44MOL    C6222508   3.448   7.598   2.731  0.1755 -0.9866  0.5157
   44MOL    C6322509   3.376   7.908   2.903  0.3698 -0.9101  0.3826
   44MOL    C6422510   3.372   7.815   3.012  0.4230 -0.1172  0.0646
   44MOL    C6522511   3.356   7.864   3.146  0.5983  0.1560  0.1083
   44MOL    C6622512   3.329   8.003   3.169  0.6648 -0.1502  0.5141
   44MOL    C6722513   3.330   8.090   3.059 -0.3778 -0.4815  0.3603
   44MOL    C6822514   3.344   8.045   2.926 -0.1411 -0.4802 -0.3702
   44MOL    H6922515   3.248   7.471   3.047  0.2510  1.1052 -2.4328
   44MOL    H7022516   3.261   7.580   3.175 -1.1080 -0.5379 -0.2653
   44MOL    H7122517   3.482   7.495   2.973 -2.5689 -0.6617 -0.6324
   44MOL    H7222518   3.350   7.961   2.617  0.6791  0.9729  2.2692
   44MOL    H7322519   3.417   7.797   2.452  1.7065 -0.0555 -0.4397
   44MOL    H7422520   3.491   7.565   2.524 -1.5529 -0.8492  0.0127
   44MOL    H7522521   3.488   7.502   2.758  2.0332 -0.6847 -1.0451
   44MOL    H7622522   3.362   7.785   3.220  0.0604  1.5127  1.6268
   44MOL    H7722523   3.310   8.043   3.267 -0.6732  1.9130 -0.5427
   44MOL    H7822524   3.313   8.196   3.065  0.4551 -0.2058 -1.6748
   44MOL    H7922525   3.359   8.113   2.843  1.5215  0.3633  0.6190
   44MOL    C8022526   3.559   7.597   3.147  0.5157  0.7796 -0.2394
   44MOL    C8122527   3.672   7.702   3.092 -0.5359 -0.0317  0.1243
   44MOL    N8222528   3.757   7.759   3.202  0.4708  0.6040  0.1250
   44MOL    C8322529   3.774   7.895   3.232  0.0946 -0.1695  0.4093
   44MOL    C8422530   3.868   7.904   3.340 -0.1488 -0.2825 -0.3086
   44MOL    C8522531   3.901   8.036   3.382 -0.4104 -0.8002 -0.2126
   44MOL    C8622532   3.840   8.150   3.325  0.0288  0.1720  0.1791
   44MOL    C8722533   3.736   8.134   3.229 -0.9951 -0.2325  1.1038
   44MOL    C8822534   3.704   8.007   3.183 -0.5418  0.4267 -0.8111
   44MOL    C8922535   3.903   7.770   3.372 -0.2780 -0.5180 -0.0280
   44MOL    C9022536   3.834   7.679   3.286 -0.4733  0.2201  0.1548
   44MOL    C9122537   3.843   7.540   3.305 -0.2287  0.4052 -0.2794
   44MOL    C9222538   3.927   7.488   3.401 -0.1624 -0.2123  0.3204
   44MOL    C9322539   3.999   7.578   3.481 -0.7156 -0.3904 -0.2414
   44MOL    C9422540   3.988   7.717   3.468 -0.3994 -0.3524  0.1482
   44MOL    H9522541   3.516   7.638   3.238 -0.9304 -0.9469 -0.1195
   44MOL    H9622542   3.612   7.505   3.173  0.6369  1.2274  1.1449
   44MOL    H9722543   3.630   7.791   3.044 -2.4433 -1.9069 -1.8200
   44MOL    H9822544   3.965   8.048   3.468  0.6365 -1.0982 -0.9343
   44MOL    H9922545   3.863   0.023   3.358  1.5540 -0.4377  1.0026
   44MOL   H10022546   3.680   8.220   3.194 -0.5345 -0.7169 -0.8963
   44MOL   H10122547   3.624   7.993   3.113 -0.8096 -0.3687 -0.3503
   44MOL   H10222548   3.784   7.467   3.252 -0.5463  0.2622  0.2733
   44MOL   H10322549   3.918   7.386   3.436  0.6743 -0.2734  0.3761
   44MOL   H10422550   4.066   7.545   3.559  0.8607  0.3945 -1.2230
   44MOL   H10522551   4.040   7.774   3.544 -1.9686  0.3751  0.6907
   44MOL   C10622552   3.768   7.655   2.985  0.5186  0.4788 -0.5318
   44MOL   C10722553   3.842   7.761   2.901  0.0901  0.1887  0.6956
   44MOL   N10822554   3.948   7.694   2.814  0.4488  0.5117  0.3878
   44MOL   C10922555   4.087   7.712   2.817  0.1139  0.2361  0.2398
   44MOL   C11022556   4.156   7.640   2.709  0.4247 -0.4329 -0.4946
   44MOL   C11122557   4.288   7.660   2.690  0.1197 -0.3046 -0.3543
   44MOL   C11222558   4.368   7.739   2.779  0.5529  0.1541  0.6800
   44MOL   C11322559   4.295   7.823   2.869  0.0679 -0.1822  0.1095
   44MOL   C11422560   4.156   7.809   2.889  0.1813  0.0997  0.4833
   44MOL   C11522561   4.049   7.560   2.648  0.5843 -0.7066 -0.9280
   44MOL   C11622562   3.924   7.598   2.712  0.1535 -0.0075  0.0291
   44MOL   C11722563   3.803   7.538   2.673 -0.2802  1.0102  0.2211
   44MOL   C11822564   3.803   7.437   2.572 -0.3271 -0.7789  0.4274
   44MOL   C11922565   3.921   7.399   2.503 -0.3176  0.4444 -0.1979
   44MOL   C12022566   4.040   7.462   2.546 -0.4548  0.2668  0.5980
   44MOL   H12122567   3.852   7.599   3.025  1.2294  1.3249 -0.8283
   44MOL   H12222568   3.722   7.570   2.934 -0.8760  1.5195 -1.0512
   44MOL   H12322569   3.900   7.819   2.973 -0.6158  1.4015  0.3084
   44MOL   H12422570   4.333   7.606   2.608  0.9753 -0.6326  0.3311
   44MOL   H12522571   4.472   7.763   2.769  0.2226  0.2729 -3.0772
   44MOL   H12622572   4.353   7.889   2.932  2.1580 -3.3776  1.6579
   44MOL   H12722573   4.118   7.868   2.971  0.0296 -1.7961  1.8057
   44MOL   H12822574   3.709   7.564   2.720 -1.0263 -2.3013  0.6946
   44MOL   H12922575   3.713   7.380   2.553 -1.4669  2.1006 -3.3444
   44MOL   H13022576   3.924   7.326   2.424 -4.8405  0.5473 -0.5850
   44MOL   H13122577   4.140   7.443   2.512 -0.6797  0.6318 -0.3058
   44MOL   C13222578   3.750   7.867   2.818 -0.4395 -0.2902 -0.6212
   44MOL   C13322579   3.819   7.956   2.714  0.4199  0.6518 -0.2254
   44MOL   N13422580   3.715   8.023   2.641  0.8000 -0.1888 -0.0354
   44MOL   C13522581   3.672   7.980   2.511  0.7321 -0.3573 -0.1721
   44MOL   C13622582   3.578   8.079   2.466 -0.0003  0.2663 -0.1610
   44MOL   C13722583   3.512   8.062   2.340  0.5717 -0.2750  0.0813
   44MOL   C13822584   3.557   7.963   2.251  0.2924  0.3935 -0.4266
   44MOL   C13922585   3.649   7.864   2.299 -0.5530  0.1663 -0.5833
   44MOL   C14022586   3.703   7.870   2.430 -0.0717 -0.1809  0.5245
   44MOL   C14122587   3.555   8.173   2.575  0.1150  0.2193 -0.2821
   44MOL   C14222588   3.637   8.130   2.681 -0.2125 -0.1841  0.0434
   44MOL   C14322589   3.622   8.189   2.808  0.1798  0.7682  1.4632
   44MOL   C14422590   3.543   0.075   2.825 -0.3589 -0.5011 -0.2547
   44MOL   C14522591   3.476   0.124   2.716 -0.1546 -0.5379 -0.3260
   44MOL   C14622592   3.481   0.060   2.594  1.2041  1.7540 -0.1249
   44MOL   H14722593   3.674   7.808   2.767  0.0282  0.4652 -2.2012
   44MOL   H14822594   3.694   7.929   2.889  0.5631 -0.1527  0.0592
   44MOL   H14922595   3.870   7.890   2.643 -0.2490  0.9300 -0.9694
   44MOL   H15022596   3.431   8.126   2.308 -0.3940 -0.9544  1.1358
   44MOL   H15122597   3.531   7.960   2.146  1.6240  0.2838 -0.7680
   44MOL   H15222598   3.693   7.795   2.229 -3.6353 -2.0468 -0.4595
   44MOL   H15322599   3.777   7.794   2.450  1.2213  0.3319 -2.1149
   44MOL   H15422600   3.681   8.155   2.891  2.5772  2.9141  0.6833
   44MOL   H15522601   3.534   0.127   2.919 -2.0830  2.0393 -1.7474
   44MOL   H15622602   3.403   0.203   2.727  1.7929  1.5282 -1.7070
   44MOL   H15722603   3.412   0.092   2.518  2.1904 -0.7505 -2.1608
   44MOL   C15822604   3.921   8.060   2.765 -0.3482 -0.2576 -0.5434
   44MOL   C15922605   3.964   8.158   2.656 -0.4135  0.2818 -0.4674
   44MOL   N16022606   4.039   0.037   2.721  0.0003 -0.1438  0.0158
   44MOL   C16122607   3.984   0.169   2.731  0.1773 -0.0104 -0.6694
   44MOL   C16222608   4.079   0.247   2.800 -0.0418 -0.9420  1.0101
   44MOL   C16322609   4.052   0.385   2.829  0.2044 -0.0989  0.6293
   44MOL   C16422610   3.928   0.441   2.793  0.2932  0.6596  0.0654
   44MOL   C16522611   3.838   0.360   2.715  0.7259  0.0928 -0.7755
   44MOL   C16622612   3.861   0.226   2.688  0.0316 -0.2569  0.0349
   44MOL   C16722613   4.199   0.168   2.817  0.2188  0.3226  0.7145
   44MOL   C16822614   4.169   0.037   2.777  0.2688 -0.3970  0.0998
   44MOL   C16922615   4.265   8.162   2.787 -0.2144  0.2443  0.4849
   44MOL   C17022616   4.385   8.183   2.853 -0.2620 -0.1519 -0.2460
   44MOL   C17122617   4.409   0.086   2.903 -0.3218 -0.1704 -0.0723
   44MOL   C17222618   4.320   0.192   2.880 -0.2881  0.0047  0.6650
   44MOL   H17322619   3.883   8.127   2.843  0.6120  0.9468 -1.0933
   44MOL   H17422620   4.011   8.015   2.806 -1.1677 -0.3887  1.1707
   44MOL   H17522621   3.879   8.209   2.610 -1.4180 -0.0104  1.0251
   44MOL   H17622622   4.134   0.440   2.874  1.0205 -1.3780  0.7329
   44MOL   H17722623   3.906   0.544   2.819  1.2037  0.5556  1.2918
   44MOL   H17822624   3.750   0.418   2.692  0.4578  0.1744  0.4299
   44MOL   H17922625   3.779   0.174   2.641  0.1846 -1.2554  0.8645
   44MOL   H18022626   4.250   8.059   2.757  0.3919  0.4935 -0.7109
   44MOL   H18122627   4.455   8.102   2.871  0.4873  0.7667  1.1336
   44MOL   H18222628   4.500   0.104   2.957 -0.3992  0.6861 -0.2250
   44MOL   H18322629   4.347   0.282   2.932  0.1080 -0.9744  2.1775
   44MOL   C18422630   4.041   8.100   2.541  0.0219  0.2938  0.3394
   44MOL   C18522631   4.059   8.207   2.430  0.6782 -0.3332  0.3705
   44MOL   N18622632   4.206   8.220   2.403 -0.1035  0.5568  0.9640
   44MOL   C18722633   4.282   0.108   2.409 -0.6093 -0.1201 -0.4160
   44MOL   C18822634   4.414   0.090   2.364 -0.0315  0.6343 -0.0593
   44MOL   C18922635   4.499   0.198   2.347  0.1230 -0.1493 -0.1125
   44MOL   C19022636   4.466   0.326   2.398  0.0436 -0.1994 -0.0992
   44MOL   C19122637   4.338   0.342   2.455  0.9476 -0.4074 -0.4548
   44MOL   C19222638   4.246   0.239   2.456 -0.2786 -0.1286 -0.5363
   44MOL   C19322639   4.418   8.180   2.336  0.3003  0.1457 -0.0551
   44MOL   C19422640   4.288   8.118   2.355  0.2723 -0.1537  0.0303
   44MOL   C19522641   4.271   7.981   2.327 -0.0865 -0.2239 -0.0031
   44MOL   C19622642   4.381   7.900   2.296 -0.6368 -0.0305 -0.7354
   44MOL   C19722643   4.507   7.961   2.269 -0.3193  0.9634 -0.6919
   44MOL   C19822644   4.527   8.101   2.292 -0.4482 -0.4332  0.4165
   44MOL   H19922645   4.140   8.069   2.572  0.5781  1.0689 -0.6381
   44MOL   H20022646   3.984   8.014   2.505  0.5034  0.7411 -1.5633
   44MOL   H20122647   4.026   0.072   2.479  0.2577 -1.3150  1.9768
   44MOL   H20222648   4.596   0.188   2.302 -0.6135 -1.0184 -1.5253
   44MOL   H20322649   4.537   0.408   2.391 -1.4173  1.0229 -1.0570
   44MOL   H20422650   4.306   0.437   2.494  0.3801 -1.3254  1.3753
   44MOL   H20522651   4.150   0.259   2.502 -0.1987  1.9811 -1.2139
   44MOL   H20622652   4.172   7.941   2.314 -0.1797 -0.1639  0.4875
   44MOL   H20722653   4.369   7.793   2.287 -6.6343  0.3084  0.8293
   44MOL   H20822654   4.590   7.895   2.249 -1.1322 -0.6949  1.2226
   44MOL   H20922655   4.627   8.142   2.286 -0.2855 -1.0941 -1.9635
   44MOL   C21022656   3.981   8.193   2.301  0.3838 -0.2314 -0.2088
   44MOL   C21122657   3.998   0.071   2.193  0.6927 -0.5473 -0.9323
   44MOL   N21222658   3.964   0.016   2.059  0.3717 -0.2235 -0.6065
   44MOL   C21322659   4.057   8.195   1.964  0.1277  0.2401  0.4661
   44MOL   C21422660   3.989   8.170   1.839 -1.2129 -0.8540 -0.2637
   44MOL   C21522661   4.064   8.131   1.721  0.0437 -0.0230 -0.2224
   44MOL   C21622662   4.206   8.120   1.721  1.0639 -0.6829 -0.4674
   44MOL   C21722663   4.272   8.149   1.845  0.9308 -0.2221 -0.7995
   44MOL   C21822664   4.200   8.187   1.968 -0.6426  0.2583  0.4949
   44MOL   C21922665   3.852   8.184   1.869 -0.2862 -0.1406  0.1214
   44MOL   C22022666   3.834   8.222   2.003  0.3132 -0.7566 -0.2162
   44MOL   C22122667   3.705   0.011   2.061  0.0348  0.0854 -0.9147
   44MOL   C22222668   3.588   8.215   1.985  0.3495  0.2054  0.2981
   44MOL   C22322669   3.607   8.178   1.849  0.8121  0.3099  0.0951
   44MOL   C22422670   3.734   8.160   1.791 -0.0649 -0.3506 -0.7450
   44MOL   H22522671   3.999   8.095   2.256  1.2532  0.2201 -0.8683
   44MOL   H22622672   3.878   8.194   2.338  1.2433 -0.4471  2.2087
   44MOL   H22722673   4.103   0.101   2.190  1.3587 -2.8464 -1.7959
   44MOL   H22822674   4.020   8.110   1.625  1.8075 -1.1891 -0.8053
   44MOL   H22922675   4.259   8.094   1.630 -0.5449 -2.3319 -0.9766
   44MOL   H23022676   4.379   8.164   1.848  0.7930  1.0046 -1.3596
   44MOL   H23122677   4.251   8.223   2.056  0.9265  0.2335 -0.3884
   44MOL   H23222678   3.706   0.030   2.167 -0.4958 -0.6605 -0.7756
   44MOL   H23322679   3.491   0.005   2.029  0.5824 -0.5518  1.1310
   44MOL   H23422680   3.532   8.158   1.774  0.8625 -0.7031  0.3054
   44MOL   H23522681   3.747   8.115   1.694  2.2224 -1.1853 -0.0787
   44MOL   C23622682   3.915   0.200   2.225  0.1997 -0.2564  0.0328
   44MOL   C23722683   3.987   0.331   2.173  0.8739  0.2626  0.0060
   44MOL   N23822684   4.021   0.325   2.031  0.3649  0.0753  0.4963
   44MOL   C23922685   4.148   0.305   1.974  1.6046  0.3417  0.3053
   44MOL   C24022686   4.138   0.296   1.830  1.3304 -0.6829 -0.9814
   44MOL   C24122687   4.261   0.277   1.760 -0.1002  0.7921 -0.7320
   44MOL   C24222688   4.384   0.257   1.829 -0.9679 -0.4717  0.5124
   44MOL   C24322689   4.390   0.258   1.969 -0.2992  0.5770 -0.2688
   44MOL   C24422690   4.271   0.288   2.045  0.2767  0.2259 -0.3951
   44MOL   C24522691   4.002   0.311   1.799 -0.0958  0.1877 -0.3002
   44MOL   C24622692   3.933   0.316   1.925  0.3581  0.5905 -0.6242
   44MOL   C24722693   3.795   0.334   1.924  0.1222 -1.1174  0.2334
   44MOL   C24822694   3.719   0.333   1.803 -1.0646  0.0860 -0.0058
   44MOL   C24922695   3.784   0.321   1.685  0.2056  0.2806 -0.4215
   44MOL   C25022696   3.926   0.308   1.682  0.1613 -0.3962  0.1416
   44MOL   H25122697   3.819   0.201   2.174  0.2176  0.4085  0.0133
   44MOL   H25222698   3.892   0.197   2.331  0.2770 -1.1060  0.0327
   44MOL   H25322699   4.076   0.330   2.236  2.6939 -2.7545 -2.4884
   44MOL   H25422700   4.261   0.280   1.653 -2.3806  0.3055 -0.7761
   44MOL   H25522701   4.473   0.247   1.770 -0.8657  0.2715  0.5397
   44MOL   H25622702   4.484   0.232   2.017 -0.8926  0.9663  1.1153
   44MOL   H25722703   4.283   0.299   2.152  0.6970 -1.0271 -0.3095
   44MOL   H25822704   3.743   0.347   2.018  0.4330 -0.0844  0.2725
   44MOL   H25922705   3.612   0.341   1.816 -1.0095 -0.3591  0.7410
   44MOL   H26022706   3.725   0.333   1.595 -0.3392  0.2512 -0.0720
   44MOL   H26122707   3.979   0.320   1.589 -1.1377  1.5717 -0.3792
   44MOL   C26222708   3.918   0.458   2.220 -0.1979  0.1084  0.1615
   44MOL   C26322709   3.968   0.595   2.153  0.1091  0.0988 -0.7163
   44MOL   N26422710   3.891   0.711   2.195 -0.6595 -0.1101 -0.3102
   44MOL   C26522711   3.817   0.795   2.111 -0.3644 -0.1636 -0.1051
   44MOL   C26622712   3.759   0.905   2.185  1.1540  0.1064 -0.6331
   44MOL   C26722713   3.686   1.002   2.112  0.4702 -0.6742  0.2171
   44MOL   C26822714   3.654   0.986   1.972 -0.4257  0.5088 -0.8125
   44MOL   C26922715   3.710   0.875   1.911 -0.3038 -0.1514 -0.6670
   44MOL   C27022716   3.791   0.785   1.973 -0.0989 -0.5239  0.4292
   44MOL   C27122717   3.786   0.873   2.325 -0.0936 -0.6030  0.1737
   44MOL   C27222718   3.872   0.761   2.324 -0.0295  0.2298  0.0328
   44MOL   C27322719   3.913   0.709   2.452 -0.2664 -0.2281 -0.1241
   44MOL   C27422720   3.861   0.759   2.575 -0.7786  0.2691  0.5733
   44MOL   C27522721   3.782   0.870   2.576 -0.1041 -0.3419 -0.6442
   44MOL   C27622722   3.747   0.931   2.451  0.0175  0.6463 -0.3619
   44MOL   H27722723   3.814   0.454   2.188  0.5534  0.6868 -2.4210
   44MOL   H27822724   3.903   0.447   2.328 -0.4542  2.5223  0.3809
   44MOL   H27922725   3.960   0.579   2.046 -2.5901  1.1744 -0.7022
   44MOL   H28022726   3.640   1.080   2.170 -0.3820 -0.8372 -0.2256
   44MOL   H28122727   3.591   1.055   1.916 -1.4001 -0.7824 -1.3243
   44MOL   H28222728   3.701   0.853   1.805  1.0799 -1.0736 -0.6149
   44MOL   H28322729   3.825   0.701   1.915  0.6340 -1.1417  1.7217
   44MOL   H28422730   3.976   0.621   2.457 -1.0404 -0.7658  0.3126
   44MOL   H28522731   3.894   0.716   2.668  0.6511  1.2407  0.5258
   44MOL   H28622732   3.751   0.906   2.673 -1.1318 -1.1782 -0.6447
   44MOL   H28722733   3.688   1.019   2.437 -0.7233  0.0989 -0.6976
   44MOL   C28822734   4.121   0.621   2.170  0.0327 -0.2080 -0.3212
   44MOL   C28922735   4.170   0.741   2.082 -0.5252 -0.0207 -0.2315
   44MOL   N29022736   4.304   0.790   2.133  0.1264 -0.3573  0.1008
   44MOL   C29122737   4.319   0.921   2.170 -0.6729  0.8036  0.8636
   44MOL   C29222738   4.456   0.947   2.193 -0.9521 -0.5891  0.0079
   44MOL   C29322739   4.497   1.071   2.228  0.3680 -0.3246 -0.9718
   44MOL   C29422740   4.407   1.179   2.238 -0.0405 -0.3390 -0.7735
   44MOL   C29522741   4.267   1.151   2.227 -0.2268 -0.2350  0.9555
   44MOL   C29622742   4.222   1.024   2.176  0.3909  0.0305 -0.5080
   44MOL   C29722743   4.527   0.825   2.177  0.1143  0.0712 -1.2847
   44MOL   C29822744   4.429   0.729   2.141 -0.4908  1.0619  0.7208
   44MOL   C29922745   4.468   0.596   2.108  0.0333 -0.0147 -0.7510
   44MOL   C30022746   4.601   0.554   2.112  0.1487  0.3111  0.0320
   44MOL   C30122747   4.699   0.652   2.148 -0.2765  1.0689 -0.1247
   44MOL   C30222748   4.664   0.783   2.180 -0.1066 -0.3178 -0.2160
   44MOL   H30322749   4.137   0.641   2.276  0.4597  2.1643 -0.8020
   44MOL   H30422750   4.185   0.534   2.154 -1.5994 -1.3541 -0.6608
   44MOL   H30522751   4.097   0.821   2.091  0.2572  0.6550  0.0986
   44MOL   H30622752   4.602   1.085   2.249  0.2954  0.1985 -0.9540
   44MOL   H30722753   4.442   1.267   2.290 -1.4491  0.4858 -1.1815
   44MOL   H30822754   4.195   1.230   2.245 -1.3186 -0.8223 -0.7772
   44MOL   H30922755   4.115   1.007   2.175  0.5278 -0.9690  0.8945
   44MOL   H31022756   4.395   0.521   2.080 -0.1602  0.4757 -1.5787
   44MOL   H31122757   4.610   0.452   2.079 -2.1940 -0.0117  0.3103
   44MOL   H31222758   4.803   0.630   2.168 -0.8103  0.7017  2.4393
   44MOL   H31322759   4.745   0.853   2.197  0.3274 -0.7484 -0.4895
   44MOL   C31422760   4.192   0.701   1.935  0.1093  0.6952  0.3300
   44MOL   C31522761   4.227   0.817   1.847  0.7083  0.8803  0.0651
   44MOL   N31622762   4.290   0.766   1.729 -0.1561 -0.5496 -0.2010
   44MOL   C31722763   4.424   0.784   1.691 -0.2654  0.5591  0.4781
   44MOL   C31822764   4.447   0.740   1.556 -0.0370  0.8350  0.0248
   44MOL   C31922765   4.572   0.760   1.492  0.4894  0.8401  0.5141
   44MOL   C32022766   4.674   0.814   1.568  0.0242 -0.1780 -0.1526
   44MOL   C32122767   4.658   0.856   1.705 -0.8277  0.4910 -0.2709
   44MOL   C32222768   4.529   0.835   1.764 -0.0936  1.0634 -0.8185
   44MOL   C32322769   4.326   0.684   1.513  0.4253 -0.0838 -0.5529
   44MOL   C32422770   4.232   0.699   1.621  0.8459  0.1474  0.0616
   44MOL   C32522771   4.102   0.643   1.607 -0.7961 -0.3911  1.0144
   44MOL   C32622772   4.068   0.571   1.488 -0.2323  0.1412 -0.9532
   44MOL   C32722773   4.157   0.567   1.383 -0.1349 -0.1497  0.3505
   44MOL   C32822774   4.284   0.622   1.394  0.7206 -0.5291 -1.0308
   44MOL   H32922775   4.259   0.616   1.920 -1.5610 -1.1225  2.7323
   44MOL   H33022776   4.099   0.655   1.903  0.8846 -0.4191 -0.3429
   44MOL   H33122777   4.302   0.878   1.899 -0.4838  1.0288  1.6751
   44MOL   H33222778   4.588   0.741   1.387  0.6359 -1.0064  0.8451
   44MOL   H33322779   4.766   0.841   1.519 -0.6566  1.5491 -0.5592
   44MOL   H33422780   4.738   0.903   1.759 -1.1455  1.0280 -0.2670
   44MOL   H33522781   4.518   0.862   1.868 -0.0700 -1.2469 -0.2054
   44MOL   H33622782   4.028   0.665   1.682  0.0380 -1.6814  2.2304
   44MOL   H33722783   3.969   0.527   1.491  0.3975 -1.1767  1.3520
   44MOL   H33822784   4.121   0.518   1.294  0.0251 -0.3304  0.3857
   44MOL   H33922785   4.353   0.619   1.310 -0.0865 -3.9895 -1.6709
   44MOL   C34022786   4.112   0.914   1.806 -0.3021  0.4677  0.5063
   44MOL   C34122787   4.133   0.999   1.678  0.4071 -0.0974 -0.0374
   44MOL   N34222788   3.999   1.043   1.634 -0.0567  0.0669  1.0557
   44MOL   C34322789   3.934   1.015   1.510 -0.2449  0.0019 -0.2108
   44MOL   C34422790   3.819   1.099   1.500  0.6391 -0.4509 -0.5636
   44MOL   C34522791   3.745   1.086   1.379  0.6324 -1.2850 -0.1426
   44MOL   C34622792   3.781   0.994   1.278  0.4184 -0.2072  0.0627
   44MOL   C34722793   3.889   0.910   1.298 -0.2202 -0.1817 -0.1803
   44MOL   C34822794   3.971   0.921   1.408  0.3309  0.4905 -0.1911
   44MOL   C34922795   3.818   1.182   1.616 -0.0977 -0.6323 -0.4594
   44MOL   C35022796   3.930   1.143   1.693 -0.0181 -0.4475 -0.3224
   44MOL   C35122797   3.960   1.211   1.815  0.2508 -0.3813  0.5881
   44MOL   C35222798   3.883   1.316   1.860  0.3041 -0.1142  0.2139
   44MOL   C35322799   3.769   1.350   1.787  0.4075 -0.0216 -0.1214
   44MOL   C35422800   3.733   1.287   1.667 -0.4800  0.4190  0.1806
   44MOL   H35522801   4.026   0.850   1.790 -0.8115  1.8700 -2.6381
   44MOL   H35622802   4.081   0.966   1.897  0.1482 -1.0155  1.5282
   44MOL   H35722803   4.159   0.928   1.599 -0.6754 -2.0277  1.2974
   44MOL   H35822804   3.660   1.146   1.350  1.1159 -0.8662 -0.6921
   44MOL   H35922805   3.720   0.981   1.190  1.1055 -2.1591 -0.1481
   44MOL   H36022806   3.917   0.836   1.224  1.5588  0.6515 -0.3616
   44MOL   H36122807   4.067   0.872   1.405 -0.0087 -0.1163 -1.5938
   44MOL   H36222808   4.040   1.174   1.877 -1.3246 -2.8862  1.1792
   44MOL   H36322809   3.914   1.359   1.954 -2.9639 -0.5292  1.5396
   44MOL   H36422810   3.714   1.436   1.822  0.1508 -1.2344  2.6075
   44MOL   H36522811   3.642   1.321   1.621 -0.5577  0.2495  0.2114
   44MOL   C36622812   4.244   1.109   1.689  0.5011 -0.5371  0.1107
   44MOL   C36722813   4.242   1.204   1.571  0.0804 -0.2479  0.1828
   44MOL   N36822814   4.338   1.309   1.589 -0.2540 -0.2267 -0.2921
   44MOL   C36922815   4.302   1.439   1.633 -0.7221 -0.3232 -0.4441
   44MOL   C37022816   4.422   1.521   1.628 -0.2525  0.1118 -0.2462
   44MOL   C37122817   4.412   1.655   1.654 -0.2108  0.0720  0.5501
   44MOL   C37222818   4.290   1.710   1.692 -0.2147  0.1806 -0.3133
   44MOL   C37322819   4.174   1.637   1.683  0.6793  0.0217 -0.2988
   44MOL   C37422820   4.182   1.500   1.668 -0.7439  0.2201  0.1849
   44MOL   C37522821   4.532   1.429   1.605 -0.2948  0.1213 -0.3740
   44MOL   C37622822   4.478   1.295   1.590  0.2619  0.3886  0.5742
   44MOL   C37722823   4.564   1.182   1.582  0.5006 -0.2874  0.0600
   44MOL   C37822824   4.705   1.195   1.581 -0.2363  0.6443  0.5416
   44MOL   C37922825   4.755   1.327   1.577  0.0398 -0.0494  0.3266
   44MOL   C38022826   4.673   1.439   1.591 -0.1222 -1.0568  0.3056
   44MOL   H38122827   4.228   1.168   1.780  1.8156 -0.4089  0.2731
   44MOL   H38222828   4.344   1.065   1.691  0.3618 -0.8973 -0.9668
   44MOL   H38322829   4.144   1.251   1.563  1.3158  2.3137 -0.3662
   44MOL   H38422830   4.503   1.713   1.650 -0.6693  0.8504  1.1318
   44MOL   H38522831   4.289   1.814   1.724 -0.0292 -0.2876  1.2798
   44MOL   H38622832   4.076   1.672   1.712  0.2582 -2.2157  1.0445
   44MOL   H38722833   4.090   1.442   1.671  1.0697 -2.7463  0.5100
   44MOL   H38822834   4.522   1.082   1.574  0.3896 -0.2417  0.0666
   44MOL   H38922835   4.771   1.110   1.575  0.6609  1.5055 -2.6877
   44MOL   H39022836   4.862   1.337   1.562  0.0227  0.0521  0.2673
   44MOL   H39122837   4.716   1.537   1.576 -0.9493 -0.7435 -0.0987
   44MOL   C39222838   4.267   1.129   1.432  0.2320  0.8286 -0.2001
   44MOL   C39322839   4.200   1.197   1.305 -0.1423  0.2809 -0.1133
   44MOL   N39422840   4.221   1.343   1.303 -0.3881 -0.7390 -0.2495
   44MOL   C39522841   4.121   1.438   1.331 -0.1742 -0.4375  0.1164
   44MOL   C39622842   4.176   1.568   1.324  0.3359 -0.3819  0.7442
   44MOL   C39722843   4.093   1.676   1.353 -0.7223 -0.6248 -0.8990
   44MOL   C39822844   3.960   1.653   1.388 -0.7469  0.2183 -0.4101
   44MOL   C39922845   3.900   1.529   1.390 -0.1467  0.0156  0.2562
   44MOL   C40022846   3.983   1.421   1.357 -0.7301 -0.5596  0.3061
   44MOL   C40122847   4.315   1.557   1.291 -0.1759  1.0354 -0.5075
   44MOL   C40222848   4.339   1.416   1.282 -0.3092  0.8323  0.5082
   44MOL   C40322849   4.476   1.374   1.265 -0.4393 -0.2836 -0.6384
   44MOL   C40422850   4.578   1.462   1.240 -1.0039 -0.7215 -0.6267
   44MOL   C40522851   4.559   1.605   1.251  0.5842 -0.4838 -0.2711
   44MOL   C40622852   4.429   1.643   1.285  0.4090 -0.6941 -0.0788
   44MOL   H40722853   4.373   1.105   1.424  0.6453  2.0298  1.3615
   44MOL   H40822854   4.233   1.026   1.432  0.9164  0.5857  1.3965
   44MOL   H40922855   4.094   1.174   1.315  0.0388 -1.5222 -2.0271
   44MOL   H41022856   4.135   1.775   1.357 -3.3860  0.4613  2.8189
   44MOL   H41122857   3.899   1.740   1.408  0.9269  1.0469  1.2081
   44MOL   H41222858   3.798   1.532   1.426 -0.4824 -1.2433 -0.5542
   44MOL   H41322859   3.943   1.321   1.357 -0.4824 -0.6863 -2.2791
   44MOL   H41422860   4.493   1.268   1.265  1.0364 -0.1110  3.1485
   44MOL   H41522861   4.678   1.428   1.221 -0.2994  0.7853  0.2441
   44MOL   H41622862   4.637   1.678   1.238 -1.8198  2.1002 -0.5028
   44MOL   H41722863   4.406   1.746   1.309 -2.6092 -1.1966 -0.5977
   44MOL   C41822864   4.231   1.119   1.177 -0.7685 -0.1824  0.0499
   44MOL   C41922865   4.223   1.171   1.036 -0.2162 -0.5220  0.0428
   44MOL   N42022866   4.248   1.062   0.942  0.0864  0.0478 -0.2103
   44MOL   C42122867   4.365   1.025   0.875 -0.4953 -1.0386 -0.3914
   44MOL   C42222868   4.353   0.900   0.800  0.2459 -0.2707 -0.1173
   44MOL   C42322869   4.453   0.853   0.720 -0.6266 -0.1300 -0.5309
   44MOL   C42422870   4.578   0.918   0.726  0.4750  0.1522 -0.1894
   44MOL   C42522871   4.591   1.039   0.793 -0.0654 -0.0883 -0.3428
   44MOL   C42622872   4.484   1.095   0.867 -0.2968  0.4651  0.1611
   44MOL   C42722873   4.226   0.858   0.833  0.5117  0.3856  0.8809
   44MOL   C42822874   4.161   0.951   0.924 -0.5264  0.5742  0.5151
   44MOL   C42922875   4.033   0.921   0.974 -0.0386  0.1752  0.3734
   44MOL   C43022876   3.954   0.807   0.934  0.4677 -0.7890 -0.2686
   44MOL   C43122877   4.014   0.721   0.840 -0.1502 -0.2675 -0.4575
   44MOL   C43222878   4.148   0.748   0.785  0.0554 -0.7579 -0.0427
   44MOL   H43322879   4.335   1.085   1.185 -0.3011  0.7004 -2.0976
   44MOL   H43422880   4.168   1.031   1.186 -1.1288 -0.0227 -0.8746
   44MOL   H43522881   4.299   1.248   1.022  1.7877 -2.0161  2.3434
   44MOL   H43622882   4.442   0.754   0.679  0.2686 -1.3702  2.1215
   44MOL   H43722883   4.663   0.881   0.672  0.3010 -1.3178  0.5233
   44MOL   H43822884   4.682   1.097   0.783 -1.4853  2.6063  1.5015
   44MOL   H43922885   4.499   1.187   0.922  0.6278  0.2850  0.2134
   44MOL   H44022886   3.996   1.008   1.027 -0.3208  0.4040 -0.1955
   44MOL   H44122887   3.854   0.783   0.965 -0.1200  0.5611 -1.0644
   44MOL   H44222888   3.954   0.643   0.797 -2.3834  0.5456  1.0854
   44MOL   H44322889   4.179   0.686   0.702  0.5174 -0.7616  0.1347
   44MOL   C44422890   4.095   1.257   1.014  0.4335 -0.5803  0.5233
   44MOL   C44522891   4.120   1.396   0.955 -0.0295  0.5577 -0.8142
   44MOL   N44622892   4.196   1.394   0.836  0.2853 -0.2601  0.5339
   44MOL   C44722893   4.332   1.426   0.814 -0.0526  0.4468 -0.2386
   44MOL   C44822894   4.375   1.385   0.687  1.3808  0.5890  0.0903
   44MOL   C44922895   4.514   1.397   0.654  0.0600 -0.3444  0.1781
   44MOL   C45022896   4.603   1.459   0.741 -0.4921  0.0231  0.4207
   44MOL   C45122897   4.558   1.498   0.870  0.2314 -0.4015 -0.3577
   44MOL   C45222898   4.422   1.489   0.903 -0.6538 -0.1278 -0.2523
   44MOL   C45322899   4.257   1.349   0.616  0.1999 -0.0970  0.1687
   44MOL   C45422900   4.148   1.358   0.710  0.5770  0.7408 -0.9363
   44MOL   C45522901   4.012   1.337   0.664 -0.2487  0.4762  0.1191
   44MOL   C45622902   3.992   1.302   0.528 -0.1790 -0.1063 -0.5468
   44MOL   C45722903   4.098   1.297   0.438  0.3181 -0.3581  0.3814
   44MOL   C45822904   4.229   1.311   0.482 -0.2881  0.4674 -0.7046
   44MOL   H45922905   4.029   1.194   0.955  0.0257 -2.3775  2.8191
   44MOL   H46022906   4.041   1.273   1.107  0.3634 -1.7106  0.6921
   44MOL   H46122907   4.180   1.450   1.028  0.5854 -0.3393 -0.6591
   44MOL   H46222908   4.539   1.381   0.550  0.7857 -1.0040  0.4450
   44MOL   H46322909   4.700   1.486   0.700 -0.4452 -1.4584 -0.4555
   44MOL   H46422910   4.620   1.553   0.939 -0.5688 -0.3354  0.3060
   44MOL   H46522911   4.393   1.535   0.996 -1.5653  1.3502 -1.2588
   44MOL   H46622912   3.925   1.351   0.727 -1.6320 -2.1314 -1.1196
   44MOL   H46722913   3.898   1.282   0.478 -0.8170 -1.4050  1.1182
   44MOL   H46822914   4.083   1.274   0.334  1.1656 -0.6679  0.3302
   44MOL   H46922915   4.309   1.297   0.412  0.1077  0.1325 -0.1918
   44MOL   C47022916   3.998   1.495   0.952 -0.2670 -0.5908 -0.2264
   44MOL   C47122917   4.032   1.634   0.883 -0.0734  0.4359  0.5911
   44MOL   N47222918   3.912   1.672   0.807 -0.3747  0.0697  0.1671
   44MOL   C47322919   3.897   1.680   0.667 -1.3429 -0.2334  0.0167
   44MOL   C47422920   3.773   1.739   0.633  0.4702 -1.3068 -0.4116
   44MOL   C47522921   3.730   1.752   0.498 -0.7720  0.6029  0.0621
   44MOL   C47622922   3.806   1.706   0.392 -0.5031  0.6996 -0.1884
   44MOL   C47722923   3.936   1.657   0.426 -0.1325 -0.1072  0.7304
   44MOL   C47822924   3.982   1.644   0.561 -0.1379  0.5437  0.5466
   44MOL   C47922925   3.710   1.777   0.760  0.5559  0.5600  0.5692
   44MOL   C48022926   3.791   1.720   0.863 -0.6285 -0.1581  0.0430
   44MOL   C48122927   3.752   1.721   1.001  0.2827  0.4508 -0.1368
   44MOL   C48222928   3.634   1.782   1.039  0.5651  0.9900  0.0041
   44MOL   C48322929   3.551   1.849   0.949  0.3966 -0.5606  0.1354
   44MOL   C48422930   3.586   1.847   0.806 -0.2100  1.2976  0.1910
   44MOL   H48522931   3.918   1.437   0.907 -0.8913  1.2755 -1.5819
   44MOL   H48622932   3.965   1.513   1.054  0.5292 -3.7474  0.6368
   44MOL   H48722933   4.107   1.629   0.804 -1.6721  1.0663 -1.0068
   44MOL   H48822934   3.631   1.788   0.472 -0.5149  1.6400  0.4969
   44MOL   H48922935   3.764   1.695   0.293  1.3472  1.8948 -1.1227
   44MOL   H49022936   4.003   1.614   0.352 -0.2768 -0.4497  0.7986
   44MOL   H49122937   4.082   1.606   0.575 -0.4506 -1.4523 -2.2176
   44MOL   H49222938   3.828   1.684   1.068  0.9291  0.8988 -0.6108
   44MOL   H49322939   3.603   1.777   1.143 -1.5399 -2.0229 -0.6953
   44MOL   H49422940   3.458   1.890   0.985 -0.3127 -2.3701  0.4432
   44MOL   H49522941   3.525   1.896   0.732  0.7941  0.8622 -0.9461
   44MOL   C49622942   4.087   1.748   0.975  0.0743  0.5889  0.2395
   44MOL   C49722943   4.120   1.872   0.894  0.6267 -0.2239 -0.3861
   44MOL   N49822944   4.250   1.871   0.842  0.6537 -0.5040 -0.0884
   44MOL   C49922945   4.365   1.877   0.916  0.1901  0.1055  0.0689
   44MOL   C50022946   4.479   1.877   0.832 -0.0188 -0.4033 -0.7412
   44MOL   C50122947   4.608   1.887   0.888 -0.8364  0.4493  0.0765
   44MOL   C50222948   4.619   1.920   1.029  1.0181  0.2065 -0.1246
   44MOL   C50322949   4.504   1.921   1.111 -0.2616 -0.2551 -1.2409
   44MOL   C50422950   4.379   1.889   1.052  0.1360  0.0125  0.2034
   44MOL   C50522951   4.432   1.865   0.695 -0.0262  0.0261  0.2463
   44MOL   C50622952   4.289   1.872   0.710  0.6732 -0.1124 -0.5724
   44MOL   C50722953   4.211   1.875   0.594 -0.4359 -0.2452 -0.0822
   44MOL   C50822954   4.269   1.870   0.466 -0.2780 -0.6053 -0.0782
   44MOL   C50922955   4.409   1.859   0.458 -0.5553 -0.7660  0.3276
   44MOL   C51022956   4.490   1.859   0.567  0.1314  0.6541 -1.0634
   44MOL   H51122957   4.011   1.778   1.047  0.6557  0.0076  1.1064
   44MOL   H51222958   4.174   1.716   1.032  0.4802  0.5326 -0.4032
   44MOL   H51322959   4.111   1.956   0.962  2.2752  0.7692 -1.3599
   44MOL   H51422960   4.696   1.887   0.825 -0.9531 -0.3451 -0.0898
   44MOL   H51522961   4.714   1.943   1.073  0.8310  1.3661 -0.3094
   44MOL   H51622962   4.514   1.929   1.218  1.2579 -1.6915 -1.2483
   44MOL   H51722963   4.293   1.904   1.115 -0.9869  2.1434 -1.7668
   44MOL   H51822964   4.103   1.869   0.590 -0.3209 -1.8513 -1.2527
   44MOL   H51922965   4.203   1.869   0.380 -0.2435 -1.2131 -0.0975
   44MOL   H52022966   4.459   1.853   0.362  1.4354 -0.2321  1.3186
   44MOL   H52122967   4.595   1.835   0.561 -0.1479 -0.8919 -0.2439
   44MOL   H52222968   4.049   1.883   0.812  0.7148 -0.7390 -0.5355
   45MOL     C122969   4.956   1.986   0.705  0.5603 -0.2350  0.2343
   45MOL     C222970   4.949   1.855   0.618 -0.1438 -0.0214  0.5850
   45MOL     N322971   4.865   1.867   0.494 -0.3390 -0.8701  0.2243
   45MOL     C422972   4.810   1.752   0.438  1.2189  0.0285 -0.2500
   45MOL     C522973   4.736   1.788   0.316 -0.2577 -0.0685 -0.4275
   45MOL     C622974   4.662   1.692   0.247  0.6391  0.5321  0.0279
   45MOL     C722975   4.665   1.552   0.288  0.3188 -0.9779  0.0487
   45MOL     C822976   4.736   1.517   0.411 -0.4146  0.3267 -0.6300
   45MOL     C922977   4.808   1.620   0.483  0.0405 -0.2477  0.4062
   45MOL    C1022978   4.752   1.930   0.303 -1.4911 -0.4269  0.0702
   45MOL    C1122979   4.841   1.974   0.410  0.2294 -0.1123  0.5095
   45MOL    C1222980   4.870   2.116   0.423  0.3416  0.3135  0.3016
   45MOL    C1322981   4.825   2.203   0.330  0.1841 -1.2448  0.1899
   45MOL    C1422982   4.738   2.158   0.230 -0.1269  0.1033  0.5355
   45MOL    C1522983   4.705   2.022   0.209 -0.6177 -0.3283 -0.1143
   45MOL    H1622984   4.978   1.959   0.808 -2.0117  1.8465  1.3914
   45MOL    H1722985   4.858   2.034   0.699  0.3219 -0.5470  1.4429
   45MOL    H1822986   4.892   1.792   0.686 -1.2915  0.0763 -0.2607
   45MOL    H1922987   4.597   1.720   0.166  0.2389  1.0652  0.5380
   45MOL    H2022988   4.604   1.482   0.233 -0.6831 -0.0586 -0.0274
   45MOL    H2122989   4.735   1.416   0.449  1.5597  0.2464 -0.7436
   45MOL    H2222990   4.859   1.593   0.574  0.4363  0.5512  0.4249
   45MOL    H2322991   4.945   2.159   0.487  0.1402  0.9568  0.1057
   45MOL    H2422992   4.846   2.309   0.334 -0.4602 -0.9356 -3.1778
   45MOL    H2522993   4.699   2.230   0.161 -0.0657 -2.1310 -1.8892
   45MOL    H2622994   4.643   2.000   0.123  1.2727 -1.5107 -1.2171
   45MOL    H2722995   5.025   2.065   0.675  0.1969  1.3398  3.3269
   45MOL    C2822996   5.084   1.803   0.573 -0.3051  0.3517  0.1343
   45MOL    C2922997   5.163   1.737   0.678  0.2686 -0.2920  0.2391
   45MOL    N3022998   5.084   1.632   0.750  0.1317  0.8560  0.0437
   45MOL    C3122999   5.038   1.628   0.883  0.2003  0.0408 -0.4038
   45MOL    C3223000   4.965   1.510   0.894  0.9705 -0.5414 -0.5196
   45MOL    C3323001   4.907   1.488   1.022  0.2348 -0.1879 -0.6023
   45MOL    C3423002   4.923   1.578   1.130 -0.3300 -0.1631  0.5636
   45MOL    C3523003   4.996   1.695   1.110 -0.1672 -0.3290  0.3216
   45MOL    C3623004   5.061   1.719   0.987 -0.0261  0.3350 -0.2484
   45MOL    C3723005   4.970   1.437   0.773  0.0267 -0.1854 -0.0146
   45MOL    C3823006   5.050   1.513   0.687 -0.4127 -0.2627 -0.9477
   45MOL    C3923007   5.069   1.465   0.559 -0.2175 -0.6208 -0.0285
   45MOL    C4023008   5.017   1.343   0.512  0.3609  0.7127 -0.1517
   45MOL    C4123009   4.938   1.266   0.603  0.4745 -0.1214 -0.1638
   45MOL    C4223010   4.908   1.320   0.731 -0.7660 -0.6147 -0.2419
   45MOL    H4323011   5.071   1.732   0.491 -1.0320  1.0029 -0.3167
   45MOL    H4423012   5.131   1.890   0.529 -0.0171  0.2793  0.2933
   45MOL    H4523013   5.187   1.811   0.754 -0.7660 -0.8144  1.0839
   45MOL    H4623014   4.845   1.401   1.036 -0.7671  0.3869 -1.4162
   45MOL    H4723015   4.880   1.555   1.226 -0.7208  0.5253  0.5570
   45MOL    H4823016   5.001   1.763   1.194 -1.7813  0.2036 -0.0104
   45MOL    H4923017   5.128   1.802   0.971 -0.2989  0.6426  0.1826
   45MOL    H5023018   5.111   1.527   0.481 -0.9603 -0.4692 -0.3103
   45MOL    H5123019   5.040   1.312   0.412 -0.4276  0.1507 -0.1617
   45MOL    H5223020   4.883   1.182   0.562  1.4970 -1.9031  2.0520
   45MOL    H5323021   4.842   1.265   0.795 -2.5025 -1.0235 -2.3306
   45MOL    C5423022   5.303   1.687   0.642 -0.6629 -0.2162  0.4726
   45MOL    C5523023   5.418   1.788   0.631  0.3598 -0.0396 -0.0426
   45MOL    N5623024   5.437   1.877   0.751  0.4582  0.2053  0.5933
   45MOL    C5723025   5.399   2.012   0.755  0.6194 -0.6063 -0.0452
   45MOL    C5823026   5.425   2.062   0.890 -0.3657  0.1505  0.2571
   45MOL    C5923027   5.393   2.198   0.923 -0.6156 -0.3463  0.2730
   45MOL    C6023028   5.328   2.277   0.824  0.1262 -0.9565 -0.0839
   45MOL    C6123029   5.308   2.222   0.692 -0.8273 -0.3378 -0.9885
   45MOL    C6223030   5.339   2.087   0.659 -0.0573  0.5657 -0.2607
   45MOL    C6323031   5.478   1.952   0.968 -0.0106 -0.0669 -0.0693
   45MOL    C6423032   5.481   1.835   0.880 -0.4835  0.0694  0.3226
   45MOL    C6523033   5.526   1.710   0.938  0.8567 -0.2940 -0.0367
   45MOL    C6623034   5.558   1.702   1.077 -0.1049  0.6454 -0.1377
   45MOL    C6723035   5.541   1.812   1.164 -0.3654 -0.4715  0.0848
   45MOL    C6823036   5.509   1.936   1.101  0.2455  0.2755  0.2380
   45MOL    H6923037   5.323   1.621   0.726  0.3757  0.5783  0.8657
   45MOL    H7023038   5.299   1.618   0.557 -1.5288 -0.5614  0.7886
   45MOL    H7123039   5.388   1.849   0.546 -0.2705  0.5935  0.6274
   45MOL    H7223040   5.414   2.238   1.021 -2.3145  0.1233  0.4544
   45MOL    H7323041   5.305   2.379   0.848 -1.7525 -1.3321 -0.2469
   45MOL    H7423042   5.247   2.281   0.625 -3.6476 -0.6194  1.2286
   45MOL    H7523043   5.333   2.033   0.565 -0.0760 -2.5912  1.4744
   45MOL    H7623044   5.528   1.623   0.874 -1.4812  0.1520 -0.7543
   45MOL    H7723045   5.589   1.606   1.113  0.3062  1.7457  2.5295
   45MOL    H7823046   5.557   1.811   1.271  2.6360 -2.6474 -0.3304
   45MOL    H7923047   5.512   2.026   1.160  0.2962 -0.3120  1.1493
   45MOL    C8023048   5.559   1.720   0.594 -0.8142 -1.3329  0.6628
   45MOL    C8123049   5.563   1.640   0.465  0.6686  0.4772 -0.3890
   45MOL    N8223050   5.506   1.712   0.348  0.2824 -0.0695 -0.5174
   45MOL    C8323051   5.405   1.663   0.270  0.1716  0.9106  0.1456
   45MOL    C8423052   5.368   1.755   0.162 -0.5031  0.0764 -0.0516
   45MOL    C8523053   5.265   1.718   0.074  0.0323 -0.0781  0.8796
   45MOL    C8623054   5.196   1.594   0.090 -0.1008 -0.5281  0.5895
   45MOL    C8723055   5.219   1.515   0.195 -0.7040  0.2336  0.2175
   45MOL    C8823056   5.328   1.539   0.283 -0.0602  0.1645  0.3295
   45MOL    C8923057   5.459   1.866   0.173  0.9048  0.1538  0.1516
   45MOL    C9023058   5.540   1.835   0.287  0.0649 -0.0109  0.5199
   45MOL    C9123059   5.639   1.933   0.325 -0.3372 -0.2479 -0.8883
   45MOL    C9223060   5.659   2.055   0.255  0.5453  0.1697 -0.3404
   45MOL    C9323061   5.575   2.080   0.147  0.3709 -0.1056 -0.5127
   45MOL    C9423062   5.481   1.986   0.109 -0.2648 -0.0667  0.2507
   45MOL    H9523063   5.626   1.805   0.575  0.5641 -2.3334  0.9821
   45MOL    H9623064   5.590   1.666   0.683  1.4508  1.0515  1.4123
   45MOL    H9723065   5.492   1.563   0.494  1.1935  0.6409  1.4322
   45MOL    H9823066   5.242   1.782   8.218  1.3823 -0.6441  0.0765
   45MOL    H9923067   5.115   1.564   0.026 -0.8407  1.6168  0.4591
   45MOL   H10023068   5.161   1.425   0.210  0.4109 -0.7853 -1.4370
   45MOL   H10123069   5.337   1.471   0.367  2.0714  0.7425  0.6031
   45MOL   H10223070   5.701   1.906   0.410  0.3327 -0.0533 -1.3085
   45MOL   H10323071   5.738   2.120   0.289 -0.6689  1.1605  0.5844
   45MOL   H10423072   5.579   2.178   0.103 -0.8129  0.8072  1.3398
   45MOL   H10523073   5.424   2.010   0.021  1.1311 -1.2921 -1.0199
   45MOL   C10623074   5.702   1.582   0.438 -0.1150  0.2299 -0.6569
   45MOL   C10723075   5.772   1.501   0.553  0.3372 -0.1784  0.1519
   45MOL   N10823076   5.678   1.407   0.616  0.3180 -0.4704 -0.4146
   45MOL   C10923077   5.671   1.391   0.755 -0.0948  0.4570  0.0200
   45MOL   C11023078   5.560   1.302   0.790 -0.1245  0.4906  0.5177
   45MOL   C11123079   5.548   1.254   0.921  0.1009  0.0311 -0.2251
   45MOL   C11223080   5.642   1.297   1.017  0.3558 -0.5450 -0.5494
   45MOL   C11323081   5.731   1.399   0.984  0.2281  0.6699 -0.8037
   45MOL   C11423082   5.748   1.447   0.853  1.3655 -0.1306  0.1360
   45MOL   C11523083   5.499   1.269   0.666 -0.0400 -0.5003 -0.2526
   45MOL   C11623084   5.581   1.322   0.566 -0.0376 -0.0415  0.2308
   45MOL   C11723085   5.552   1.297   0.431 -0.5001 -0.6203 -0.1048
   45MOL   C11823086   5.437   1.222   0.389 -0.0501 -0.2951 -1.1697
   45MOL   C11923087   5.352   1.172   0.494 -0.1254  0.2627 -0.1413
   45MOL   C12023088   5.386   1.189   0.629  0.5289 -0.1388 -0.7159
   45MOL   H12123089   5.693   1.526   0.345 -0.1619  1.1475 -1.2092
   45MOL   H12223090   5.755   1.670   0.401 -0.9729  0.0671 -2.3055
   45MOL   H12323091   5.795   1.573   0.632  0.5544 -0.6942  0.5591
   45MOL   H12423092   5.469   1.186   0.949  0.3772 -1.0374 -1.9988
   45MOL   H12523093   5.644   1.261   1.119 -1.1142 -1.1280 -0.7265
   45MOL   H12623094   5.802   1.440   1.054 -2.1305  1.2661  1.3278
   45MOL   H12723095   5.832   1.509   0.826  0.1993  0.7044 -1.6609
   45MOL   H12823096   5.618   1.332   0.353 -0.1474 -0.6038  0.1984
   45MOL   H12923097   5.414   1.208   0.285 -0.6549 -0.6901 -0.9870
   45MOL   H13023098   5.261   1.124   0.461 -0.4234  1.5710 -1.2610
   45MOL   H13123099   5.327   1.161   0.715  1.2555 -1.3199 -0.5788
   45MOL   C13223100   5.903   1.430   0.515 -0.6809  0.4229  0.5805
   45MOL   C13323101   6.023   1.530   0.495 -0.0075 -0.5504  0.2283
   45MOL   N13423102   6.046   1.613   0.615  0.3305 -0.5575 -0.1116
   45MOL   C13523103   6.029   1.746   0.621  0.0595 -1.2702  0.5627
   45MOL   C13623104   6.060   1.788   0.751  0.2327 -1.1313  0.5079
   45MOL   C13723105   6.067   1.924   0.781 -0.0853  0.1712  0.2479
   45MOL   C13823106   6.033   2.020   0.687 -0.0445  0.3558  0.0641
   45MOL   C13923107   5.999   1.984   0.552 -0.3243  0.6303 -0.2298
   45MOL   C14023108   6.000   1.845   0.523 -0.1019 -0.9452 -0.5493
   45MOL   C14123109   6.094   1.676   0.833  0.0317  0.2028  0.1877
   45MOL   C14223110   6.094   1.566   0.740  0.2487 -0.1936  0.2303
   45MOL   C14323111   6.137   1.439   0.778  0.6796  0.4336  0.1289
   45MOL   C14423112   6.172   1.418   0.911 -0.2336 -1.0046  0.2763
   45MOL   C14523113   6.172   1.521   1.005  0.2585  0.2363 -0.4092
   45MOL   C14623114   6.122   1.645   0.967  0.1360  1.1197  0.5352
   45MOL   H14723115   5.928   1.357   0.592  0.7155  0.1588 -0.0998
   45MOL   H14823116   5.894   1.377   0.421  2.5804 -2.3703  1.7475
   45MOL   H14923117   5.982   1.596   0.419 -0.0441 -1.2120 -0.3328
   45MOL   H15023118   6.092   1.956   0.882 -2.2767 -0.2224  0.9445
   45MOL   H15123119   6.040   2.125   0.712  1.6097  0.7989 -2.0734
   45MOL   H15223120   5.981   2.057   0.475 -0.6136 -1.1226 -1.8683
   45MOL   H15323121   5.976   1.821   0.421 -1.6063 -3.0832  0.2608
   45MOL   H15423122   6.142   1.350   0.718  0.5949  0.1222  0.5757
   45MOL   H15523123   6.195   1.316   0.936 -0.8577 -1.3762 -0.5966
   45MOL   H15623124   6.215   1.500   1.102  1.2880  0.2168 -0.8647
   45MOL   H15723125   6.114   1.724   1.040  3.0074  1.7905  0.1969
   45MOL   C15823126   6.153   1.469   0.443  0.0232 -0.8347 -0.0760
   45MOL   C15923127   6.155   1.389   0.311 -0.6158 -0.1221  0.0422
   45MOL   N16023128   6.059   1.440   0.213 -0.0846 -0.1057 -0.4146
   45MOL   C16123129   5.935   1.379   0.173  0.0970  0.0604 -0.1539
   45MOL   C16223130   5.874   1.464   0.078 -0.3705 -0.2487  0.2107
   45MOL   C16323131   5.744   1.432   0.036  0.3132 -0.0707  0.3338
   45MOL   C16423132   5.683   1.319   0.071 -0.0668  0.5115 -0.6609
   45MOL   C16523133   5.745   1.227   0.153 -0.3099 -0.4528  0.1180
   45MOL   C16623134   5.880   1.253   0.199 -0.4497 -0.2864  0.2395
   45MOL   C16723135   5.958   1.581   0.062 -0.4421 -0.4413 -0.3519
   45MOL   C16823136   6.065   1.566   0.152  0.9988 -0.2612  0.0092
   45MOL   C16923137   6.160   1.668   0.170  0.4503  0.5294  0.2284
   45MOL   C17023138   6.150   1.791   0.099  0.1799  0.0331 -0.2376
   45MOL   C17123139   6.043   1.811   0.004 -0.3528  0.8392 -0.7923
   45MOL   C17223140   5.956   1.703   8.216  0.2143  0.2881  0.1777
   45MOL   H17323141   6.228   1.549   0.447  1.0924 -1.8434  0.2578
   45MOL   H17423142   6.188   1.404   0.523 -1.7581 -1.2706  0.3740
   45MOL   H17523143   6.121   1.291   0.343  0.4071  0.5113  3.2217
   45MOL   H17623144   5.694   1.496   8.192 -0.0858  0.5066  1.1257
   45MOL   H17723145   5.586   1.293   0.031 -0.9579  1.2103  0.9871
   45MOL   H17823146   5.699   1.132   0.174  0.4074 -0.4600  1.7405
   45MOL   H17923147   5.930   1.179   0.259 -1.9210 -1.4302  0.0830
   45MOL   H18023148   6.241   1.646   0.239  0.0458  1.3508  0.9693
   45MOL   H18123149   6.218   1.873   0.114  1.7775 -1.6120  1.8298
   45MOL   H18223150   6.037   1.904   8.177 -0.3675  1.3141  0.0306
   45MOL   H18323151   5.876   1.716   8.145 -0.8407  2.2895  1.6871
   45MOL   C18423152   6.295   1.360   0.241  0.3853 -0.4081 -0.1652
   45MOL   C18523153   6.416   1.335   0.334  0.1873 -0.3005  0.5684
   45MOL   N18623154   6.412   1.199   0.385  0.2386  0.1865  0.6767
   45MOL   C18723155   6.417   1.167   0.521  0.2023  1.0473  0.2096
   45MOL   C18823156   6.397   1.029   0.532  0.5751  0.3733  0.7342
   45MOL   C18923157   6.384   0.973   0.660  0.7198  0.1996 -0.2007
   45MOL   C19023158   6.379   1.051   0.770  0.2354 -0.0727 -1.1721
   45MOL   C19123159   6.402   1.191   0.758  0.0283  0.2338 -0.0703
   45MOL   C19223160   6.422   1.251   0.636 -0.5687 -0.2959  0.3455
   45MOL   C19323161   6.412   0.967   0.402 -0.1591 -0.1492  0.3963
   45MOL   C19423162   6.424   1.078   0.313 -0.1527  0.3165 -0.3742
   45MOL   C19523163   6.445   1.056   0.172 -0.4470 -0.0566 -0.2078
   45MOL   C19623164   6.461   0.922   0.124 -0.4637  0.5816  0.2377
   45MOL   C19723165   6.444   0.814   0.211  0.3644  0.3995 -0.0552
   45MOL   C19823166   6.430   0.836   0.351 -0.2322 -0.8592 -0.6583
   45MOL   H19923167   6.283   1.271   0.179  0.7515 -1.6757  1.5625
   45MOL   H20023168   6.323   1.438   0.171 -1.2562 -1.9591 -2.6425
   45MOL   H20123169   6.395   1.402   0.417 -1.1083 -0.8170  0.6681
   45MOL   H20223170   6.365   0.867   0.672 -0.3390  0.3581 -0.4050
   45MOL   H20323171   6.352   1.000   0.861 -1.1280  1.5090 -0.6556
   45MOL   H20423172   6.406   1.257   0.844  1.5281  0.5392 -0.3479
   45MOL   H20523173   6.438   1.358   0.631  1.6193 -0.5412  1.4037
   45MOL   H20623174   6.463   1.145   0.114  0.5885 -0.3781 -0.3839
   45MOL   H20723175   6.474   0.903   0.018  0.6593  0.7432  0.3376
   45MOL   H20823176   6.457   0.709   0.188 -2.9891 -0.1891  0.3731
   45MOL   H20923177   6.428   0.755   0.423  0.2155 -0.0755  0.2568
   45MOL   C21023178   6.552   1.365   0.275  0.1430 -0.3428 -0.3458
   45MOL   C21123179   6.598   1.510   0.278  0.5075  0.0209  0.2574
   45MOL   N21223180   6.596   1.564   0.416 -0.2126 -0.2080  0.4882
   45MOL   C21323181   6.514   1.676   0.458  0.3046 -0.1100 -0.0618
   45MOL   C21423182   6.521   1.684   0.596 -0.4996 -0.7484  0.3258
   45MOL   C21523183   6.441   1.776   0.664  0.6904 -0.4550  0.4874
   45MOL   C21623184   6.368   1.870   0.589  0.2918  0.3934 -1.0885
   45MOL   C21723185   6.366   1.872   0.447  0.5358 -0.6048 -0.3981
   45MOL   C21823186   6.437   1.770   0.381 -0.0157  0.0739  0.0730
   45MOL   C21923187   6.615   1.585   0.645  0.1705 -0.1101 -0.5603
   45MOL   C22023188   6.666   1.520   0.528  0.3805  0.2436  0.7287
   45MOL   C22123189   6.762   1.419   0.548 -0.7507  0.1245 -0.0358
   45MOL   C22223190   6.791   1.366   0.677  0.3780  0.3046 -0.0191
   45MOL   C22323191   6.737   1.426   0.789  0.7637  0.4207  0.0769
   45MOL   C22423192   6.651   1.538   0.777  0.5116 -0.2517 -0.2722
   45MOL   H22523193   6.624   1.314   0.340 -0.0552 -0.4453 -0.2067
   45MOL   H22623194   6.561   1.340   0.169  0.3553 -2.0590  0.0556
   45MOL   H22723195   6.527   1.561   0.213  1.9963 -3.5630 -4.4827
   45MOL   H22823196   6.445   1.778   0.771  0.9668 -0.5734  0.4781
   45MOL   H22923197   6.310   1.949   0.635 -1.8811 -2.1836  0.7853
   45MOL   H23023198   6.314   1.945   0.387 -0.0683  0.2959  1.1756
   45MOL   H23123199   6.430   1.759   0.274  0.1763  0.2848  0.0394
   45MOL   H23223200   6.825   1.380   0.469  1.7006  1.9025  0.9850
   45MOL   H23323201   6.868   1.291   0.683 -0.4295 -0.6790 -1.6390
   45MOL   H23423202   6.760   1.386   0.887  1.4958  0.3208 -0.1351
   45MOL   H23523203   6.601   1.583   0.861  0.6264  3.0559 -1.9148
   45MOL   C23623204   6.732   1.531   0.205  0.1535  0.1472 -0.1275
   45MOL   C23723205   6.748   1.488   0.052  0.0030  0.2518 -0.0053
   45MOL   N23823206   6.624   1.521   8.206 -0.3688 -0.2342 -0.2092
   45MOL   C23923207   6.534   1.430   8.140 -0.0697  0.5552  0.1412
   45MOL   C24023208   6.424   1.502   8.080 -0.8080 -0.2907  0.0596
   45MOL   C24123209   6.321   1.427   8.014 -0.3234 -0.3354  0.1223
   45MOL   C24223210   6.338   1.287   7.995  0.6030  0.1604  0.0771
   45MOL   C24323211   6.443   1.222   8.057  0.4225  0.4614  0.3470
   45MOL   C24423212   6.546   1.290   8.121  1.4311  0.0361 -0.5280
   45MOL   C24523213   6.459   1.640   8.094 -0.0804 -0.3265 -0.4556
   45MOL   C24623214   6.573   1.647   8.186  0.7366  1.0884 -0.5405
   45MOL   C24723215   6.627   1.777   8.215 -0.1649 -0.0078  0.2510
   45MOL   C24823216   6.554   1.890   8.173 -0.1549  0.0770 -0.1443
   45MOL   C24923217   6.447   1.882   8.082 -0.1648  0.0807  0.0056
   45MOL   C25023218   6.404   1.757   8.037 -0.6384  0.0466  0.5963
   45MOL   H25123219   6.752   1.638   0.210 -1.3760  0.4328  0.2219
   45MOL   H25223220   6.808   1.477   0.262  0.5600 -0.5219 -1.2898
   45MOL   H25323221   6.744   1.379   0.046  1.6752  0.1289  1.0135
   45MOL   H25423222   6.242   1.485   7.969 -0.7065 -0.1746  0.9834
   45MOL   H25523223   6.260   1.231   7.945 -1.4513  1.5382  1.6689
   45MOL   H25623224   6.452   1.115   8.040 -0.1654  0.4908 -0.1751
   45MOL   H25723225   6.626   1.232   8.165 -0.4107 -2.2758 -0.1592
   45MOL   H25823226   6.714   1.785   0.051 -0.4032 -0.7311  0.6699
   45MOL   H25923227   6.579   1.986   8.216 -1.0051  1.2444 -2.1743
   45MOL   H26023228   6.401   1.968   8.037  0.5369  0.6861  0.4294
   45MOL   H26123229   6.330   1.758   7.958 -1.0896 -1.8736  0.9624
   45MOL   C26223230   6.874   1.529   8.203  0.7310 -0.7276 -0.1040
   45MOL   C26323231   7.001   1.483   0.043  0.4304 -0.7535  0.3639
   45MOL   N26423232   7.025   1.334   0.052  0.1381 -0.4638  0.3326
   45MOL   C26523233   7.040   1.261   0.170 -0.7590  0.1827  0.1972
   45MOL   C26623234   7.065   1.127   0.139  0.2981 -1.1327 -0.0107
   45MOL   C26723235   7.080   1.037   0.247 -0.0460  0.0121  0.4815
   45MOL   C26823236   7.077   1.079   0.383 -0.1772  0.4915  0.5029
   45MOL   C26923237   7.056   1.213   0.410  0.7642 -0.4431 -0.3567
   45MOL   C27023238   7.039   1.305   0.304  0.1383  0.0612  0.1702
   45MOL   C27123239   7.057   1.108   8.225  0.0487 -0.5276 -0.1095
   45MOL   C27223240   7.043   1.243   8.173  0.0845  0.3994 -0.4317
   45MOL   C27323241   7.051   1.264   8.037 -0.0317 -0.6534  0.1773
   45MOL   C27423242   7.063   1.159   7.945  0.7694 -0.5159  0.2463
   45MOL   C27523243   7.074   1.026   7.993  0.0510 -0.1120 -0.3389
   45MOL   C27623244   7.074   1.005   8.131 -0.0475  0.2780 -0.5921
   45MOL   H27723245   6.871   1.483   8.104  0.0822  0.8771 -0.8309
   45MOL   H27823246   6.875   1.636   8.182 -0.4790 -0.6041  0.4262
   45MOL   H27923247   6.995   1.525   0.144  0.2279  0.9584 -0.3440
   45MOL   H28023248   7.106   0.935   0.220 -0.3035 -0.0597  0.5002
   45MOL   H28123249   7.088   1.015   0.469  1.1268  0.5560  0.3853
   45MOL   H28223250   7.065   1.253   0.510  2.6364 -0.2712 -0.5683
   45MOL   H28323251   7.022   1.410   0.320  2.5041  0.2589  1.5846
   45MOL   H28423252   7.039   1.363   7.995 -1.3679 -0.5873  0.6935
   45MOL   H28523253   7.074   1.186   7.842 -0.9509  1.3384  0.5271
   45MOL   H28623254   7.083   0.946   7.921  1.5944 -1.1320  0.9777
   45MOL   H28723255   7.095   0.904   8.161  0.3119 -0.0210 -1.8143
   45MOL   C28823256   7.131   1.542   8.201 -0.2537  0.4302  0.0076
   45MOL   C28923257   7.155   1.686   0.015  0.1321  0.3603  0.5184
   45MOL   N29023258   7.170   1.692   0.160 -0.1600 -0.3513  0.5951
   45MOL   C29123259   7.080   1.752   0.250 -0.1972 -0.1115 -0.0631
   45MOL   C29223260   7.118   1.712   0.383  0.7191  0.5342  0.1380
   45MOL   C29323261   7.034   1.745   0.495 -0.1832  0.5350  0.4297
   45MOL   C29423262   6.914   1.819   0.468 -0.0910  0.5563 -0.0581
   45MOL   C29523263   6.872   1.853   0.333 -0.3348  0.0385  0.2239
   45MOL   C29623264   6.963   1.829   0.227 -0.2463 -0.2405  0.0181
   45MOL   C29723265   7.237   1.632   0.370 -0.0188 -0.1297 -0.8398
   45MOL   C29823266   7.274   1.636   0.231 -0.3217  0.4076 -1.1924
   45MOL   C29923267   7.400   1.576   0.193 -0.2883  0.3601  0.0512
   45MOL   C30023268   7.488   1.522   0.284 -0.5624 -0.2691 -0.1346
   45MOL   C30123269   7.447   1.508   0.416  0.4423  0.0764  0.3311
   45MOL   C30223270   7.323   1.561   0.455  0.4672 -0.4189 -0.4246
   45MOL   H30323271   7.220   1.483   8.221 -2.3325 -2.5722  0.9314
   45MOL   H30423272   7.120   1.532   8.093  0.8935  1.1064 -0.1706
   45MOL   H30523273   7.063   1.740   8.220 -0.8311 -0.6711  1.8148
   45MOL   H30623274   7.060   1.703   0.591  2.8503  1.2903 -0.0055
   45MOL   H30723275   6.845   1.829   0.550 -2.2546 -0.3083 -1.7203
   45MOL   H30823276   6.781   1.911   0.326  1.2305  2.6011  0.1706
   45MOL   H30923277   6.938   1.852   0.124  0.3279  1.1998  0.1833
   45MOL   H31023278   7.423   1.582   0.087 -0.4103  0.2012  0.0153
   45MOL   H31123279   7.582   1.484   0.247 -0.7634 -0.3994 -0.5058
   45MOL   H31223280   7.508   1.452   0.486 -0.5076 -0.6007  0.6233
   45MOL   H31323281   7.286   1.551   0.556 -0.5306  1.7881 -0.5407
   45MOL   C31423282   7.256   1.763   8.159 -0.0180 -0.7377 -0.1387
   45MOL   C31523283   7.213   1.848   8.036 -0.5513  0.7406  0.3079
   45MOL   N31623284   7.156   1.979   8.076 -0.3684 -0.3872 -0.1889
   45MOL   C31723285   7.021   2.008   8.068  0.2895 -0.4887  0.2311
   45MOL   C31823286   7.019   2.148   8.093 -0.1565  0.7090 -0.1042
   45MOL   C31923287   6.896   2.210   8.089 -1.0239 -0.7996  0.0097
   45MOL   C32023288   6.779   2.137   8.049 -0.3975 -0.6631  0.2526
   45MOL   C32123289   6.791   2.004   8.012 -0.4556  0.4783  0.0983
   45MOL   C32223290   6.909   1.933   8.023 -0.0356 -0.1643 -0.4943
   45MOL   C32323291   7.149   2.201   8.128 -0.3462  0.2722 -0.5643
   45MOL   C32423292   7.232   2.087   8.125 -0.3924  0.0927  0.3753
   45MOL   C32523293   7.368   2.096   8.158  0.1380 -0.3216  0.1437
   45MOL   C32623294   7.422   2.221   8.200 -0.3302  0.2171 -0.6901
   45MOL   C32723295   7.337   2.333   8.211 -0.3510  0.1546  0.1624
   45MOL   C32823296   7.205   2.324   8.171  0.1698  0.1958 -0.1883
   45MOL   H32923297   7.303   1.843   8.216  1.1557 -1.6111  0.1333
   45MOL   H33023298   7.341   1.697   8.140  0.9473  0.7188 -0.9479
   45MOL   H33123299   7.132   1.799   7.983  0.4494 -0.0278 -0.5367
   45MOL   H33223300   6.877   2.310   8.123  0.0981 -0.1871 -1.1469
   45MOL   H33323301   6.682   2.184   8.055  0.7638  1.9295 -0.4007
   45MOL   H33423302   6.705   1.947   7.980  0.8846 -0.1556 -2.4631
   45MOL   H33523303   6.918   1.834   7.981 -1.7530 -0.0953 -1.0916
   45MOL   H33623304   7.429   2.007   8.154 -1.5837 -1.5978  1.4353
   45MOL   H33723305   7.529   2.233   8.208 -0.3856 -0.0548  0.6686
   45MOL   H33823306   7.380   2.423   0.026 -0.2283 -0.2902  0.9980
   45MOL   H33923307   7.145   2.414   8.180 -1.3140 -0.6559 -1.2427
   45MOL   C34023308   7.305   1.860   7.914 -0.3289 -0.3825 -0.4912
   45MOL   C34123309   7.233   1.905   7.783  0.6150 -0.5622  0.4681
   45MOL   N34223310   7.302   2.009   7.702  0.1291 -0.4358  0.1814
   45MOL   C34323311   7.259   2.142   7.685 -0.2585  0.4077 -0.4344
   45MOL   C34423312   7.345   2.205   7.590 -1.0222  0.0190  0.5707
   45MOL   C34523313   7.319   2.341   7.559  1.0813  0.7342  0.7676
   45MOL   C34623314   7.218   2.413   7.622  0.0239  1.2882  0.2623
   45MOL   C34723315   7.127   2.344   7.708  0.1215 -0.1486  0.3165
   45MOL   C34823316   7.158   2.216   7.752  0.4598 -0.0410  0.3357
   45MOL   C34923317   7.448   2.112   7.555 -0.4866  0.5035  0.0517
   45MOL   C35023318   7.416   1.993   7.625  0.3222 -0.1993 -0.2810
   45MOL   C35123319   7.505   1.887   7.622  0.6412 -0.5241 -0.3117
   45MOL   C35223320   7.616   1.886   7.534 -0.3943  0.0107  0.0070
   45MOL   C35323321   7.648   1.999   7.464  0.4943 -0.4270  0.2094
   45MOL   C35423322   7.562   2.115   7.473  0.8530  0.4590  0.0795
   45MOL   H35523323   7.391   1.926   7.920  2.1050 -3.4339 -0.3373
   45MOL   H35623324   7.366   1.771   7.899  0.8042  0.1304  0.9799
   45MOL   H35723325   7.137   1.952   7.806 -0.2355 -0.2838 -3.3717
   45MOL   H35823326   7.392   2.391   7.497 -0.3983  0.7762 -0.9828
   45MOL   H35923327   7.206   2.518   7.598 -2.5366  1.0706  0.5395
   45MOL   H36023328   7.057   2.398   7.769  0.1734 -0.7000  0.8705
   45MOL   H36123329   7.089   2.164   7.816  1.3633 -2.2724 -0.4435
   45MOL   H36223330   7.483   1.800   7.682 -0.8872  0.4796  0.6108
   45MOL   H36323331   7.678   1.798   7.532 -0.3111  0.0254  1.3743
   45MOL   H36423332   7.738   1.993   7.406  1.1881  0.7778  1.1311
   45MOL   H36523333   7.579   2.210   7.423 -1.8856  0.9456 -0.0231
   45MOL   C36623334   7.188   1.784   7.701 -0.3296 -0.3340  0.2125
   45MOL   C36723335   7.059   1.806   7.618 -0.1500  0.5167 -0.3595
   45MOL   N36823336   7.062   1.714   7.508  0.3680 -0.4638  0.0286
   45MOL   C36923337   7.094   1.759   7.376 -0.6646  0.9715 -0.5135
   45MOL   C37023338   7.107   1.641   7.293 -0.8727 -0.3055  0.1639
   45MOL   C37123339   7.138   1.656   7.156  0.2408 -0.7660  0.2796
   45MOL   C37223340   7.155   1.782   7.099  0.0322 -0.0616  0.2059
   45MOL   C37323341   7.153   1.896   7.181 -0.0896 -0.5462  0.0777
   45MOL   C37423342   7.120   1.886   7.317  0.7197 -0.6263  0.7917
   45MOL   C37523343   7.072   1.528   7.376  0.4717 -0.5104  0.7345
   45MOL   C37623344   7.055   1.572   7.506  0.1420  0.1216 -0.3070
   45MOL   C37723345   7.024   1.479   7.604  0.2999  0.1866  0.3868
   45MOL   C37823346   7.008   1.345   7.570 -0.7041 -0.3094 -0.1406
   45MOL   C37923347   7.028   1.299   7.442  0.5134 -0.6729 -0.2768
   45MOL   C38023348   7.052   1.390   7.341  0.2532  0.4339  0.2124
   45MOL   H38123349   7.274   1.754   7.641  0.4798  0.3395  1.0226
   45MOL   H38223350   7.162   1.695   7.758 -0.8507  0.0940  0.6423
   45MOL   H38323351   7.081   1.903   7.573 -0.0548 -0.1413 -1.7525
   45MOL   H38423352   7.135   1.575   7.083  1.3729  2.6125 -3.7103
   45MOL   H38523353   7.171   1.790   6.992  2.7511  0.1906  0.6015
   45MOL   H38623354   7.157   1.998   7.143 -0.6944 -0.7180 -0.4434
   45MOL   H38723355   7.114   1.977   7.376  0.9231 -0.5436  0.6880
   45MOL   H38823356   7.018   1.518   7.704  4.7719 -0.6066  1.0756
   45MOL   H38923357   6.975   1.281   7.651 -0.8517  0.2822  0.2695
   45MOL   H39023358   7.011   1.195   7.419  0.0766 -0.5367 -0.5771
   45MOL   H39123359   7.082   1.349   7.246 -0.7773 -2.3153  1.0301
   45MOL   C39223360   6.920   1.814   7.694 -0.1685 -0.1258  0.3085
   45MOL   C39323361   6.792   1.842   7.606 -0.9997 -0.0769 -0.0532
   45MOL   N39423362   6.733   1.725   7.543  0.0594  0.1970  0.2000
   45MOL   C39523363   6.713   1.710   7.406  0.9757  0.6244 -0.2785
   45MOL   C39623364   6.668   1.578   7.383  0.1962  0.2265  0.2452
   45MOL   C39723365   6.635   1.534   7.256 -0.6465 -0.0395  0.8804
   45MOL   C39823366   6.656   1.617   7.147  0.5534 -1.5749  0.2282
   45MOL   C39923367   6.712   1.747   7.166 -0.1004 -0.9374  0.3423
   45MOL   C40023368   6.740   1.796   7.293 -0.2769 -0.1401 -0.1665
   45MOL   C40123369   6.647   1.515   7.510 -0.1510 -0.4779  0.2258
   45MOL   C40223370   6.694   1.609   7.613  0.1920 -0.4981  1.3121
   45MOL   C40323371   6.693   1.566   7.747 -0.5050 -0.2075 -0.3091
   45MOL   C40423372   6.657   1.438   7.785  0.2234 -0.2449  0.2405
   45MOL   C40523373   6.603   1.350   7.690  0.4617  1.0290  0.2178
   45MOL   C40623374   6.613   1.387   7.555  0.4701  0.3332  0.7592
   45MOL   H40723375   6.915   1.716   7.741 -0.5686 -0.9295 -1.3621
   45MOL   H40823376   6.932   1.898   7.762  1.3392  0.0276 -0.1089
   45MOL   H40923377   6.821   1.916   7.531 -0.3253  0.6280  0.8876
   45MOL   H41023378   6.590   1.439   7.234 -1.6456  0.4866  0.6410
   45MOL   H41123379   6.623   1.590   7.048  1.7608  1.3286 -1.0044
   45MOL   H41223380   6.732   1.811   7.082  2.7723 -0.7535  1.1066
   45MOL   H41323381   6.787   1.892   7.303 -1.0008  0.1942  0.0012
   45MOL   H41423382   6.727   1.624   7.832  0.8367 -1.2198 -0.1315
   45MOL   H41523383   6.674   1.402   7.885  4.0344 -2.1563 -1.0254
   45MOL   H41623384   6.574   1.250   7.719 -1.5622  1.1945 -1.1408
   45MOL   H41723385   6.581   1.316   7.480 -1.8583  1.5689  0.5290
   45MOL   C41823386   6.681   1.917   7.675  0.8023 -0.4959 -0.0801
   45MOL   C41923387   6.554   1.958   7.601 -0.7399 -0.6079 -0.1775
   45MOL   N42023388   6.452   2.014   7.691  0.5386 -0.0228  0.5001
   45MOL   C42123389   6.332   1.945   7.728 -0.2816  0.0397 -0.0467
   45MOL   C42223390   6.255   2.024   7.806  0.5196  0.4684 -0.6200
   45MOL   C42323391   6.129   1.977   7.848 -0.1333  0.2926  0.1608
   45MOL   C42423392   6.079   1.852   7.813 -0.1806  0.4405  0.0769
   45MOL   C42523393   6.160   1.761   7.735  0.2518 -0.6173  0.3325
   45MOL   C42623394   6.291   1.806   7.698  0.6242 -0.3389 -0.0384
   45MOL   C42723395   6.327   2.148   7.824  0.9063  0.4130 -0.1207
   45MOL   C42823396   6.448   2.138   7.755  0.0220 -0.1801  0.3159
   45MOL   C42923397   6.537   2.252   7.744 -0.0265 -0.4192  0.2690
   45MOL   C43023398   6.504   2.370   7.805 -0.5906 -0.1565 -0.9400
   45MOL   C43123399   6.384   2.381   7.872 -0.2396 -0.3871 -0.1516
   45MOL   C43223400   6.298   2.272   7.880 -0.4736  0.1621  0.2288
   45MOL   H43323401   6.634   1.852   7.749  2.2015  0.3368  1.5846
   45MOL   H43423402   6.718   2.003   7.732  0.7563  0.3120 -1.2343
   45MOL   H43523403   6.499   1.870   7.567  1.3137 -1.8408 -0.4090
   45MOL   H43623404   6.066   2.030   7.917  2.3513  1.7134  1.4011
   45MOL   H43723405   5.986   1.819   7.857  0.0131 -1.0859 -0.6511
   45MOL   H43823406   6.126   1.661   7.713 -1.4639 -0.1779  0.8785
   45MOL   H43923407   6.357   1.732   7.655  0.7212  0.2576 -0.9355
   45MOL   H44023408   6.624   2.230   7.685  0.1128 -1.0151  0.6882
   45MOL   H44123409   6.563   2.459   7.789 -0.7658 -0.0992 -1.2696
   45MOL   H44223410   6.369   2.478   7.916  1.1894  0.5694 -1.7606
   45MOL   H44323411   6.208   2.282   7.939 -0.6483  3.4815 -0.5060
   45MOL   C44423412   6.581   2.055   7.481  0.0962 -0.2801  0.0030
   45MOL   C44523413   6.456   2.135   7.422  0.3798 -0.6831  0.4226
   45MOL   N44623414   6.509   2.231   7.325  0.0470 -0.2926  0.4359
   45MOL   C44723415   6.521   2.371   7.343 -0.2552 -0.0519 -0.0110
   45MOL   C44823416   6.582   2.429   7.227  0.6658 -0.3323  0.5005
   45MOL   C44923417   6.606   2.569   7.232  0.1623 -0.6514  0.1244
   45MOL   C45023418   6.573   2.649   7.342  0.0642 -0.6792 -1.3547
   45MOL   C45123419   6.523   2.582   7.457 -0.2592  0.1947  0.0133
   45MOL   C45223420   6.502   2.445   7.456  0.3331 -0.2701  0.1142
   45MOL   C45323421   6.608   2.322   7.138 -0.0542  0.1885  0.5051
   45MOL   C45423422   6.561   2.199   7.196 -0.2276  0.6233 -0.1175
   45MOL   C45523423   6.579   2.078   7.127 -1.0325  0.3305  0.2290
   45MOL   C45623424   6.635   2.071   6.998 -0.0283  0.4475 -0.3361
   45MOL   C45723425   6.674   2.187   6.938 -0.8995 -0.3702  0.1139
   45MOL   C45823426   6.671   2.309   7.012  0.0666 -0.0450  0.2376
   45MOL   H45923427   6.654   2.124   7.523 -1.7214  1.4624  0.3162
   45MOL   H46023428   6.630   1.996   7.403  1.0562 -1.1288  1.2168
   45MOL   H46123429   6.409   2.196   7.498  0.3228  1.6156 -1.3948
   45MOL   H46223430   6.654   2.618   7.148 -0.9407  0.5245  0.1605
   45MOL   H46323431   6.580   2.756   7.360 -1.8028 -0.8314  0.5638
   45MOL   H46423432   6.500   2.646   7.540 -0.8700  0.2280 -0.1763
   45MOL   H46523433   6.464   2.399   7.546 -1.4259  1.1529  0.1344
   45MOL   H46623434   6.550   1.982   7.166  0.9148  0.0091  0.9387
   45MOL   H46723435   6.650   1.977   6.947 -3.5543 -0.7234  0.6276
   45MOL   H46823436   6.731   2.188   6.846 -1.1517 -0.2210 -0.0425
   45MOL   H46923437   6.723   2.391   6.964 -1.6633  0.1295 -1.4121
   45MOL   C47023438   6.342   2.050   7.355 -0.2726 -0.0154  0.0411
   45MOL   C47123439   6.235   2.120   7.275  0.1552  0.3082  0.6239
   45MOL   N47223440   6.168   2.023   7.189 -0.4458  0.1584  0.5713
   45MOL   C47323441   6.159   2.014   7.051 -0.5288  0.2577 -0.5776
   45MOL   C47423442   6.099   1.891   7.014 -0.1432 -0.5513 -0.1125
   45MOL   C47523443   6.098   1.859   6.873 -0.3200 -0.2392  0.0659
   45MOL   C47623444   6.144   1.947   6.774 -0.3186 -0.4455 -0.7169
   45MOL   C47723445   6.190   2.077   6.817 -0.1317 -0.3905  0.7532
   45MOL   C47823446   6.198   2.103   6.950 -0.4057  0.4168  0.2658
   45MOL   C47923447   6.043   1.834   7.137 -0.3952  0.3063 -1.1006
   45MOL   C48023448   6.092   1.917   7.244  0.1778  0.4119 -0.6250
   45MOL   C48123449   6.056   1.880   7.376 -0.9205 -0.1014 -0.1647
   45MOL   C48223450   5.976   1.771   7.403 -0.0943 -0.0424 -0.1879
   45MOL   C48323451   5.931   1.691   7.299 -0.8514  0.4384  0.4098
   45MOL   C48423452   5.962   1.721   7.170  0.0668 -0.0801  0.5922
   45MOL   H48523453   6.387   1.972   7.293  0.9270  1.0411 -0.4384
   45MOL   H48623454   6.298   1.996   7.439  0.7115 -2.4544 -0.9356
   45MOL   H48723455   6.287   2.188   7.208  1.4606 -0.2450  1.0687
   45MOL   H48823456   6.041   1.769   6.854 -1.2986 -0.1098  2.2089
   45MOL   H48923457   6.144   1.918   6.670  0.0164 -2.3799 -0.1981
   45MOL   H49023458   6.212   2.152   6.742 -1.2296 -1.9937 -1.2297
   45MOL   H49123459   6.233   2.202   6.976  0.4768  0.6434 -1.7053
   45MOL   H49223460   6.087   1.945   7.456 -0.5276 -0.3819 -0.0868
   45MOL   H49323461   5.947   1.751   7.505 -1.9843 -0.0910 -0.7153
   45MOL   H49423462   5.865   1.609   7.324  2.3876 -2.6430 -0.7597
   45MOL   H49523463   5.927   1.657   7.091  0.4301 -0.6994  0.9341
   45MOL   C49623464   6.143   2.202   7.372 -0.1355  0.0154 -0.3278
   45MOL   C49723465   6.049   2.301   7.291  0.1257 -0.1530 -0.7276
   45MOL   N49823466   5.981   2.403   7.373 -0.0499  0.3707 -0.3249
   45MOL   C49923467   5.861   2.379   7.444  0.0901 -0.0038  0.5051
   45MOL   C50023468   5.827   2.499   7.519  0.3364 -0.2246  0.5046
   45MOL   C50123469   5.715   2.490   7.605 -0.1901  0.3253  0.4661
   45MOL   C50223470   5.637   2.375   7.617 -0.1316 -0.0561  0.2497
   45MOL   C50323471   5.664   2.262   7.532  0.4577 -0.4845  0.3553
   45MOL   C50423472   5.782   2.260   7.454  0.0511 -0.8001  0.9248
   45MOL   C50523473   5.926   2.598   7.494  0.3283 -0.6291  0.1058
   45MOL   C50623474   6.018   2.541   7.397 -0.4656 -0.3506 -0.5085
   45MOL   C50723475   6.132   2.620   7.353 -0.3833 -0.3815  0.8386
   45MOL   C50823476   6.144   2.758   7.393  0.1080 -0.3459 -0.4070
   45MOL   C50923477   6.046   2.816   7.479 -0.3509  0.3899 -0.3447
   45MOL   C51023478   5.942   2.734   7.531  0.9863 -0.2592  0.2061
   45MOL   H51123479   6.083   2.155   7.450 -0.7614  0.1959 -0.6930
   45MOL   H51223480   6.219   2.264   7.419  0.2401  1.2924 -2.5688
   45MOL   H51323481   5.976   2.251   7.228  1.6955  1.1185 -3.6920
   45MOL   H51423482   5.684   2.580   7.656 -0.1347  0.0842  0.9333
   45MOL   H51523483   5.553   2.379   7.686 -0.2483 -0.4941  0.1355
   45MOL   H51623484   5.597   2.177   7.536 -1.0395  0.4690 -2.7722
   45MOL   H51723485   5.802   2.173   7.394  0.9820 -0.6805  1.0490
   45MOL   H51823486   6.200   2.599   7.272 -1.1364  0.1877  0.0501
   45MOL   H51923487   6.232   2.818   7.375  1.4045 -1.8993  0.5626
   45MOL   H52023488   6.055   2.919   7.509 -2.0342 -0.0204  1.7137
   45MOL   H52123489   5.869   2.778   7.597  0.6855  0.6987 -0.7695
   45MOL   H52223490   6.104   2.360   7.217  0.0717 -0.5622 -1.0935
   46MOL     C123491   6.645   3.882   4.697 -0.1163 -0.4777  0.0208
   46MOL     C223492   6.498   3.922   4.695 -0.3546  0.1393 -0.0962
   46MOL     N323493   6.465   4.011   4.812  0.0669 -0.2541 -0.0836
   46MOL     C423494   6.388   3.978   4.924 -0.3470 -0.0160  0.0838
   46MOL     C523495   6.381   4.088   5.012  0.1140 -0.0004  0.2057
   46MOL     C623496   6.301   4.081   5.128 -0.4303 -1.0569  0.0991
   46MOL     C723497   6.223   3.970   5.149 -0.4981 -0.3789 -0.3333
   46MOL     C823498   6.235   3.858   5.066  0.5461  0.0171  0.2565
   46MOL     C923499   6.316   3.862   4.951  0.5689  0.0059  1.0211
   46MOL    C1023500   6.461   4.192   4.953 -0.0793  0.0249  0.0493
   46MOL    C1123501   6.515   4.143   4.833 -0.3148  0.7919 -0.1114
   46MOL    C1223502   6.614   4.215   4.765 -0.0680  0.9049 -0.0970
   46MOL    C1323503   6.652   4.347   4.807  0.0749  0.1883 -0.2215
   46MOL    C1423504   6.593   4.396   4.922 -0.0547 -0.3475 -0.4330
   46MOL    C1523505   6.501   4.322   4.994 -0.3971 -0.2693  0.3798
   46MOL    H1623506   6.656   3.800   4.626  0.5298 -1.8924  1.7076
   46MOL    H1723507   6.674   3.851   4.797  1.0784  0.7637  0.0655
   46MOL    H1823508   6.454   3.824   4.715  0.6640 -0.1018  0.9693
   46MOL    H1923509   6.298   4.165   5.196  1.8518 -0.2724 -0.7408
   46MOL    H2023510   6.151   3.981   5.229 -1.0612  1.3599 -1.0574
   46MOL    H2123511   6.172   3.772   5.082  0.9904 -0.4440 -0.4561
   46MOL    H2223512   6.312   3.776   4.886 -0.0434  0.8094 -0.0223
   46MOL    H2323513   6.668   4.166   4.686  1.4483  1.4255  0.5920
   46MOL    H2423514   6.734   4.397   4.757  0.9815 -2.1047 -1.0622
   46MOL    H2523515   6.614   4.500   4.941  1.1206 -0.8228  0.9519
   46MOL    H2623516   6.458   4.371   5.081 -0.6512  1.6549 -0.7994
   46MOL    H2723517   6.717   3.960   4.674  1.1104 -1.8565 -0.8809
   46MOL    C2823518   6.444   3.965   4.555  0.7896  0.4229  0.9354
   46MOL    C2923519   6.300   3.930   4.522 -0.2394  0.0805  0.3740
   46MOL    N3023520   6.202   4.019   4.581 -0.0769 -0.0377 -0.5301
   46MOL    C3123521   6.100   3.978   4.666 -0.4628 -0.7068  0.1061
   46MOL    C3223522   6.025   4.092   4.699 -0.1454  0.3566  0.5619
   46MOL    C3323523   5.913   4.075   4.785  0.2687 -0.5173 -0.5422
   46MOL    C3423524   5.880   3.949   4.835 -0.2033 -0.1948 -0.0069
   46MOL    C3523525   5.955   3.842   4.796 -0.2824  0.2145  0.5449
   46MOL    C3623526   6.078   3.856   4.726 -0.3760  0.1782 -0.4050
   46MOL    C3723527   6.083   4.206   4.631  0.2859 -0.3412 -0.0126
   46MOL    C3823528   6.192   4.158   4.560 -0.4343  0.6579  1.1027
   46MOL    C3923529   6.269   4.243   4.480 -0.0473 -0.4683  0.1228
   46MOL    C4023530   6.233   4.381   4.464 -0.2657  0.5628  0.0919
   46MOL    C4123531   6.127   4.433   4.537  0.6531  0.0041 -0.0221
   46MOL    C4223532   6.049   4.345   4.614  0.1725  0.5585  0.0447
   46MOL    H4323533   6.481   4.067   4.540  2.0511 -0.3454 -1.5217
   46MOL    H4423534   6.511   3.901   4.497  1.2563  1.8208 -0.1310
   46MOL    H4523535   6.283   3.831   4.564  0.8439 -0.1341  0.3437
   46MOL    H4623536   5.855   4.157   4.825  1.8466 -1.2800  3.5605
   46MOL    H4723537   5.796   3.936   4.901  0.9255  0.6200  1.6381
   46MOL    H4823538   5.946   3.743   4.839 -2.9429 -0.8785 -2.2879
   46MOL    H4923539   6.151   3.777   4.721 -1.5815 -1.1310  1.6277
   46MOL    H5023540   6.345   4.200   4.416  0.3225 -1.1169  1.0065
   46MOL    H5123541   6.289   4.455   4.409 -0.6072  1.0014  0.3210
   46MOL    H5223542   6.101   4.537   4.528 -1.5127 -0.4867  0.3356
   46MOL    H5323543   5.965   4.382   4.671  0.4441  1.4812 -0.1579
   46MOL    C5423544   6.285   3.933   4.365  0.2129 -0.3236  0.2366
   46MOL    C5523545   6.321   3.794   4.293  0.0871  0.1052  0.4267
   46MOL    N5623546   6.231   3.682   4.325  0.2272 -0.4662 -0.1056
   46MOL    C5723547   6.268   3.556   4.386  0.3947 -0.1774 -0.7520
   46MOL    C5823548   6.149   3.476   4.388  0.3642 -0.4269 -0.4295
   46MOL    C5923549   6.158   3.346   4.442 -0.2817 -0.4073  0.2353
   46MOL    C6023550   6.284   3.292   4.480  0.0773 -0.2402  0.0896
   46MOL    C6123551   6.399   3.378   4.479 -0.0388  0.0333 -0.0153
   46MOL    C6223552   6.391   3.508   4.432 -0.0246 -0.0725 -0.5183
   46MOL    C6323553   6.038   3.560   4.346 -0.2728  0.3872 -0.1849
   46MOL    C6423554   6.094   3.677   4.297  0.3016 -0.0709 -0.2361
   46MOL    C6523555   6.010   3.779   4.241 -0.1765 -0.3102  0.1710
   46MOL    C6623556   5.866   3.765   4.229 -0.8397  0.2010 -0.6294
   46MOL    C6723557   5.812   3.653   4.288  0.0074  0.7321  0.8941
   46MOL    C6823558   5.896   3.550   4.336  0.9142 -0.0091 -0.6321
   46MOL    H6923559   6.184   3.965   4.340 -0.6283 -2.0736  1.2857
   46MOL    H7023560   6.359   4.005   4.331  0.7179 -1.9870 -2.3762
   46MOL    H7123561   6.417   3.764   4.334 -0.3233  0.3137  1.5705
   46MOL    H7223562   6.071   3.282   4.438  0.1781 -1.0526  0.4848
   46MOL    H7323563   6.284   3.189   4.513 -1.6131 -0.2645  0.0773
   46MOL    H7423564   6.493   3.334   4.508  0.8984  2.1614  0.2504
   46MOL    H7523565   6.483   3.566   4.427  0.9110 -1.1665  2.4380
   46MOL    H7623566   6.044   3.870   4.194 -0.9721  0.3920  0.9490
   46MOL    H7723567   5.811   3.843   4.176 -0.5903  0.9129  0.1525
   46MOL    H7823568   5.705   3.633   4.284  0.3061 -1.6395  3.1555
   46MOL    H7923569   5.848   3.461   4.374 -3.7112  2.3952 -0.5796
   46MOL    C8023570   6.331   3.821   4.143 -0.5830 -0.3795 -0.0872
   46MOL    C8123571   6.461   3.885   4.089  0.1643  0.1140  0.3293
   46MOL    N8223572   6.579   3.841   4.159 -0.1668  0.2601  0.0361
   46MOL    C8323573   6.661   3.920   4.240  0.0904  0.6194 -0.2446
   46MOL    C8423574   6.768   3.843   4.293 -0.0914  0.0814 -0.7801
   46MOL    C8523575   6.861   3.916   4.382  0.1310 -0.7085  0.5844
   46MOL    C8623576   6.845   4.050   4.417  0.0988 -0.3869  0.2854
   46MOL    C8723577   6.733   4.116   4.364  0.1514  0.0414  1.1343
   46MOL    C8823578   6.651   4.057   4.273  0.3011  0.0130 -0.0641
   46MOL    C8923579   6.753   3.707   4.256 -0.5313 -0.5184 -0.0333
   46MOL    C9023580   6.627   3.711   4.175 -0.7977  0.1055  0.1061
   46MOL    C9123581   6.570   3.590   4.133 -0.3919  0.1990  0.1364
   46MOL    C9223582   6.622   3.467   4.172 -0.4058  0.0349 -0.6207
   46MOL    C9323583   6.744   3.465   4.245 -0.8107 -0.2838 -0.1431
   46MOL    C9423584   6.809   3.584   4.278 -0.8497  0.1043 -0.2839
   46MOL    H9523585   6.317   3.728   4.087  1.6791 -0.0683 -1.2213
   46MOL    H9623586   6.243   3.876   4.110 -0.4824  0.7706  1.4750
   46MOL    H9723587   6.455   3.993   4.103 -3.0880  0.0796 -0.4232
   46MOL    H9823588   6.952   3.863   4.408 -0.2834 -2.1084 -0.6887
   46MOL    H9923589   6.923   4.100   4.472 -0.5048  1.8194 -0.7952
   46MOL   H10023590   6.709   4.216   4.395  1.9239  0.3490  1.5353
   46MOL   H10123591   6.562   4.111   4.245 -0.1018  0.6829  2.3548
   46MOL   H10223592   6.475   3.585   4.082  0.0770 -0.6129 -0.6698
   46MOL   H10323593   6.582   3.373   4.137 -0.7389  0.3230 -1.0210
   46MOL   H10423594   6.788   3.369   4.271 -1.6365 -0.5257  0.3612
   46MOL   H10523595   6.908   3.584   4.322 -1.5172  1.6328  1.2381
   46MOL   C10623596   6.478   3.867   3.936 -0.1432  0.4358  0.1044
   46MOL   C10723597   6.363   3.924   3.844 -0.2192  0.5947 -0.6939
   46MOL   N10823598   6.334   4.063   3.873 -0.1404  0.0897 -0.8464
   46MOL   C10923599   6.209   4.112   3.918 -0.2501 -0.2607 -0.5676
   46MOL   C11023600   6.221   4.254   3.937 -0.7515  0.3973  0.2559
   46MOL   C11123601   6.114   4.318   4.007  0.1307 -0.2981 -0.0941
   46MOL   C11223602   6.007   4.247   4.059  0.5451 -0.5434 -0.2963
   46MOL   C11323603   5.998   4.114   4.031  0.0202  0.1206  0.0886
   46MOL   C11423604   6.096   4.042   3.959 -0.7859  0.3963  0.0628
   46MOL   C11523605   6.346   4.294   3.873  0.2761 -0.4381  0.3580
   46MOL   C11623606   6.415   4.175   3.835 -0.1603 -0.3783  0.2134
   46MOL   C11723607   6.546   4.175   3.778 -0.2143  0.4478 -0.0551
   46MOL   C11823608   6.599   4.298   3.750  0.0564  0.1818 -0.6036
   46MOL   C11923609   6.535   4.420   3.788 -0.1778 -0.0281  0.0319
   46MOL   C12023610   6.407   4.421   3.850 -0.0578  0.1705 -0.6398
   46MOL   H12123611   6.577   3.905   3.908 -0.4018  0.6013 -0.5980
   46MOL   H12223612   6.495   3.760   3.920  1.0068  0.5248  0.6668
   46MOL   H12323613   6.278   3.863   3.874 -0.6427  1.5405  0.1003
   46MOL   H12423614   6.118   4.425   4.013  0.4407 -0.3475  0.7014
   46MOL   H12523615   5.925   4.288   4.116 -0.8768 -2.3133 -1.0185
   46MOL   H12623616   5.910   4.055   4.051  0.7552 -1.7809 -2.0316
   46MOL   H12723617   6.089   3.936   3.942 -1.2228  0.5662 -0.8489
   46MOL   H12823618   6.603   4.083   3.770  0.5236  0.8487  0.4986
   46MOL   H12923619   6.694   4.313   3.702  0.5438  2.7015  1.1038
   46MOL   H13023620   6.578   4.514   3.760 -1.0691  1.4096  3.2437
   46MOL   H13123621   6.351   4.508   3.883 -1.4490 -1.6216  1.8553
   46MOL   C13223622   6.384   3.893   3.695  0.1997  0.5734 -0.1706
   46MOL   C13323623   6.377   3.739   3.659 -0.0090  0.1468  0.1871
   46MOL   N13423624   6.266   3.673   3.723 -0.0122 -0.3972 -0.8263
   46MOL   C13523625   6.277   3.563   3.806 -0.6734  0.8281 -0.4750
   46MOL   C13623626   6.150   3.540   3.866  0.8718  0.1297 -0.2178
   46MOL   C13723627   6.142   3.441   3.966 -0.3447 -0.4813  0.4652
   46MOL   C13823628   6.251   3.358   3.992  0.6958 -0.3147  0.2018
   46MOL   C13923629   6.376   3.374   3.924  0.1609 -0.1258 -0.2038
   46MOL   C14023630   6.389   3.481   3.834 -0.6197 -0.2779 -0.0436
   46MOL   C14123631   6.057   3.624   3.811  0.0677 -0.3108  0.0302
   46MOL   C14223632   6.127   3.700   3.710 -0.3725 -0.2795 -0.5897
   46MOL   C14323633   6.056   3.783   3.618  0.0702  0.0547 -0.7686
   46MOL   C14423634   5.919   3.808   3.641  0.3845  0.1000  0.0118
   46MOL   C14523635   5.851   3.738   3.743  0.0599  0.5573 -0.1535
   46MOL   C14623636   5.919   3.655   3.837 -0.0431  0.1350  0.2310
   46MOL   H14723637   6.308   3.949   3.640 -0.3320  0.6897  0.6645
   46MOL   H14823638   6.478   3.935   3.660 -0.0532  0.9653 -0.3731
   46MOL   H14923639   6.460   3.704   3.720  0.0764 -2.5547 -1.4186
   46MOL   H15023640   6.052   3.424   4.023 -1.0689 -0.7335 -0.7406
   46MOL   H15123641   6.249   3.279   4.065 -0.1598 -1.1537 -0.7117
   46MOL   H15223642   6.453   3.299   3.935  0.2656  0.0549  0.3075
   46MOL   H15323643   6.482   3.496   3.781  0.2000  1.3636  1.7690
   46MOL   H15423644   6.104   3.836   3.537 -0.0553  0.7339 -0.3994
   46MOL   H15523645   5.872   3.877   3.573  2.8490  0.5671 -1.2713
   46MOL   H15623646   5.747   3.766   3.752 -0.1097  0.3047 -1.2137
   46MOL   H15723647   5.860   3.605   3.912  1.0489  1.4386  1.9961
   46MOL   C15823648   6.390   3.717   3.509 -0.0986 -0.0589 -0.4228
   46MOL   C15923649   6.524   3.753   3.439  0.2054  0.0413  0.0515
   46MOL   N16023650   6.635   3.701   3.515  0.7774  0.5307  0.2751
   46MOL   C16123651   6.736   3.772   3.580  0.4541  0.2194  0.0022
   46MOL   C16223652   6.820   3.674   3.652 -0.8546 -0.7283 -0.1281
   46MOL   C16323653   6.933   3.724   3.725 -0.8685 -0.5955  0.7155
   46MOL   C16423654   6.964   3.858   3.720  0.6138  0.2719  0.0837
   46MOL   C16523655   6.894   3.945   3.637 -0.3730 -0.3293 -0.2469
   46MOL   C16623656   6.773   3.910   3.576 -0.4976 -0.4311 -0.3810
   46MOL   C16723657   6.775   3.540   3.614  0.5385  0.4170 -0.3258
   46MOL   C16823658   6.660   3.561   3.531 -0.7605 -0.0378  0.3333
   46MOL   C16923659   6.596   3.444   3.479 -0.1712 -0.3604 -0.4132
   46MOL   C17023660   6.645   3.313   3.507 -0.3905 -0.2765 -0.8764
   46MOL   C17123661   6.766   3.303   3.585  0.1495  0.1895 -0.1317
   46MOL   C17223662   6.825   3.411   3.643 -0.1005  0.0970 -0.7153
   46MOL   H17323663   6.383   3.609   3.497  2.3500 -0.1576 -1.3275
   46MOL   H17423664   6.310   3.766   3.454  0.5248  1.4179 -0.0728
   46MOL   H17523665   6.540   3.861   3.440 -1.2783  0.2712 -0.4995
   46MOL   H17623666   6.994   3.646   3.769 -0.3286 -0.3942  0.3370
   46MOL   H17723667   7.060   3.895   3.751  1.1060 -0.1640 -0.9003
   46MOL   H17823668   6.933   4.043   3.616 -1.7061  0.3678  0.4059
   46MOL   H17923669   6.722   3.987   3.519  2.2099  0.9586 -1.0275
   46MOL   H18023670   6.507   3.455   3.419 -0.2779  0.3904 -0.1232
   46MOL   H18123671   6.589   3.232   3.465  0.0565 -0.9682 -0.1529
   46MOL   H18223672   6.802   3.205   3.613  3.0802  1.7403  1.7249
   46MOL   H18323673   6.901   3.392   3.718  0.6484  0.7676 -1.2945
   46MOL   C18423674   6.544   3.719   3.290 -0.3421  0.0980 -0.4698
   46MOL   C18523675   6.463   3.818   3.207  0.2588  0.1886 -0.3934
   46MOL   N18623676   6.516   3.959   3.208  0.1242  0.7622  0.1743
   46MOL   C18723677   6.478   4.063   3.290 -0.0170  0.7583 -0.0987
   46MOL   C18823678   6.555   4.179   3.270 -0.1911 -0.3940  0.1043
   46MOL   C18923679   6.531   4.296   3.346 -0.2053  0.2405 -0.4372
   46MOL   C19023680   6.419   4.304   3.433 -0.2427  0.5065  0.3541
   46MOL   C19123681   6.350   4.184   3.461  0.1478  0.7786 -0.0026
   46MOL   C19223682   6.382   4.065   3.396 -0.2476 -0.1667  1.0555
   46MOL   C19323683   6.649   4.138   3.170 -0.2623  0.7634 -0.3044
   46MOL   C19423684   6.628   4.001   3.138  0.3687  0.0101 -0.1004
   46MOL   C19523685   6.720   3.933   3.048 -0.3351 -0.5524 -0.2257
   46MOL   C19623686   6.831   3.999   2.997 -0.2884 -0.6396  0.5891
   46MOL   C19723687   6.853   4.130   3.032  0.1923  0.4827 -0.1086
   46MOL   C19823688   6.766   4.202   3.121  0.5339 -0.5893  0.4390
   46MOL   H19923689   6.650   3.717   3.267 -0.2593  0.0669 -0.0884
   46MOL   H20023690   6.510   3.615   3.290  0.1256 -0.0837 -2.8868
   46MOL   H20123691   6.367   3.841   3.252 -0.6742  0.5549 -2.5019
   46MOL   H20223692   6.583   4.389   3.328  0.1650 -0.0516 -0.8738
   46MOL   H20323693   6.394   4.389   3.496  1.8432  2.0466 -0.8266
   46MOL   H20423694   6.267   4.181   3.530 -0.3303  0.3161 -0.5975
   46MOL   H20523695   6.316   3.984   3.424 -0.9536  0.7670  2.1216
   46MOL   H20623696   6.717   3.829   3.020  2.6780 -0.8863  0.5499
   46MOL   H20723697   6.900   3.941   2.938 -0.5634  2.3064 -2.8536
   46MOL   H20823698   6.944   4.176   2.995  0.4384 -0.8189 -1.1434
   46MOL   H20923699   6.792   4.304   3.144  1.9855 -0.8886  0.1876
   46MOL   C21023700   6.433   3.767   3.059 -0.7245  0.0026  0.7906
   46MOL   C21123701   6.340   3.645   3.048 -0.2340  0.1499 -0.5483
   46MOL   N21223702   6.222   3.638   3.135 -0.2417  0.1980  0.0858
   46MOL   C21323703   6.205   3.537   3.231 -0.1995 -0.2156  0.1055
   46MOL   C21423704   6.102   3.578   3.321 -0.1563  0.0766  0.1444
   46MOL   C21523705   6.078   3.493   3.436  0.3969  0.2152  0.1185
   46MOL   C21623706   6.145   3.375   3.462  0.2723 -0.2678 -0.2518
   46MOL   C21723707   6.238   3.339   3.361 -0.1606 -0.6302  0.1328
   46MOL   C21823708   6.273   3.419   3.253 -0.2338 -0.0767 -0.0578
   46MOL   C21923709   6.045   3.696   3.265 -0.7048 -0.2397  0.0570
   46MOL   C22023710   6.124   3.729   3.153 -0.2639  0.3128  0.6654
   46MOL   C22123711   6.101   3.851   3.087  0.3741 -0.0621 -0.1112
   46MOL   C22223712   5.999   3.936   3.136 -0.1057 -0.1024 -0.6457
   46MOL   C22323713   5.915   3.903   3.238 -0.2886 -1.2209  0.4219
   46MOL   C22423714   5.944   3.786   3.305  0.1209  0.4925 -0.2117
   46MOL   H22523715   6.396   3.856   3.008 -0.9567  0.6569  2.0837
   46MOL   H22623716   6.526   3.736   3.010  0.5582 -0.4042  3.3925
   46MOL   H22723717   6.402   3.562   3.080 -1.2356 -0.2976  0.2817
   46MOL   H22823718   6.002   3.527   3.504  1.3039 -0.8309  1.6741
   46MOL   H22923719   6.123   3.307   3.543  1.0490 -0.6301 -0.3342
   46MOL   H23023720   6.289   3.244   3.369  0.2427 -0.3903  0.4381
   46MOL   H23123721   6.348   3.381   3.185 -0.8718  2.0407 -2.0127
   46MOL   H23223722   6.157   3.887   3.002  0.1278 -0.6933 -0.5429
   46MOL   H23323723   5.994   4.038   3.102 -0.3744  0.6578  1.6090
   46MOL   H23423724   5.832   3.965   3.266  1.6633  1.9189 -0.5422
   46MOL   H23523725   5.877   3.754   3.383 -0.8730 -0.1368 -1.2984
   46MOL   C23623726   6.295   3.607   2.908  0.5058 -0.0921 -0.7373
   46MOL   C23723727   6.417   3.580   2.814  0.0265 -0.6641 -0.2515
   46MOL   N23823728   6.492   3.462   2.852 -0.0822  0.0750 -0.1862
   46MOL   C23923729   6.626   3.453   2.892  0.2293 -0.2982 -0.8514
   46MOL   C24023730   6.654   3.317   2.930 -0.4067 -0.7751 -0.6109
   46MOL   C24123731   6.791   3.282   2.969  0.3742 -0.8051 -0.4785
   46MOL   C24223732   6.893   3.380   2.981 -0.4311 -0.6556 -0.9303
   46MOL   C24323733   6.861   3.514   2.944 -0.4625  0.3681 -0.8943
   46MOL   C24423734   6.730   3.547   2.896  0.6498 -0.6239  0.4861
   46MOL   C24523735   6.535   3.240   2.910 -0.4027 -0.1268  0.1731
   46MOL   C24623736   6.435   3.335   2.865  0.2233  0.3529 -0.0053
   46MOL   C24723737   6.308   3.285   2.841 -0.2927 -0.4136  0.3553
   46MOL   C24823738   6.277   3.151   2.854  0.1570 -0.2326  0.8009
   46MOL   C24923739   6.376   3.063   2.894  0.2251 -0.2166 -0.6956
   46MOL   C25023740   6.503   3.107   2.926  0.8456 -0.2514 -0.4851
   46MOL   H25123741   6.216   3.532   2.909 -0.0519  0.4353 -2.8454
   46MOL   H25223742   6.243   3.691   2.862  0.6563  0.1807 -0.4139
   46MOL   H25323743   6.482   3.667   2.825  0.1895 -0.6412 -1.2815
   46MOL   H25423744   6.807   3.180   3.000 -1.1050 -0.4047  1.7538
   46MOL   H25523745   6.992   3.361   3.018 -0.0378 -0.3439 -1.7846
   46MOL   H25623746   6.946   3.580   2.946  0.1764 -0.4871  0.7931
   46MOL   H25723747   6.713   3.650   2.869  1.0337 -0.3863  1.1363
   46MOL   H25823748   6.226   3.347   2.809  0.0225 -0.3333 -0.3084
   46MOL   H25923749   6.175   3.127   2.832  0.5225 -0.9187 -0.1763
   46MOL   H26023750   6.357   2.957   2.902 -0.5302 -0.0214  0.2358
   46MOL   H26123751   6.578   3.041   2.967  0.8162  0.9309  1.5383
   46MOL   C26223752   6.387   3.572   2.669  0.5018  0.2895  0.2434
   46MOL   C26323753   6.343   3.705   2.599 -0.2106  0.2625  0.2514
   46MOL   N26423754   6.454   3.798   2.607 -0.5497  0.2600 -0.0321
   46MOL   C26523755   6.440   3.933   2.656  0.1534  0.0615 -0.0720
   46MOL   C26623756   6.564   4.002   2.637 -0.0035  0.0129 -0.6926
   46MOL   C26723757   6.581   4.138   2.670  0.1056 -0.1973  0.3715
   46MOL   C26823758   6.472   4.203   2.719  0.0041  0.0725 -0.2836
   46MOL   C26923759   6.344   4.138   2.740  0.2925 -0.4785 -0.4396
   46MOL   C27023760   6.332   4.003   2.712  0.3369 -0.3327  0.6566
   46MOL   C27123761   6.655   3.908   2.576 -0.1368 -0.3042 -0.6307
   46MOL   C27223762   6.587   3.784   2.558  0.1945  0.4692 -1.0688
   46MOL   C27323763   6.655   3.675   2.496  0.2791 -0.7432 -0.0794
   46MOL   C27423764   6.794   3.681   2.464 -0.6105 -0.1769  0.0872
   46MOL   C27523765   6.860   3.807   2.483 -0.3460 -0.1020 -0.7223
   46MOL   C27623766   6.789   3.918   2.542  0.0872 -0.9575  0.2960
   46MOL   H27723767   6.476   3.525   2.626 -1.2408 -1.3523 -1.7147
   46MOL   H27823768   6.310   3.496   2.658  0.1094  0.7603 -0.3118
   46MOL   H27923769   6.260   3.751   2.652 -2.3717 -0.4881 -2.3601
   46MOL   H28023770   6.670   4.195   2.649 -0.1541  0.4492  1.0040
   46MOL   H28123771   6.495   4.304   2.750 -0.6505  0.1467 -0.0302
   46MOL   H28223772   6.263   4.201   2.773  0.2544 -0.6152 -0.2709
   46MOL   H28323773   6.235   3.955   2.715 -0.9417  2.1032 -0.4782
   46MOL   H28423774   6.597   3.586   2.475  0.0024 -0.1161 -2.1720
   46MOL   H28523775   6.838   3.596   2.414 -1.0849  0.3912 -1.2979
   46MOL   H28623776   6.965   3.819   2.457 -0.3201 -0.3159 -0.7163
   46MOL   H28723777   6.830   4.017   2.557  3.1285 -2.2898  1.3175
   46MOL   C28823778   6.291   3.687   2.451  0.2655 -0.2330 -0.3665
   46MOL   C28923779   6.166   3.600   2.424 -0.0197  0.2005  0.3454
   46MOL   N29023780   6.070   3.599   2.538  0.0281 -0.5306 -0.1528
   46MOL   C29123781   6.019   3.481   2.598  0.1651  0.3615 -0.1941
   46MOL   C29223782   5.921   3.520   2.697  0.0909  0.3461  0.1264
   46MOL   C29323783   5.841   3.420   2.758 -0.2337  0.1526  0.2856
   46MOL   C29423784   5.856   3.285   2.721  0.5376  0.4898  0.2174
   46MOL   C29523785   5.948   3.246   2.632  0.2937 -0.6673  0.4745
   46MOL   C29623786   6.040   3.342   2.576 -0.2521 -0.3460  0.9074
   46MOL   C29723787   5.937   3.663   2.715  0.8270 -0.0169  0.7785
   46MOL   C29823788   6.010   3.706   2.599  0.0536 -0.4100  0.7047
   46MOL   C29923789   6.016   3.848   2.573 -0.0608  0.3289  0.3735
   46MOL   C30023790   5.958   3.936   2.663 -0.4575  0.3842 -0.3596
   46MOL   C30123791   5.892   3.896   2.781 -0.0562  0.4040  0.4537
   46MOL   C30223792   5.870   3.756   2.801  0.0277 -0.3771 -0.3225
   46MOL   H30323793   6.260   3.783   2.410  1.7400 -0.4106 -1.9739
   46MOL   H30423794   6.369   3.660   2.380  0.0027 -1.8256 -0.0580
   46MOL   H30523795   6.204   3.500   2.408  2.1843  1.0902 -0.1223
   46MOL   H30623796   5.771   3.454   2.833  1.1884  0.4932  1.4922
   46MOL   H30723797   5.791   3.209   2.763 -1.0482  0.7571 -1.6337
   46MOL   H30823798   5.958   3.141   2.607 -0.8391 -0.6740  0.0155
   46MOL   H30923799   6.097   3.303   2.493 -2.9485 -2.3514 -0.0774
   46MOL   H31023800   6.067   3.892   2.488  0.6606 -1.0030  0.0910
   46MOL   H31123801   5.964   4.042   2.641  3.5387 -0.2879 -3.0710
   46MOL   H31223802   5.847   3.972   2.844  1.8359  1.3644  0.6957
   46MOL   H31323803   5.795   3.718   2.868  0.7308 -0.4179  0.4494
   46MOL   C31423804   6.099   3.628   2.294  0.1924 -0.1971  0.4072
   46MOL   C31523805   6.177   3.588   2.165  0.5560  0.2016 -0.0469
   46MOL   N31623806   6.201   3.441   2.152 -0.1939  0.2862 -0.4130
   46MOL   C31723807   6.325   3.384   2.179 -0.2341  0.0401 -0.1963
   46MOL   C31823808   6.328   3.248   2.143  0.1122 -0.0086 -0.0705
   46MOL   C31923809   6.447   3.175   2.165  0.1781 -0.7722  0.2724
   46MOL   C32023810   6.560   3.229   2.222  0.0457 -0.6715  0.2400
   46MOL   C32123811   6.563   3.364   2.255 -0.0875 -0.0487  0.3571
   46MOL   C32223812   6.447   3.443   2.225  0.0980 -0.6087  0.6336
   46MOL   C32323813   6.193   3.218   2.099 -0.1156 -0.4235  0.2695
   46MOL   C32423814   6.115   3.340   2.109  0.3093  0.0322  0.3018
   46MOL   C32523815   5.976   3.337   2.067  0.1426  0.5903  0.1174
   46MOL   C32623816   5.917   3.216   2.028  0.5930 -0.1678 -0.1504
   46MOL   C32723817   5.996   3.106   2.010  0.6472 -0.6477 -0.7499
   46MOL   C32823818   6.131   3.104   2.043 -0.0951 -0.5474 -0.1579
   46MOL   H32923819   6.010   3.566   2.288  1.0153 -1.5553  1.7839
   46MOL   H33023820   6.074   3.734   2.299 -0.9852 -0.3484 -1.6194
   46MOL   H33123821   6.273   3.638   2.178 -0.7596  2.8222  0.0289
   46MOL   H33223822   6.451   3.070   2.140  0.3624  0.0470 -3.3212
   46MOL   H33323823   6.646   3.165   2.238 -0.6267 -1.5712  0.3031
   46MOL   H33423824   6.658   3.412   2.274  0.0008  0.6412 -1.7469
   46MOL   H33523825   6.463   3.549   2.236  1.6772 -0.6648 -0.9343
   46MOL   H33623826   5.914   3.425   2.064  2.1467  2.0910  0.9846
   46MOL   H33723827   5.813   3.210   2.000  0.2827  1.5572  0.5826
   46MOL   H33823828   5.945   3.019   1.969 -2.1099  0.5448  0.0280
   46MOL   H33923829   6.191   3.019   2.012 -0.2363 -0.6578 -0.1241
   46MOL   C34023830   6.121   3.645   2.034  0.0192  0.1886  0.0533
   46MOL   C34123831   6.126   3.805   2.027 -0.1288 -0.2690 -0.2570
   46MOL   N34223832   6.244   3.872   2.091  0.2549 -0.0800  0.1655
   46MOL   C34323833   6.245   3.970   2.187  0.2706 -0.4057  0.3721
   46MOL   C34423834   6.383   3.994   2.225 -0.3489 -0.1680  0.3185
   46MOL   C34523835   6.404   4.095   2.330 -0.1609  0.2508  0.0058
   46MOL   C34623836   6.299   4.170   2.382  0.0835 -0.2339 -0.0771
   46MOL   C34723837   6.169   4.137   2.347 -0.1686 -0.5274 -0.0378
   46MOL   C34823838   6.139   4.045   2.243  0.3710  0.1027 -0.6259
   46MOL   C34923839   6.469   3.911   2.141 -0.0056 -0.2727 -0.5941
   46MOL   C35023840   6.381   3.835   2.061 -1.4771 -0.6955 -0.4833
   46MOL   C35123841   6.436   3.746   1.967  0.3919 -0.0398 -0.2511
   46MOL   C35223842   6.572   3.729   1.956 -0.5953 -0.5411  0.0904
   46MOL   C35323843   6.659   3.806   2.036 -0.6109 -0.6674  0.0909
   46MOL   C35423844   6.609   3.898   2.131 -0.6277  0.0204 -0.4311
   46MOL   H35523845   6.195   3.600   1.967  1.1769  0.1995  1.2872
   46MOL   H35623846   6.023   3.605   2.009 -0.6664  1.5544  0.4945
   46MOL   H35723847   6.038   3.840   2.081 -0.0120 -0.5849  0.1384
   46MOL   H35823848   6.506   4.116   2.359 -0.5083 -0.5534  1.8717
   46MOL   H35923849   6.322   4.242   2.460 -1.1938  0.9382 -0.7493
   46MOL   H36023850   6.087   4.193   2.389  0.4604  0.9307 -0.7304
   46MOL   H36123851   6.038   4.029   2.207 -0.0833 -1.3936  1.2447
   46MOL   H36223852   6.379   3.682   1.901 -1.4865 -0.0464  1.3619
   46MOL   H36323853   6.608   3.645   1.898 -0.9222 -0.5088 -0.1659
   46MOL   H36423854   6.765   3.788   2.031 -0.6713 -0.7980 -0.8329
   46MOL   H36523855   6.673   3.964   2.188  0.8030 -1.7743  0.0847
   46MOL   C36623856   6.112   3.857   1.876  0.3694  0.1571  0.0988
   46MOL   C36723857   6.018   3.780   1.787  0.4005 -0.2333  0.0105
   46MOL   N36823858   5.878   3.782   1.845 -0.4954  0.3012 -1.1420
   46MOL   C36923859   5.791   3.668   1.865  0.1284  0.1361  0.4909
   46MOL   C37023860   5.667   3.718   1.923  0.4884  0.2856  0.2279
   46MOL   C37123861   5.565   3.619   1.951  0.2146 -0.1336  0.0977
   46MOL   C37223862   5.580   3.483   1.909 -0.5896 -0.3672 -0.4060
   46MOL   C37323863   5.700   3.446   1.849  0.9931  0.5383  0.3714
   46MOL   C37423864   5.810   3.529   1.844 -0.1803 -0.0476  0.3868
   46MOL   C37523865   5.684   3.860   1.944  0.2787 -0.6273 -0.0617
   46MOL   C37623866   5.808   3.895   1.890  0.1630 -0.7688 -0.0021
   46MOL   C37723867   5.831   4.036   1.875 -0.1315  0.5674  0.1395
   46MOL   C37823868   5.747   4.135   1.926  0.2111  0.9196 -0.8867
   46MOL   C37923869   5.637   4.097   1.999 -0.3296 -0.3761  0.9626
   46MOL   C38023870   5.603   3.964   2.003  0.5211  0.4456  0.0482
   46MOL   H38123871   6.097   3.965   1.867  0.2697  0.0056 -1.9396
   46MOL   H38223872   6.213   3.843   1.837  0.5222 -0.0493  0.5664
   46MOL   H38323873   6.054   3.678   1.801  0.1165 -0.1136  1.7771
   46MOL   H38423874   5.470   3.647   1.994  0.5258  1.8276 -0.4204
   46MOL   H38523875   5.495   3.416   1.914 -0.2516 -0.7980 -0.3249
   46MOL   H38623876   5.717   3.349   1.804  1.0833  0.4428  0.6137
   46MOL   H38723877   5.905   3.500   1.802 -0.7977  0.3326 -1.3076
   46MOL   H38823878   5.925   4.053   1.824  0.5265  1.1373  1.5317
   46MOL   H38923879   5.781   4.236   1.907 -0.2062  0.8783 -1.8871
   46MOL   H39023880   5.574   4.173   2.043 -0.8220 -0.4249  0.3421
   46MOL   H39123881   5.507   3.934   2.044  0.0721  0.4382 -0.9887
   46MOL   C39223882   6.017   3.826   1.639 -0.4810 -0.2014  0.8551
   46MOL   C39323883   6.127   3.761   1.553 -0.5901  0.4611  0.6371
   46MOL   N39423884   6.117   3.614   1.559  0.5779 -0.4893 -0.2341
   46MOL   C39523885   6.217   3.523   1.602  0.0530  0.0248 -0.1176
   46MOL   C39623886   6.160   3.393   1.611  0.3978 -0.3412 -0.4842
   46MOL   C39723887   6.248   3.289   1.654  0.6479 -0.6985 -0.3058
   46MOL   C39823888   6.377   3.318   1.697  0.4725 -0.3877  0.4428
   46MOL   C39923889   6.431   3.447   1.676  0.2093  0.0532 -0.2576
   46MOL   C40023890   6.346   3.549   1.638 -0.2545 -0.6844  1.0358
   46MOL   C40123891   6.027   3.402   1.571  0.3529  0.3031  0.0319
   46MOL   C40223892   6.009   3.536   1.525 -0.4505  0.6013 -0.6470
   46MOL   C40323893   5.892   3.571   1.456 -0.1125 -0.0843  0.8099
   46MOL   C40423894   5.791   3.477   1.441  0.2473  0.4400 -0.2571
   46MOL   C40523895   5.801   3.361   1.522 -0.2039 -0.3117  0.1435
   46MOL   C40623896   5.920   3.312   1.572  0.4695 -0.0002 -0.0880
   46MOL   H40723897   5.919   3.815   1.591 -0.0677 -0.0398 -0.0447
   46MOL   H40823898   6.031   3.934   1.630 -0.8880 -0.2188 -0.1037
   46MOL   H40923899   6.214   3.785   1.614 -1.2571  1.2147  1.2961
   46MOL   H41023900   6.209   3.190   1.676  0.4206 -0.5040  0.1910
   46MOL   H41123901   6.442   3.235   1.723  2.0583  0.1033 -1.8165
   46MOL   H41223902   6.534   3.475   1.694 -0.7952  2.6453  1.9267
   46MOL   H41323903   6.389   3.648   1.640 -1.0502 -0.3432  1.4259
   46MOL   H41423904   5.881   3.669   1.413 -0.5382  0.7098  2.7113
   46MOL   H41523905   5.695   3.498   1.396 -1.0964 -2.3894  1.1370
   46MOL   H41623906   5.717   3.292   1.521 -1.9864  1.7344  2.6310
   46MOL   H41723907   5.916   3.218   1.623 -1.2985 -1.4098 -2.6945
   46MOL   C41823908   6.148   3.820   1.412  0.5295 -0.1648 -0.5201
   46MOL   C41923909   6.214   3.963   1.399 -0.2750  0.0099  0.1959
   46MOL   N42023910   6.302   3.996   1.512  0.2792 -0.8196 -0.2402
   46MOL   C42123911   6.259   4.084   1.615  0.2369  0.2143 -0.4205
   46MOL   C42223912   6.357   4.085   1.715  0.3627 -0.3282  0.7428
   46MOL   C42323913   6.339   4.159   1.835  0.5800 -0.6543 -0.6821
   46MOL   C42423914   6.224   4.239   1.855 -0.0674 -0.0179  0.1762
   46MOL   C42523915   6.124   4.239   1.759 -0.1860 -0.0501  0.6028
   46MOL   C42623916   6.140   4.161   1.642 -0.1619  0.1528 -0.2194
   46MOL   C42723917   6.469   4.007   1.665  0.0538  0.2133  0.3984
   46MOL   C42823918   6.427   3.938   1.543  0.2869  0.0316  0.7809
   46MOL   C42923919   6.514   3.841   1.486  0.5768 -0.4060  0.2253
   46MOL   C43023920   6.637   3.811   1.549 -0.8724  0.7038  0.0012
   46MOL   C43123921   6.681   3.879   1.665  0.0544 -0.8111  0.6269
   46MOL   C43223922   6.597   3.976   1.721  1.0356 -0.4521 -0.1095
   46MOL   H43323923   6.226   3.756   1.371 -0.3105 -0.4747 -1.6289
   46MOL   H43423924   6.063   3.809   1.345  0.7023  2.0949 -1.1637
   46MOL   H43523925   6.126   4.026   1.408  0.4016  0.9974 -0.0744
   46MOL   H43623926   6.408   4.153   1.918 -0.4770  0.5000  0.3113
   46MOL   H43723927   6.216   4.300   1.944  1.9322  1.3061 -0.5162
   46MOL   H43823928   6.038   4.304   1.765  0.3247  0.6408  0.4463
   46MOL   H43923929   6.061   4.169   1.569 -0.7223  0.1029  0.3817
   46MOL   H44023930   6.483   3.783   1.400  2.0192  0.7227 -1.0922
   46MOL   H44123931   6.699   3.735   1.504 -0.5523  1.1472 -0.3095
   46MOL   H44223932   6.779   3.853   1.703 -0.3227 -0.6239  1.7567
   46MOL   H44323933   6.615   4.023   1.817 -1.5581  1.1411 -0.3723
   46MOL   C44423934   6.266   3.997   1.264  0.3476  0.2441 -0.0524
   46MOL   C44523935   6.378   4.096   1.261 -0.4279  0.7779  0.6311
   46MOL   N44623936   6.448   4.086   1.133  0.6496  0.0298 -0.1144
   46MOL   C44723937   6.587   4.063   1.112  0.2352 -0.6400 -0.0169
   46MOL   C44823938   6.613   4.072   0.970  0.0324 -0.2146 -0.1764
   46MOL   C44923939   6.742   4.074   0.920  0.5495 -0.5784  0.2752
   46MOL   C45023940   6.845   4.057   1.010  0.5164 -0.7232  0.1277
   46MOL   C45123941   6.821   4.029   1.146  0.2096  0.6911  0.4406
   46MOL   C45223942   6.695   4.041   1.200  0.1867  0.6862  0.3595
   46MOL   C45323943   6.486   4.094   0.905 -0.7471 -0.7073  0.0519
   46MOL   C45423944   6.387   4.112   1.008  0.5238  0.1548  0.5332
   46MOL   C45523945   6.255   4.151   0.972 -0.7524 -0.0505 -0.5927
   46MOL   C45623946   6.222   4.174   0.837 -0.0524 -0.5679  0.2381
   46MOL   C45723947   6.322   4.157   0.739  0.4288  0.2684 -0.3994
   46MOL   C45823948   6.457   4.127   0.770  0.4854 -0.2031 -0.5367
   46MOL   H45923949   6.305   3.900   1.235  0.0157  0.6579 -1.9333
   46MOL   H46023950   6.183   4.014   1.195  2.7587 -1.2161 -3.4025
   46MOL   H46123951   6.458   4.075   1.332  0.6713  1.1440 -0.4664
   46MOL   H46223952   6.760   4.088   0.814 -1.5056  1.7474  0.1970
   46MOL   H46323953   6.948   4.045   0.980  0.4698 -0.9802  0.0654
   46MOL   H46423954   6.901   4.007   1.215  1.0568 -3.0571 -1.6382
   46MOL   H46523955   6.676   4.029   1.305  1.6771 -1.3592  0.4093
   46MOL   H46623956   6.185   4.173   1.051  0.0769 -2.6792  0.9636
   46MOL   H46723957   6.120   4.198   0.810 -0.1048 -1.6874 -0.6395
   46MOL   H46823958   6.283   4.167   0.639  0.7533  2.1378 -0.3478
   46MOL   H46923959   6.530   4.129   0.690  0.6297  0.9522 -0.3749
   46MOL   C47023960   6.344   4.243   1.295  0.3219  0.5420  0.9444
   46MOL   C47123961   6.474   4.323   1.332  0.1284 -0.4193 -0.1130
   46MOL   N47223962   6.461   4.471   1.315  0.2370 -0.5506 -0.0735
   46MOL   C47323963   6.536   4.551   1.226 -0.4035  0.2623  0.2757
   46MOL   C47423964   6.496   4.689   1.248  0.3466  0.5671 -0.3680
   46MOL   C47523965   6.550   4.785   1.162 -0.3413 -0.9811  0.2728
   46MOL   C47623966   6.640   4.758   1.061 -0.4584 -0.0185 -0.5028
   46MOL   C47723967   6.683   4.627   1.042 -0.0999  0.1701 -0.3323
   46MOL   C47823968   6.633   4.521   1.129 -0.3730  0.2312  0.1771
   46MOL   C47923969   6.396   4.694   1.348 -0.3253 -0.3940  0.7909
   46MOL   C48023970   6.377   4.557   1.389 -0.0397 -0.1625 -0.2448
   46MOL   C48123971   6.277   4.530   1.487 -0.0644 -0.3950  0.3702
   46MOL   C48223972   6.204   4.635   1.540  0.4026  0.4493 -1.1446
   46MOL   C48323973   6.217   4.767   1.499 -0.0355  0.3946  0.6193
   46MOL   C48423974   6.313   4.792   1.408 -0.8608 -0.0503 -0.0395
   46MOL   H48523975   6.300   4.288   1.206 -0.0798  0.0008  0.8651
   46MOL   H48623976   6.270   4.235   1.375 -1.5028  0.9114 -0.7017
   46MOL   H48723977   6.552   4.301   1.258 -0.0599 -3.8856  0.6516
   46MOL   H48823978   6.512   4.886   1.169  0.7987 -0.6492  2.0979
   46MOL   H48923979   6.669   4.843   1.002  0.0257  0.2833  0.1621
   46MOL   H49023980   6.756   4.605   0.966  0.4922 -1.0827  0.5831
   46MOL   H49123981   6.656   4.419   1.103  0.6524  0.4929  0.0117
   46MOL   H49223982   6.260   4.435   1.537  0.2137  0.1056  1.4323
   46MOL   H49323983   6.135   4.611   1.620 -0.1084  0.4460 -1.5849
   46MOL   H49423984   6.147   4.838   1.541 -0.2202 -0.6239  2.0565
   46MOL   H49523985   6.319   4.898   1.387 -0.4789 -0.0818 -0.1059
   46MOL   C49623986   6.548   4.282   1.458  0.5359 -0.2358 -1.0118
   46MOL   C49723987   6.674   4.369   1.489 -0.4369  0.3537  0.1243
   46MOL   N49823988   6.712   4.340   1.625 -0.3099  0.3031  0.7265
   46MOL   C49923989   6.640   4.378   1.746  0.0538  0.0197  0.0117
   46MOL   C50023990   6.699   4.308   1.854 -0.1097  0.0773  0.1603
   46MOL   C50123991   6.646   4.333   1.983  0.1854  0.8053 -0.3127
   46MOL   C50223992   6.536   4.416   2.012  0.1052  0.6083  0.5572
   46MOL   C50323993   6.488   4.494   1.903  0.1457  0.8110 -0.5723
   46MOL   C50423994   6.534   4.467   1.770  0.5164  0.3029 -0.5082
   46MOL   C50523995   6.818   4.244   1.803  0.6049 -0.3268  0.1342
   46MOL   C50623996   6.826   4.267   1.661  0.6070 -0.3569 -0.4392
   46MOL   C50723997   6.936   4.217   1.589 -0.9307 -0.0395 -0.1145
   46MOL   C50823998   7.037   4.141   1.656 -0.4272  0.2779 -0.2014
   46MOL   C50923999   7.034   4.125   1.795 -0.8316 -0.1376 -0.7945
   46MOL   C51024000   6.928   4.183   1.868  0.4661 -0.1566 -0.1322
   46MOL   H51124001   6.470   4.294   1.534  1.7104 -0.9946  0.3391
   46MOL   H51224002   6.576   4.176   1.458 -0.4251 -0.4915 -0.5581
   46MOL   H51324003   6.665   4.476   1.469 -1.7343 -0.2299 -2.7382
   46MOL   H51424004   6.693   4.282   2.065  1.5763  0.8503 -1.0624
   46MOL   H51524005   6.498   4.437   2.111  1.1657  0.5577  0.9840
   46MOL   H51624006   6.402   4.558   1.916 -2.5394 -2.6770 -0.7229
   46MOL   H51724007   6.498   4.521   1.684  2.3248  1.2212 -0.7225
   46MOL   H51824008   6.939   4.221   1.481 -0.4322  0.8851 -0.0793
   46MOL   H51924009   7.117   4.099   1.598 -0.7593 -0.4958 -0.1090
   46MOL   H52024010   7.116   4.075   1.842  0.1462 -0.4240 -2.7501
   46MOL   H52124011   6.934   4.190   1.975  0.9918  0.5222 -0.1997
   46MOL   H52224012   6.754   4.345   1.419  2.1162  1.6587  2.4927
   47MOL     C124013   7.141   5.580   0.286 -0.1903 -0.2418 -0.4487
   47MOL     C224014   7.278   5.558   0.217 -0.2421  0.0392 -0.2040
   47MOL     N324015   7.279   5.591   0.070  0.3675  0.6117 -0.2189
   47MOL     C424016   7.323   5.505   8.200  0.0058  0.7023 -0.0989
   47MOL     C524017   7.305   5.561   8.072 -0.1845  0.1829 -0.6251
   47MOL     C624018   7.341   5.488   7.957 -0.0175  0.5178  0.1607
   47MOL     C724019   7.393   5.361   7.971  0.0085  0.5966  0.6752
   47MOL     C824020   7.419   5.300   8.096  0.2362 -0.5449 -0.1338
   47MOL     C924021   7.383   5.374   8.211 -0.5243  0.3080  1.0280
   47MOL    C1024022   7.248   5.692   8.088  0.1015  0.1736  0.3298
   47MOL    C1124023   7.237   5.708   0.002 -0.2945 -0.4926  1.0641
   47MOL    C1224024   7.197   5.830   0.060 -0.2322 -0.6380  0.3690
   47MOL    C1324025   7.163   5.941   8.206 -0.7653  0.7525 -0.2883
   47MOL    C1424026   7.167   5.930   8.065 -0.4040  0.1942  0.1369
   47MOL    C1524027   7.208   5.806   8.004  0.3838  0.8676 -0.1602
   47MOL    H1624028   7.166   5.527   0.378 -1.4384  0.6015  0.4000
   47MOL    H1724029   7.056   5.539   0.231  0.5085 -0.3135 -1.4757
   47MOL    H1824030   7.309   5.454   0.225 -0.4047 -0.0022 -0.1327
   47MOL    H1924031   7.328   5.535   7.860 -0.1015 -0.9044 -0.5330
   47MOL    H2024032   7.436   5.304   7.889 -1.1128  2.5516 -1.3086
   47MOL    H2124033   7.459   5.203   8.122 -1.1622 -0.9350  0.6361
   47MOL    H2224034   7.401   5.332   0.081 -0.8493 -2.0129  0.1303
   47MOL    H2324035   7.181   5.834   0.166  1.0992  1.1971  0.5182
   47MOL    H2424036   7.138   6.036   0.024 -2.7074  0.2224 -0.2386
   47MOL    H2524037   7.129   6.010   8.003  2.2247  0.6587 -0.9815
   47MOL    H2624038   7.197   5.797   7.897 -2.0972 -0.1802  0.1396
   47MOL    H2724039   7.116   5.683   0.314 -0.0457 -0.8919  2.2421
   47MOL    C2824040   7.398   5.641   0.283  0.0171 -0.2016  0.9232
   47MOL    C2924041   7.441   5.600   0.424  0.4912  0.8647  1.0742
   47MOL    N3024042   7.422   5.459   0.453  0.2215 -0.6982 -0.2783
   47MOL    C3124043   7.348   5.404   0.556 -0.4924 -0.1947  0.1156
   47MOL    C3224044   7.352   5.262   0.542 -0.4015  0.3473  0.1595
   47MOL    C3324045   7.289   5.178   0.637 -0.0365  0.3133 -0.7616
   47MOL    C3424046   7.225   5.237   0.749 -0.0722  0.2095  0.1388
   47MOL    C3524047   7.215   5.377   0.759 -0.9119 -0.1633 -0.2764
   47MOL    C3624048   7.274   5.459   0.660  0.2434  0.1467 -0.4306
   47MOL    C3724049   7.439   5.229   0.433  0.5212  0.1330  0.1170
   47MOL    C3824050   7.479   5.350   0.375  0.0507  0.4433  0.4380
   47MOL    C3924051   7.559   5.349   0.261 -0.0934 -0.2188 -0.0973
   47MOL    C4024052   7.625   5.227   0.218 -0.1029  0.3014  0.2493
   47MOL    C4124053   7.583   5.106   0.278 -0.2771 -0.4829  0.0473
   47MOL    C4224054   7.490   5.110   0.383  0.2947  0.5372 -0.0732
   47MOL    H4324055   7.482   5.628   0.215  0.1966 -3.7145  1.7204
   47MOL    H4424056   7.369   5.745   0.294 -0.2901 -0.1689 -0.1814
   47MOL    H4524057   7.372   5.638   0.499 -3.3032 -1.8594 -0.8386
   47MOL    H4624058   7.304   5.072   0.624 -1.0664  0.0245  0.3056
   47MOL    H4724059   7.182   5.167   0.818  0.7762  1.3912  1.9085
   47MOL    H4824060   7.168   5.422   0.845 -0.8888 -0.2587 -0.2148
   47MOL    H4924061   7.269   5.566   0.674  2.2353  0.1736  0.2873
   47MOL    H5024062   7.579   5.439   0.205 -4.0435  1.0688  0.4211
   47MOL    H5124063   7.699   5.230   0.140  0.0013  0.9313  0.3651
   47MOL    H5224064   7.627   5.015   0.241  0.8845 -0.2643  0.8761
   47MOL    H5324065   7.463   5.012   0.420 -0.2090  0.3071 -1.0369
   47MOL    C5424066   7.588   5.632   0.454 -0.4328 -0.2949 -0.2011
   47MOL    C5524067   7.626   5.778   0.459 -0.0965  0.7053  0.1660
   47MOL    N5624068   7.532   5.852   0.546 -0.0022 -0.1698 -0.0574
   47MOL    C5724069   7.458   5.964   0.493 -0.3830  0.7294  0.9105
   47MOL    C5824070   7.383   6.025   0.599 -0.0741  0.5793 -0.2292
   47MOL    C5924071   7.308   6.142   0.574  0.7935  0.2628 -0.0383
   47MOL    C6024072   7.307   6.193   0.444  0.1246  0.3759 -0.5621
   47MOL    C6124073   7.378   6.135   0.337 -0.4228  0.8360 -0.7912
   47MOL    C6224074   7.452   6.017   0.364  0.7701 -0.3469 -0.0316
   47MOL    C6324075   7.403   5.944   0.712  0.0371  0.1600  0.1219
   47MOL    C6424076   7.490   5.834   0.680 -0.1228  0.7086 -0.1689
   47MOL    C6524077   7.535   5.742   0.781 -0.6246  0.2624  0.1095
   47MOL    C6624078   7.484   5.754   0.913 -0.4214 -0.3232  0.5199
   47MOL    C6724079   7.391   5.856   0.941 -0.3937 -0.8159  0.7827
   47MOL    C6824080   7.363   5.956   0.846  0.0559 -0.1460 -0.2788
   47MOL    H6924081   7.613   5.586   0.549  0.3590 -0.0770 -0.3014
   47MOL    H7024082   7.648   5.586   0.376  0.4070  1.2391 -0.4902
   47MOL    H7124083   7.624   5.809   0.355  1.2594  0.5612  0.0873
   47MOL    H7224084   7.249   6.196   0.646  1.4760  1.3396 -0.2729
   47MOL    H7324085   7.247   6.282   0.429 -0.9281 -0.4770 -1.5290
   47MOL    H7424086   7.363   6.177   0.238  0.9104  0.9025 -0.9848
   47MOL    H7524087   7.505   5.971   0.282  1.1674 -1.1339  0.6615
   47MOL    H7624088   7.599   5.656   0.766  0.0671  0.1733  3.3296
   47MOL    H7724089   7.522   5.688   0.989  3.0334  1.5133  0.5165
   47MOL    H7824090   7.346   5.856   1.039  1.8048 -0.3965  1.8196
   47MOL    H7924091   7.295   6.038   0.866  1.5806  0.9273  0.6162
   47MOL    C8024092   7.769   5.794   0.520 -0.3056 -0.2603  0.3763
   47MOL    C8124093   7.885   5.738   0.429 -0.1477 -0.0536 -0.1898
   47MOL    N8224094   7.866   5.774   0.290  0.1729  0.1227  0.4993
   47MOL    C8324095   7.839   5.688   0.181 -0.2147  0.2521  0.2721
   47MOL    C8424096   7.831   5.768   0.060 -0.6359 -0.3358  0.4118
   47MOL    C8524097   7.811   5.704   8.162  0.3700 -0.2298 -0.0364
   47MOL    C8624098   7.814   5.558   8.155  0.2522 -1.1537  0.4918
   47MOL    C8724099   7.833   5.483   0.046  0.7306  0.2855 -0.2665
   47MOL    C8824100   7.832   5.545   0.175  0.3771 -0.1482 -0.4232
   47MOL    C8924101   7.843   5.907   0.107  0.1081  0.3920  0.2011
   47MOL    C9024102   7.868   5.906   0.247 -0.2293 -0.3294  0.4212
   47MOL    C9124103   7.890   6.025   0.319 -0.6415 -0.9993 -0.6261
   47MOL    C9224104   7.887   6.146   0.247  0.0962 -0.2441  0.1372
   47MOL    C9324105   7.863   6.155   0.113 -0.1986  0.3181 -0.3925
   47MOL    C9424106   7.838   6.031   0.043 -0.7435 -0.3688  0.1158
   47MOL    H9524107   7.785   5.898   0.551 -3.0974  0.9359 -1.9791
   47MOL    H9624108   7.782   5.744   0.616 -1.4729 -1.1684  0.0662
   47MOL    H9724109   7.878   5.629   0.434  1.6804 -0.2685 -1.5454
   47MOL    H9824110   7.788   5.768   8.078  2.6192 -0.2053 -0.6785
   47MOL    H9924111   7.794   5.504   8.064 -0.6903 -1.6197  0.9744
   47MOL   H10024112   7.832   5.376   0.036  2.4844  0.2219  0.0758
   47MOL   H10124113   7.844   5.484   0.263 -0.5619 -0.9972 -0.8660
   47MOL   H10224114   7.911   6.025   0.424 -0.8492 -1.2961 -0.5843
   47MOL   H10324115   7.925   6.233   0.299 -2.2562  1.4471 -0.8392
   47MOL   H10424116   7.868   6.247   0.056 -1.9048  0.9019  0.3530
   47MOL   H10524117   7.830   6.033   8.163  3.0994  0.2072 -0.2532
   47MOL   C10624118   8.019   5.785   0.490  0.6058 -0.5897  0.1546
   47MOL   C10724119   8.141   5.782   0.399 -0.6572 -0.4330 -0.2524
   47MOL   N10824120   0.026   5.850   0.467  0.0862 -0.0895  0.1924
   47MOL   C10924121   0.059   5.992   0.459 -0.1520  0.7969 -0.6930
   47MOL   C11024122   0.173   6.017   0.537  0.3147 -0.2802 -0.3589
   47MOL   C11124123   0.226   6.143   0.534 -0.3453 -0.3046 -0.6060
   47MOL   C11224124   0.180   6.240   0.444  0.2184  0.1672 -0.1550
   47MOL   C11324125   0.066   6.215   0.363 -0.6379 -0.1390  0.5147
   47MOL   C11424126   0.008   6.088   0.369 -0.0823 -0.0023  0.3665
   47MOL   C11524127   0.200   5.892   0.615  0.1577 -0.6728 -0.3683
   47MOL   C11624128   0.109   5.795   0.572  0.4559 -0.4704  0.0717
   47MOL   C11724129   0.111   5.665   0.629  0.2290  0.7224 -0.0378
   47MOL   C11824130   0.220   5.635   0.715  0.0778  0.0395 -0.1705
   47MOL   C11924131   0.317   5.729   0.761  0.5190  0.3125  0.5510
   47MOL   C12024132   0.302   5.860   0.708  0.4879 -0.0305  0.7350
   47MOL   H12124133   8.011   5.883   0.538  1.1366  0.2304 -1.3942
   47MOL   H12224134   8.051   5.720   0.571 -0.9069 -0.4421  0.8897
   47MOL   H12324135   8.120   5.843   0.311 -0.7512 -1.4826 -0.9635
   47MOL   H12424136   0.315   6.162   0.593  0.1430 -0.9184 -1.1331
   47MOL   H12524137   0.221   6.339   0.429  0.2644  0.1989  0.1803
   47MOL   H12624138   0.032   6.292   0.295 -0.1804  1.2460  1.8346
   47MOL   H12724139   8.163   6.070   0.291  2.3627 -0.1523 -1.9518
   47MOL   H12824140   0.041   5.583   0.617  1.5687 -0.4278 -0.0548
   47MOL   H12924141   0.227   5.541   0.767 -1.6494  0.0970  0.1941
   47MOL   H13024142   0.394   5.708   0.834 -0.7477  0.2223  1.9079
   47MOL   H13124143   0.374   5.931   0.745 -1.5428  0.8867  3.0470
   47MOL   C13224144   8.181   5.644   0.345  0.2778 -0.3236 -0.0611
   47MOL   C13324145   0.044   5.643   0.215  0.4996 -0.2486  0.4341
   47MOL   N13424146   0.120   5.524   0.200  0.2756  0.2214  0.4912
   47MOL   C13524147   0.259   5.518   0.232 -0.2483 -0.2314 -0.3537
   47MOL   C13624148   0.312   5.393   0.197 -0.1962  0.4859  0.7277
   47MOL   C13724149   0.455   5.368   0.210  0.1726  0.0495 -0.0327
   47MOL   C13824150   0.539   5.469   0.269  0.1505  0.3619 -0.3963
   47MOL   C13924151   0.478   5.591   0.313 -0.4185  0.1166 -0.1361
   47MOL   C14024152   0.343   5.619   0.289  0.3594 -0.3605  0.1121
   47MOL   C14124153   0.196   5.313   0.155  0.3735 -0.1911 -0.5066
   47MOL   C14224154   0.080   5.395   0.162  0.0633 -0.3798 -0.2337
   47MOL   C14324155   8.181   5.338   0.145 -0.0283 -0.0421  0.4770
   47MOL   C14424156   8.164   5.204   0.110  0.4847  0.0669  0.1998
   47MOL   C14524157   0.049   5.124   0.089  0.1591 -0.3772  0.4381
   47MOL   C14624158   0.174   5.179   0.115  0.0669 -0.3537  0.2022
   47MOL   H14724159   0.011   5.587   0.418 -1.1253  1.4001  2.4585
   47MOL   H14824160   8.091   5.586   0.328  0.7070 -1.8301  2.4447
   47MOL   H14924161   0.111   5.727   0.237  4.3303 -2.9520 -0.4797
   47MOL   H15024162   0.502   5.277   0.175 -0.9172 -0.7406  0.5490
   47MOL   H15124163   0.646   5.460   0.265  0.1991 -1.2152  2.7823
   47MOL   H15224164   0.546   5.666   0.352 -0.9233  1.4133 -1.7188
   47MOL   H15324165   0.314   5.722   0.302 -0.6368 -0.7444  1.0273
   47MOL   H15424166   8.089   5.393   0.157  0.3331  0.7909 -0.4739
   47MOL   H15524167   8.069   5.157   0.092  0.8406 -1.5251  2.2654
   47MOL   H15624168   0.054   5.018   0.070  1.0277 -0.1169 -0.8200
   47MOL   H15724169   0.257   5.111   0.100  0.6859  0.9265 -2.5197
   47MOL   C15824170   8.196   5.678   0.084 -0.5227  0.5112 -0.0459
   47MOL   C15924171   0.043   5.653   8.180  0.9859 -0.0272  1.0124
   47MOL   N16024172   8.180   5.658   8.062  0.5346  0.1759  0.2168
   47MOL   C16124173   8.148   5.549   7.983 -0.0511 -1.0506  0.3406
   47MOL   C16224174   8.069   5.596   7.878 -0.2632  0.0454  0.2725
   47MOL   C16324175   8.031   5.496   7.778 -0.3464 -0.0797 -0.6573
   47MOL   C16424176   8.072   5.362   7.792  0.3720 -0.2324 -0.1204
   47MOL   C16524177   8.148   5.324   7.905 -0.3266  0.0859  0.0982
   47MOL   C16624178   8.192   5.420   8.000 -0.0161 -0.1227  0.4071
   47MOL   C16724179   8.043   5.740   7.899 -0.2253  0.1053 -0.4520
   47MOL   C16824180   8.118   5.775   8.017 -0.0748  0.5925  0.1654
   47MOL   C16924181   8.108   5.907   8.068 -0.1715  0.0935 -0.3930
   47MOL   C17024182   8.023   6.001   7.998  0.4079  0.2222 -0.3020
   47MOL   C17124183   7.948   5.964   7.885 -0.7373  0.2788  0.4673
   47MOL   C17224184   7.961   5.836   7.833  0.3080 -0.0599  0.6219
   47MOL   H17324185   8.106   5.619   0.068  1.1890 -1.8446 -1.2921
   47MOL   H17424186   8.161   5.781   0.090 -1.0503  0.3589 -0.5413
   47MOL   H17524187   0.072   5.548   8.184  2.6710  0.4594  2.0669
   47MOL   H17624188   7.981   5.527   7.688  1.3845  0.4857 -1.4595
   47MOL   H17724189   8.043   5.282   7.726 -1.9174 -2.2176  3.1506
   47MOL   H17824190   8.177   5.221   7.919 -0.5387  0.1502  0.9802
   47MOL   H17924191   0.020   5.375   8.081  0.3586 -0.1577  0.1288
   47MOL   H18024192   8.155   5.941   8.159 -0.1662 -1.3052  0.1343
   47MOL   H18124193   8.014   6.101   8.036  0.1278 -0.2164  0.8157
   47MOL   H18224194   7.899   6.045   7.832 -1.6279  1.1077  2.4915
   47MOL   H18324195   7.919   5.815   7.736  0.8204 -2.3151  0.8579
   47MOL   C18424196   0.175   5.727   8.162 -0.6358 -0.1068 -0.1952
   47MOL   C18524197   0.250   5.692   8.027 -0.4465 -0.9709  0.6153
   47MOL   N18624198   0.348   5.793   7.988 -0.0534 -0.5877 -0.6472
   47MOL   C18724199   0.331   5.886   7.889  0.6884 -0.8880  0.3019
   47MOL   C18824200   0.453   5.956   7.875 -0.3689 -0.1485 -0.2288
   47MOL   C18924201   0.469   6.052   7.775 -0.3260  0.0037  0.1264
   47MOL   C19024202   0.369   6.085   7.686  0.6285 -0.2569 -0.5139
   47MOL   C19124203   0.246   6.014   7.694  0.4276 -0.9693 -1.5525
   47MOL   C19224204   0.225   5.921   7.802 -0.2831  1.0391  0.0472
   47MOL   C19324205   0.547   5.907   7.974  0.5419 -0.1811  0.1693
   47MOL   C19424206   0.480   5.803   8.044  0.4101 -0.2236  0.4083
   47MOL   C19524207   0.541   5.751   8.159  0.2384  0.0124  1.1606
   47MOL   C19624208   0.672   5.790   8.194  0.1589  0.2105  0.8581
   47MOL   C19724209   0.744   5.881   8.112  0.0173  0.3142  0.3806
   47MOL   C19824210   0.676   5.945   8.008 -0.7994 -0.6006  0.0931
   47MOL   H19924211   0.159   5.835   8.167 -0.5513 -0.1167  0.3070
   47MOL   H20024212   0.243   5.697   0.013 -2.6933 -1.4306  1.1275
   47MOL   H20124213   0.179   5.689   7.944 -0.4165  0.0596  0.5457
   47MOL   H20224214   0.566   6.097   7.759 -0.2633 -0.3161 -0.4274
   47MOL   H20324215   0.380   6.148   7.599 -0.1353  2.4666  1.2830
   47MOL   H20424216   0.162   6.039   7.632  0.2000 -0.3593 -0.9986
   47MOL   H20524217   0.128   5.880   7.825  1.0743 -2.5439 -0.2515
   47MOL   H20624218   0.491   5.678   8.221  0.3751 -1.5100 -0.4837
   47MOL   H20724219   0.725   5.749   0.051 -0.4157  0.8078  1.5138
   47MOL   H20824220   0.843   5.921   8.124 -0.6120  2.1645 -0.4461
   47MOL   H20924221   0.733   6.014   7.947  0.2830 -2.2699 -0.8491
   47MOL   C21024222   0.306   5.551   8.018  0.0719  0.1533 -0.0395
   47MOL   C21124223   0.362   5.517   7.878 -0.0059 -0.2707  0.2816
   47MOL   N21224224   0.467   5.414   7.882  0.6263 -0.2463 -0.4016
   47MOL   C21324225   0.594   5.432   7.817  0.2691 -0.0302 -0.1399
   47MOL   C21424226   0.660   5.306   7.811 -0.1564 -0.4011 -0.0295
   47MOL   C21524227   0.785   5.307   7.753  0.2821  0.0631 -0.6843
   47MOL   C21624228   0.856   5.418   7.709  0.3487 -0.6249  0.1316
   47MOL   C21724229   0.788   5.547   7.719 -0.5811 -0.1751 -0.4342
   47MOL   C21824230   0.657   5.550   7.771 -0.7590 -0.1972  0.5115
   47MOL   C21924231   0.575   5.213   7.877 -0.0608  0.1056  0.5037
   47MOL   C22024232   0.457   5.278   7.918  0.8774 -0.0948  0.3656
   47MOL   C22124233   0.349   5.204   7.980  0.1993  0.6869  0.0322
   47MOL   C22224234   0.364   5.064   7.991 -0.0924  0.5601 -0.1624
   47MOL   C22324235   0.482   4.999   7.953  0.0461 -0.0040 -0.3695
   47MOL   C22424236   0.587   5.071   7.896  0.4714 -1.1313 -0.2337
   47MOL   H22524237   0.389   5.542   8.089  0.1215  1.5283  0.1024
   47MOL   H22624238   0.231   5.480   8.052  0.0195  0.1407 -0.1843
   47MOL   H22724239   0.405   5.605   7.830 -0.2451 -1.0454 -1.3890
   47MOL   H22824240   0.822   5.206   7.740 -1.6985 -1.3481  3.6179
   47MOL   H22924241   0.954   5.401   7.668 -0.4283 -2.3110 -1.0676
   47MOL   H23024242   0.837   5.634   7.677 -0.2388 -1.2584 -2.3574
   47MOL   H23124243   0.612   5.648   7.773 -2.4441 -0.8731 -1.9330
   47MOL   H23224244   0.249   5.244   7.992 -0.1982 -1.0194  2.9535
   47MOL   H23324245   0.281   5.002   8.021 -0.6705  0.6447 -1.5427
   47MOL   H23424246   0.503   4.894   7.963 -0.5112 -0.0813  0.0274
   47MOL   H23524247   0.671   5.016   7.856  1.0570  1.1649 -2.3007
   47MOL   C23624248   0.248   5.473   7.778 -0.7806 -0.0933  0.3472
   47MOL   C23724249   0.304   5.445   7.637  0.0555 -0.1041  0.8079
   47MOL   N23824250   0.222   5.356   7.554 -0.4607 -0.0134  0.1670
   47MOL   C23924251   0.259   5.227   7.512  0.8383  0.0240 -0.4408
   47MOL   C24024252   0.165   5.182   7.423 -0.4530  0.3398 -0.1105
   47MOL   C24124253   0.187   5.058   7.360  0.1846  0.6283 -0.0270
   47MOL   C24224254   0.296   4.973   7.386 -0.2622 -0.3352  0.9397
   47MOL   C24324255   0.387   5.015   7.484 -0.0825 -0.3004 -0.3738
   47MOL   C24424256   0.373   5.146   7.533 -0.5034  0.0699 -0.4480
   47MOL   C24524257   0.060   5.277   7.416 -1.0112 -0.1214  0.4598
   47MOL   C24624258   0.107   5.390   7.490  0.2027  0.0414 -0.1810
   47MOL   C24724259   0.035   5.509   7.494 -0.0834  0.2961  0.1517
   47MOL   C24824260   8.134   5.522   7.438  0.2458 -0.3634 -0.3355
   47MOL   C24924261   8.087   5.414   7.367  0.2991  0.1929  0.2142
   47MOL   C25024262   8.162   5.297   7.344  0.4511 -0.4754  0.0444
   47MOL   H25124263   0.205   5.383   7.822  0.2060 -1.6654 -1.7885
   47MOL   H25224264   0.171   5.547   7.757 -1.3806 -1.3641 -2.2460
   47MOL   H25324265   0.391   5.382   7.655  0.1276 -0.0120  0.7790
   47MOL   H25424266   0.125   5.030   7.276  0.6491 -0.9377  0.1400
   47MOL   H25524267   0.309   4.877   7.338 -0.3430  0.8462 -1.5598
   47MOL   H25624268   0.476   4.958   7.504 -0.0460 -1.0393 -2.5634
   47MOL   H25724269   0.458   5.186   7.586 -0.6221  1.0001 -0.9393
   47MOL   H25824270   0.066   5.597   7.549  0.6203  0.0098  0.2195
   47MOL   H25924271   8.077   5.614   7.445  1.8084  0.5787  0.2862
   47MOL   H26024272   7.997   5.412   7.308  0.8319 -0.9463 -0.5831
   47MOL   H26124273   8.120   5.221   7.280 -1.6167  1.2348 -0.6931
   47MOL   C26224274   0.347   5.580   7.566  0.1780  0.4707 -0.2524
   47MOL   C26324275   0.400   5.564   7.425 -0.3881  0.6164 -0.3945
   47MOL   N26424276   0.398   5.678   7.345  0.5372 -0.0656 -0.1573
   47MOL   C26524277   0.317   5.703   7.234  0.1513 -0.2989 -0.6142
   47MOL   C26624278   0.354   5.827   7.186 -0.4847 -0.4117 -0.0614
   47MOL   C26724279   0.294   5.865   7.064  0.5422 -0.4346 -0.6276
   47MOL   C26824280   0.195   5.784   7.000 -0.0245 -1.1336  0.2177
   47MOL   C26924281   0.158   5.664   7.057  0.4775 -0.0625 -0.5817
   47MOL   C27024282   0.214   5.622   7.173  0.1842  0.3758 -0.2646
   47MOL   C27124283   0.451   5.889   7.273  0.0494 -0.0078  0.3348
   47MOL   C27224284   0.484   5.788   7.369 -0.1539  0.3974 -0.0005
   47MOL   C27324285   0.585   5.812   7.461  0.3162  0.5508 -0.1379
   47MOL   C27424286   0.653   5.928   7.469 -0.1196 -0.0332 -0.8027
   47MOL   C27524287   0.615   6.033   7.378  0.0082  0.3754  0.0174
   47MOL   C27624288   0.516   6.014   7.284 -0.1006  0.7021 -0.1130
   47MOL   H27724289   0.271   5.657   7.556 -1.4207 -1.0821 -0.4148
   47MOL   H27824290   0.426   5.619   7.630 -2.0647  3.4051  0.8433
   47MOL   H27924291   0.333   5.494   7.375  0.8021 -1.8932  1.4168
   47MOL   H28024292   0.327   5.958   7.021 -0.1956  0.8662  1.5303
   47MOL   H28124293   0.159   5.810   6.901  1.1822  1.5999  0.4429
   47MOL   H28224294   0.092   5.596   7.005 -0.2266  0.4679 -0.3928
   47MOL   H28324295   0.184   5.526   7.213  0.9784 -0.1336 -0.8736
   47MOL   H28424296   0.607   5.747   7.544  0.1659  0.5578 -0.0934
   47MOL   H28524297   0.730   5.946   7.543  1.1843  1.7413 -2.5162
   47MOL   H28624298   0.659   6.132   7.383 -1.1928  0.8877  0.6201
   47MOL   H28724299   0.476   6.094   7.222 -0.8824  1.3238  1.1697
   47MOL   C28824300   0.538   5.487   7.431 -0.0287 -0.0378  0.1812
   47MOL   C28924301   0.618   5.502   7.296  0.0213  0.0339 -0.2654
   47MOL   N29024302   0.752   5.454   7.325  0.3428 -1.0525  0.4143
   47MOL   C29124303   0.863   5.534   7.343 -0.7222 -0.0234  0.3960
   47MOL   C29224304   0.982   5.454   7.356 -0.3919  0.1643 -0.5547
   47MOL   C29324305   1.114   5.517   7.366 -0.2142  0.3344 -0.1375
   47MOL   C29424306   1.117   5.658   7.384 -0.3172  0.3917 -0.5147
   47MOL   C29524307   1.000   5.739   7.376  0.1380  0.2736 -0.1539
   47MOL   C29624308   0.877   5.673   7.346 -0.1321  0.0100  0.3267
   47MOL   C29724309   0.941   5.318   7.352 -0.6350  1.0014  0.0447
   47MOL   C29824310   0.795   5.325   7.345 -0.2880  0.1252 -0.0068
   47MOL   C29924311   0.718   5.200   7.345  0.1275 -0.0888 -0.2660
   47MOL   C30024312   0.790   5.078   7.349 -0.7486 -0.3802 -0.3371
   47MOL   C30124313   0.937   5.069   7.351  0.7846  0.2987 -0.4896
   47MOL   C30224314   1.008   5.189   7.351 -0.2570  0.0004 -0.3801
   47MOL   H30324315   0.595   5.536   7.510 -0.2543  0.6856 -0.1027
   47MOL   H30424316   0.522   5.382   7.455  2.2988  0.1836  2.9730
   47MOL   H30524317   0.623   5.608   7.271 -3.1624  0.5188  1.0309
   47MOL   H30624318   1.195   5.446   7.368 -2.3268 -2.5793 -5.6664
   47MOL   H30724319   1.215   5.692   7.415 -0.8106 -0.6230  2.2894
   47MOL   H30824320   0.998   5.845   7.396  2.3436  0.0102  1.7286
   47MOL   H30924321   0.795   5.739   7.322  1.2545  0.8567 -2.2604
   47MOL   H31024322   0.610   5.191   7.339  0.0042  0.8242  0.2773
   47MOL   H31124323   0.736   4.984   7.356 -0.1625 -0.6643  0.4694
   47MOL   H31224324   0.989   4.977   7.331  0.0549 -0.5187  1.2626
   47MOL   H31324325   1.115   5.182   7.340 -0.1492 -0.8742  1.2241
   47MOL   C31424326   0.552   5.422   7.181  0.3978 -0.6095  0.4679
   47MOL   C31524327   0.620   5.451   7.042 -0.3417  0.4345 -0.3702
   47MOL   N31624328   0.641   5.328   6.970 -0.2169 -1.0300 -0.1549
   47MOL   C31724329   0.762   5.262   6.954 -0.0777 -0.1883 -0.0643
   47MOL   C31824330   0.750   5.152   6.856  0.2055 -0.2808 -0.1922
   47MOL   C31924331   0.870   5.080   6.819 -0.4224  0.6120 -0.4584
   47MOL   C32024332   0.995   5.105   6.884  0.9753  0.4112 -0.5281
   47MOL   C32124333   0.999   5.208   6.984  0.6925  0.3883 -0.3474
   47MOL   C32224334   0.885   5.275   7.017 -0.2941  0.0453  0.1956
   47MOL   C32324335   0.608   5.151   6.826  0.2219  0.5777 -0.5004
   47MOL   C32424336   0.546   5.252   6.901  0.0389 -0.4821  0.3478
   47MOL   C32524337   0.410   5.277   6.893 -0.1572  0.0985  0.4529
   47MOL   C32624338   0.331   5.185   6.819  0.1059  0.4653 -0.5642
   47MOL   C32724339   0.394   5.079   6.748 -0.0231  0.4609 -0.0015
   47MOL   C32824340   0.530   5.060   6.753  0.5259 -0.0375 -1.1787
   47MOL   H32924341   0.520   5.319   7.197  0.7563 -0.7602  0.2095
   47MOL   H33024342   0.458   5.477   7.168  1.3846  0.8179 -0.7477
   47MOL   H33124343   0.718   5.492   7.067  1.7040 -1.7619 -4.3663
   47MOL   H33224344   0.863   5.008   6.739 -0.4207 -1.4727  1.3846
   47MOL   H33324345   1.080   5.042   6.864  1.5177  1.4931 -1.6354
   47MOL   H33424346   1.094   5.237   7.027 -0.4132  2.0943  1.0293
   47MOL   H33524347   0.899   5.355   7.088  0.4532  1.2300 -1.2745
   47MOL   H33624348   0.357   5.350   6.953 -1.7670 -1.6202  1.1769
   47MOL   H33724349   0.223   5.193   6.816  0.1370  0.7815 -0.8966
   47MOL   H33824350   0.341   5.008   6.686  0.2323 -2.2965  2.8234
   47MOL   H33924351   0.576   4.977   6.702 -1.2882 -2.2671  0.7310
   47MOL   C34024352   0.562   5.572   6.967  0.2986 -0.1293  0.1028
   47MOL   C34124353   0.588   5.589   6.819 -0.7053  0.2716  0.0535
   47MOL   N34224354   0.511   5.699   6.765 -0.7077  0.2979  0.0997
   47MOL   C34324355   0.408   5.689   6.658 -0.0488  0.6573 -0.3036
   47MOL   C34424356   0.352   5.820   6.643 -0.7729  0.6712 -0.0911
   47MOL   C34524357   0.243   5.835   6.555 -0.1403 -0.4348 -0.5602
   47MOL   C34624358   0.210   5.732   6.474 -0.3431  0.1683  0.1845
   47MOL   C34724359   0.271   5.607   6.472  0.2647  0.5379  0.1896
   47MOL   C34824360   0.366   5.582   6.573  0.3272 -0.4514 -0.2762
   47MOL   C34924361   0.422   5.910   6.725 -0.2305 -0.4119 -0.4537
   47MOL   C35024362   0.518   5.840   6.801  0.0981 -0.1933  0.6859
   47MOL   C35124363   0.607   5.910   6.883 -0.1460 -0.2590  0.6824
   47MOL   C35224364   0.593   6.046   6.899 -0.4169  0.1158 -0.1492
   47MOL   C35324365   0.500   6.120   6.829  0.0395  0.0288  0.3874
   47MOL   C35424366   0.413   6.051   6.745 -0.0293  0.3209  0.4699
   47MOL   H35524367   0.455   5.555   6.982  0.1276  1.2540  0.6063
   47MOL   H35624368   0.580   5.663   7.025  1.1587  0.4441 -1.0538
   47MOL   H35724369   0.559   5.496   6.770  0.1357  1.1158 -2.0870
   47MOL   H35824370   0.199   5.933   6.541  2.5764  0.9436  0.1972
   47MOL   H35924371   0.134   5.747   6.398  1.1088 -1.2382 -1.5859
   47MOL   H36024372   0.250   5.535   6.395 -0.5573  2.0417 -1.0196
   47MOL   H36124373   0.400   5.479   6.576 -2.2497 -1.3021  2.3304
   47MOL   H36224374   0.680   5.869   6.952  1.0374  3.4190  1.7485
   47MOL   H36324375   0.654   6.102   6.969 -1.5810  0.9148  0.2522
   47MOL   H36424376   0.488   6.227   6.838 -3.4479 -0.5071  2.8532
   47MOL   H36524377   0.344   6.101   6.678 -0.2863 -2.5303 -1.4554
   47MOL   C36624378   0.741   5.597   6.784 -0.1366 -0.0364  0.5114
   47MOL   C36724379   0.777   5.508   6.665 -0.2931 -0.1049  0.3368
   47MOL   N36824380   0.706   5.531   6.537  0.3315 -0.3454 -0.7105
   47MOL   C36924381   0.648   5.432   6.461 -0.4937  0.6523  0.1307
   47MOL   C37024382   0.632   5.474   6.322 -0.1964  0.4673  0.1440
   47MOL   C37124383   0.582   5.375   6.237 -0.7140 -0.3902 -0.3500
   47MOL   C37224384   0.528   5.253   6.282  0.6168 -0.0803  0.2732
   47MOL   C37324385   0.541   5.215   6.417  0.5364  0.1069 -0.1784
   47MOL   C37424386   0.602   5.304   6.509 -0.0690 -0.3336 -0.0158
   47MOL   C37524387   0.681   5.608   6.317  0.1588  0.2312 -0.7318
   47MOL   C37624388   0.726   5.640   6.453  0.1187  0.2205 -0.2912
   47MOL   C37724389   0.785   5.762   6.477  0.3112  0.5159 -0.8392
   47MOL   C37824390   0.787   5.869   6.384 -0.3260 -0.8049 -0.1070
   47MOL   C37924391   0.739   5.842   6.256 -0.5285 -0.0687 -0.1352
   47MOL   C38024392   0.685   5.717   6.224  0.5057  0.1125  0.4772
   47MOL   H38124393   0.773   5.701   6.776  1.6125 -0.6870 -1.5786
   47MOL   H38224394   0.804   5.570   6.869  1.9985  0.9034 -0.7177
   47MOL   H38324395   0.757   5.407   6.700  0.3049  0.5400  2.6181
   47MOL   H38424396   0.584   5.394   6.131 -0.7207  0.9349 -0.1204
   47MOL   H38524397   0.480   5.184   6.215 -0.1912 -0.5060  1.2643
   47MOL   H38624398   0.489   5.126   6.451 -0.5059  0.6101 -0.4357
   47MOL   H38724399   0.613   5.286   6.614 -1.9217  1.7363  0.5621
   47MOL   H38824400   0.819   5.790   6.576 -0.5425  0.8353 -0.6340
   47MOL   H38924401   0.831   5.966   6.399  1.4846 -1.6783  0.4276
   47MOL   H39024402   0.746   5.918   6.179  2.5567 -1.3882 -1.2569
   47MOL   H39124403   0.643   5.707   6.126  0.2692 -0.5666  0.6477
   47MOL   C39224404   0.928   5.501   6.644 -0.0197  0.8007 -0.0346
   47MOL   C39324405   0.987   5.426   6.527  0.1341 -0.9511 -0.5938
   47MOL   N39424406   1.130   5.453   6.505  0.0213 -0.3015  1.1042
   47MOL   C39524407   1.178   5.520   6.390 -0.0483  0.0077  0.1859
   47MOL   C39624408   1.317   5.524   6.388 -0.7736  0.9639  0.6764
   47MOL   C39724409   1.381   5.587   6.281  0.6000 -0.1168  0.5715
   47MOL   C39824410   1.312   5.648   6.175 -0.2642  0.1101  0.3178
   47MOL   C39924411   1.171   5.647   6.182  0.2510 -0.1236  0.0437
   47MOL   C40024412   1.101   5.582   6.288 -0.0208 -0.5077 -0.3975
   47MOL   C40124413   1.363   5.461   6.507 -0.4064  0.1324  0.5775
   47MOL   C40224414   1.244   5.420   6.579  0.2199  0.4316  0.4461
   47MOL   C40324415   1.251   5.351   6.703 -0.1743 -0.0328 -0.0891
   47MOL   C40424416   1.379   5.326   6.750  0.4885 -0.9258 -0.6115
   47MOL   C40524417   1.498   5.363   6.679  0.2554  0.2059 -0.1687
   47MOL   C40624418   1.489   5.436   6.557 -0.5035 -0.3119  0.5912
   47MOL   H40724419   0.976   5.598   6.660 -0.0567  0.1764  4.4908
   47MOL   H40824420   0.959   5.459   6.740  1.6285 -0.5785 -1.1364
   47MOL   H40924421   0.936   5.455   6.435  0.9584  1.5840 -0.2717
   47MOL   H41024422   1.489   5.584   6.282  0.5596 -4.4718  2.1589
   47MOL   H41124423   1.361   5.693   6.090  2.4704  0.8488  2.2538
   47MOL   H41224424   1.109   5.694   6.108 -1.0957 -1.4784  0.2780
   47MOL   H41324425   0.994   5.593   6.295  0.0346  0.1770 -0.5325
   47MOL   H41424426   1.167   5.312   6.757 -0.2185  1.0073  0.6190
   47MOL   H41524427   1.404   5.275   6.842  2.4333  1.0064 -0.0282
   47MOL   H41624428   1.591   5.355   6.733  0.1915  2.0310  0.2633
   47MOL   H41724429   1.580   5.462   6.506  0.0158  1.5220  2.3710
   47MOL   C41824430   0.955   5.280   6.532 -0.6084  0.0984 -0.0902
   47MOL   C41924431   1.004   5.197   6.412  0.4733  0.0101  0.2956
   47MOL   N42024432   1.014   5.057   6.453 -0.4425  0.1595 -0.4497
   47MOL   C42124433   1.129   5.009   6.518  0.3755  0.3607  0.0371
   47MOL   C42224434   1.106   4.876   6.550 -0.0395 -0.1063 -0.7712
   47MOL   C42324435   1.205   4.806   6.628 -0.2719 -0.1467  0.0608
   47MOL   C42424436   1.324   4.870   6.665 -0.3694  0.0970  1.0599
   47MOL   C42524437   1.351   5.003   6.621  0.3051 -0.6705  1.0854
   47MOL   C42624438   1.258   5.067   6.537  0.4538  0.8524  0.3582
   47MOL   C42724439   0.979   4.834   6.489  0.1209 -0.3322 -0.7952
   47MOL   C42824440   0.916   4.951   6.444 -0.5293 -0.3854 -0.3965
   47MOL   C42924441   0.789   4.946   6.394  0.2416  0.0304 -1.0666
   47MOL   C43024442   0.721   4.820   6.376 -0.4564 -0.0757  0.4944
   47MOL   C43124443   0.783   4.695   6.412  0.0964 -0.0780 -0.3000
   47MOL   C43224444   0.915   4.710   6.466 -0.0719  0.5068 -0.5009
   47MOL   H43324445   1.002   5.244   6.623  1.7079 -1.8181 -1.9963
   47MOL   H43424446   0.846   5.269   6.540 -0.8491  0.1927 -2.6973
   47MOL   H43524447   1.108   5.221   6.390  1.3751 -2.5285  1.5850
   47MOL   H43624448   1.194   4.705   6.666 -1.8061  0.0412  0.1166
   47MOL   H43724449   1.391   4.813   6.727  0.3195  0.9317  1.0919
   47MOL   H43824450   1.443   5.058   6.634  0.4298 -0.5765 -0.1674
   47MOL   H43924451   1.291   5.164   6.503  0.5813  1.5106  2.3202
   47MOL   H44024452   0.733   5.028   6.351  0.6950  2.8914  3.4952
   47MOL   H44124453   0.627   4.826   6.323  1.3428  0.9864 -2.6795
   47MOL   H44224454   0.731   4.603   6.393 -0.5258 -0.4896  3.1712
   47MOL   H44324455   0.968   4.618   6.487 -1.5898 -0.3618 -0.3513
   47MOL   C44424456   0.921   5.223   6.282 -0.3979 -0.2537  0.1314
   47MOL   C44524457   0.974   5.157   6.158 -0.9601 -0.8140  0.2015
   47MOL   N44624458   0.873   5.178   6.057  0.0069 -0.3208 -0.4924
   47MOL   C44724459   0.779   5.080   6.023  0.3716 -0.4596 -0.1248
   47MOL   C44824460   0.674   5.137   5.939 -0.2138  0.4857 -0.0983
   47MOL   C44924461   0.563   5.060   5.899  0.1357  0.2854 -0.4061
   47MOL   C45024462   0.548   4.925   5.944  0.1516  0.3199 -0.3567
   47MOL   C45124463   0.646   4.868   6.026  0.5815 -0.0290 -0.2416
   47MOL   C45224464   0.764   4.939   6.059  0.7226  0.0457 -0.2956
   47MOL   C45324465   0.714   5.273   5.919 -0.3949 -0.0591  0.3250
   47MOL   C45424466   0.837   5.298   5.983 -0.0808 -0.1387 -0.2189
   47MOL   C45524467   0.904   5.423   5.974  0.0551  0.1870  0.0838
   47MOL   C45624468   0.842   5.531   5.912 -0.4574  0.0379 -0.4265
   47MOL   C45724469   0.718   5.507   5.852 -0.0938 -0.2063  0.4736
   47MOL   C45824470   0.658   5.384   5.855 -0.0676 -0.0731 -0.1692
   47MOL   H45924471   0.814   5.205   6.293 -0.9533  1.4855 -1.9760
   47MOL   H46024472   0.925   5.330   6.263 -2.3721  0.1836  1.9186
   47MOL   H46124473   0.975   5.052   6.186 -1.4718 -0.5652  1.1659
   47MOL   H46224474   0.484   5.104   5.840  0.0240  1.1799  0.4064
   47MOL   H46324475   0.460   4.863   5.935  1.2948 -1.5767  0.9421
   47MOL   H46424476   0.647   4.765   6.060  0.3318  0.0911  0.1288
   47MOL   H46524477   0.842   4.889   6.114  0.1555 -0.5840 -0.0619
   47MOL   H46624478   0.999   5.441   6.022 -0.1163 -0.9744  0.8711
   47MOL   H46724479   0.887   5.629   5.910 -1.2854  0.4058 -1.6616
   47MOL   H46824480   0.670   5.583   5.792  1.2043  2.0240  2.1523
   47MOL   H46924481   0.563   5.370   5.805 -1.2484  2.4527  1.2871
   47MOL   C47024482   1.118   5.207   6.128 -0.4190  0.8462 -0.0148
   47MOL   C47124483   1.234   5.101   6.140  0.7404 -0.5293 -0.8912
   47MOL   N47224484   1.206   4.980   6.067  0.5517 -0.3868  0.3841
   47MOL   C47324485   1.214   4.853   6.117 -0.2389 -0.1338  0.1419
   47MOL   C47424486   1.169   4.759   6.028  0.0786  0.1947  0.1471
   47MOL   C47524487   1.146   4.627   6.060 -0.0466 -0.6590  0.1232
   47MOL   C47624488   1.181   4.580   6.194  0.2433  0.1316 -0.1777
   47MOL   C47724489   1.241   4.671   6.282 -0.2529  1.1640  0.0597
   47MOL   C47824490   1.257   4.806   6.240 -0.5003 -0.0781  0.2026
   47MOL   C47924491   1.152   4.835   5.906 -0.3804  0.0266  0.2385
   47MOL   C48024492   1.174   4.969   5.934 -0.1265  0.0235  0.5298
   47MOL   C48124493   1.177   5.069   5.827 -0.2603  0.4831 -0.5030
   47MOL   C48224494   1.130   5.027   5.700 -0.0269 -0.3272  1.0725
   47MOL   C48324495   1.115   4.891   5.673  0.5619  0.1922  0.2705
   47MOL   C48424496   1.127   4.796   5.774 -0.7537  0.0775 -0.0096
   47MOL   H48524497   1.121   5.254   6.030 -0.6816  0.4194 -0.2234
   47MOL   H48624498   1.142   5.294   6.191 -1.6729 -0.2196  1.9728
   47MOL   H48724499   1.233   5.066   6.243 -0.3493 -0.5329 -0.8993
   47MOL   H48824500   1.100   4.553   5.996 -3.2811  1.5733 -0.2344
   47MOL   H48924501   1.169   4.479   6.228  1.1602 -0.0511 -0.3750
   47MOL   H49024502   1.272   4.637   6.380 -2.7576  0.0436  0.5072
   47MOL   H49124503   1.307   4.873   6.308  2.2981 -1.1347 -0.7813
   47MOL   H49224504   1.211   5.170   5.844  2.2669 -0.2518 -1.0074
   47MOL   H49324505   1.125   5.094   5.616 -1.7638 -2.6113 -0.7148
   47MOL   H49424506   1.093   4.868   5.570 -1.1744 -1.4519  0.9640
   47MOL   H49524507   1.113   4.691   5.751 -0.0064  0.1580 -0.8578
   47MOL   C49624508   1.376   5.145   6.107  0.2316 -0.2293 -0.1213
   47MOL   C49724509   1.441   5.244   6.206  0.2164  0.8491  0.4530
   47MOL   N49824510   1.586   5.226   6.221 -0.3435 -0.6988 -0.4446
   47MOL   C49924511   1.688   5.316   6.177  0.0415  1.1459 -0.5828
   47MOL   C50024512   1.814   5.267   6.221  0.5400  0.3260 -0.2682
   47MOL   C50124513   1.934   5.333   6.189  0.5494  0.4989 -0.1143
   47MOL   C50224514   1.934   5.450   6.115 -0.0473  0.0030  0.5297
   47MOL   C50324515   1.808   5.503   6.074 -0.8842  0.2085 -0.1000
   47MOL   C50424516   1.689   5.438   6.103  0.1449  0.1949 -0.2551
   47MOL   C50524517   1.791   5.145   6.298 -0.4690  0.1042  0.7074
   47MOL   C50624518   1.650   5.129   6.303  0.0801 -0.5389  0.0384
   47MOL   C50724519   1.594   5.022   6.374  0.2408  0.5867 -0.6515
   47MOL   C50824520   1.682   4.932   6.445  1.1084 -0.6232  0.4010
   47MOL   C50924521   1.819   4.955   6.441 -0.4704  0.6044 -0.5887
   47MOL   C51024522   1.875   5.063   6.369 -0.9824  0.0354  0.2839
   47MOL   H51124523   1.440   5.056   6.107 -3.5292 -3.2133  4.4184
   47MOL   H51224524   1.392   5.186   6.007 -0.6180 -1.6870 -0.8871
   47MOL   H51324525   1.390   5.234   6.302  0.8774  1.0351  0.8223
   47MOL   H51424526   2.028   5.291   6.223  0.2184  0.3406  0.6066
   47MOL   H51524527   2.022   5.508   6.094 -0.5677  0.6603  0.1362
   47MOL   H51624528   1.804   5.600   6.027  0.0757  0.5241  0.4444
   47MOL   H51724529   1.597   5.479   6.063 -0.4721 -0.2270  0.7190
   47MOL   H51824530   1.486   5.023   6.371  0.2839  1.7526 -2.3770
   47MOL   H51924531   1.636   4.845   6.488  2.8320 -0.7937  1.9405
   47MOL   H52024532   1.886   4.895   6.501 -0.3239  0.7840 -0.5723
   47MOL   H52124533   1.982   5.076   6.364 -1.0052  0.5554  1.2405
   47MOL   H52224534   1.419   5.346   6.175 -2.9552  0.6887  1.9525
   48MOL     C124535   3.497   4.902   5.363  0.2105  0.1673 -0.1709
   48MOL     C224536   3.349   4.864   5.371 -0.5724  0.0767 -0.1549
   48MOL     N324537   3.291   4.936   5.491 -0.0682  0.1355  0.6457
   48MOL     C424538   3.283   4.888   5.619  0.2979 -0.5388  0.2778
   48MOL     C524539   3.210   4.982   5.700  0.0627 -0.7202 -0.1376
   48MOL     C624540   3.180   4.951   5.834 -0.4894  0.1189 -0.8503
   48MOL     C724541   3.222   4.827   5.894 -0.0464  0.2712 -0.2618
   48MOL     C824542   3.289   4.737   5.810  0.6042  0.3065  0.5778
   48MOL     C924543   3.323   4.764   5.673  0.4742  0.1912  0.6569
   48MOL    C1024544   3.174   5.097   5.616 -0.1467 -0.3211  0.2330
   48MOL    C1124545   3.228   5.064   5.490  0.0580  0.1597  0.0977
   48MOL    C1224546   3.226   5.158   5.383 -0.8588  0.7995  0.2799
   48MOL    C1324547   3.170   5.279   5.403  0.2635  0.1659 -0.2586
   48MOL    C1424548   3.128   5.321   5.533  0.5341 -0.2044 -0.1560
   48MOL    C1524549   3.115   5.225   5.639  0.6356  0.2780 -0.1969
   48MOL    H1624550   3.549   4.867   5.273 -0.5503  1.8333 -1.2723
   48MOL    H1724551   3.554   4.868   5.449  2.1659  2.3973 -0.5333
   48MOL    H1824552   3.346   4.756   5.388 -1.2204 -0.1626 -1.7001
   48MOL    H1924553   3.123   5.031   5.880  1.6592  0.2360  1.7496
   48MOL    H2024554   3.188   4.803   5.993 -0.4789  0.7131 -0.2969
   48MOL    H2124555   3.302   4.634   5.842 -2.8863  0.2003  1.8917
   48MOL    H2224556   3.376   4.695   5.608  1.6834 -1.1757  3.0043
   48MOL    H2324557   3.278   5.133   5.292  0.5759  0.1188  1.2744
   48MOL    H2424558   3.168   5.353   5.324 -1.0592  0.7078  0.2753
   48MOL    H2524559   3.092   5.421   5.549 -1.0201 -0.9477  1.0291
   48MOL    H2624560   3.072   5.238   5.737 -1.5470 -0.9568 -0.9483
   48MOL    H2724561   3.510   5.010   5.358  1.3737  0.0236 -0.4995
   48MOL    C2824562   3.290   4.880   5.229 -0.2158  0.4208  0.4129
   48MOL    C2924563   3.314   4.757   5.138  0.3011 -0.0397 -0.3842
   48MOL    N3024564   3.259   4.633   5.188  0.6076 -0.8230 -0.7940
   48MOL    C3124565   3.331   4.528   5.240 -0.8653  0.0904  0.4311
   48MOL    C3224566   3.251   4.416   5.262 -0.0998 -0.9451 -0.1151
   48MOL    C3324567   3.311   4.292   5.288 -0.0452  0.0859 -0.0650
   48MOL    C3424568   3.449   4.284   5.309  0.1988 -0.0546 -0.1183
   48MOL    C3524569   3.528   4.398   5.301  0.7576 -0.1209  0.0553
   48MOL    C3624570   3.472   4.518   5.254 -0.4513  0.6939 -0.2736
   48MOL    C3724571   3.116   4.465   5.260  0.7059 -0.5825 -0.3274
   48MOL    C3824572   3.126   4.596   5.204  0.5749 -0.0947  0.7320
   48MOL    C3924573   3.006   4.671   5.174  0.3908 -0.8928  0.3478
   48MOL    C4024574   2.878   4.631   5.222 -0.3120  0.6334  0.6946
   48MOL    C4124575   2.867   4.496   5.276 -0.0776 -0.7934 -0.1150
   48MOL    C4224576   2.987   4.412   5.288  0.9014 -0.3582  0.8953
   48MOL    H4324577   3.184   4.901   5.234  0.1153  2.0945  0.9178
   48MOL    H4424578   3.329   4.968   5.177  0.6589  0.8179  1.7193
   48MOL    H4524579   3.421   4.736   5.134  0.2515 -0.8117  1.7360
   48MOL    H4624580   3.243   4.209   5.301  0.0120  0.2353  1.2446
   48MOL    H4724581   3.476   4.180   5.324 -1.8014 -0.8104 -1.5253
   48MOL    H4824582   3.636   4.394   5.296  0.7651 -0.1178  0.2396
   48MOL    H4924583   3.538   4.594   5.216 -1.4442  1.0867 -1.2478
   48MOL    H5024584   3.021   4.766   5.125 -2.9842 -0.3588  0.2754
   48MOL    H5124585   2.788   4.690   5.223 -0.6579  0.2369 -2.6381
   48MOL    H5224586   2.767   4.459   5.292 -0.7029  0.7355 -0.3576
   48MOL    H5324587   2.979   4.306   5.307 -0.2127 -0.3748  0.4039
   48MOL    C5424588   3.274   4.787   4.990  0.7134 -0.5457 -0.0476
   48MOL    C5524589   3.389   4.811   4.890  0.0614 -0.0074  0.3780
   48MOL    N5624590   3.493   4.711   4.887 -0.1842 -0.8846 -0.1945
   48MOL    C5724591   3.620   4.732   4.944  0.1879  0.4345  0.1183
   48MOL    C5824592   3.697   4.610   4.939  0.2862 -0.1860 -0.5310
   48MOL    C5924593   3.834   4.611   4.985  0.0569 -0.1923  0.6473
   48MOL    C6024594   3.886   4.723   5.040 -0.6291 -0.6747 -0.5542
   48MOL    C6124595   3.807   4.843   5.055 -0.1669 -0.1240  0.0436
   48MOL    C6224596   3.675   4.849   5.000 -0.4069 -0.2213 -0.3188
   48MOL    C6324597   3.615   4.513   4.866  0.1984  0.4260 -0.7675
   48MOL    C6424598   3.488   4.575   4.849 -0.0210 -1.0261 -0.2510
   48MOL    C6524599   3.376   4.500   4.805  0.3046 -0.2697  0.2564
   48MOL    C6624600   3.385   4.368   4.766  0.2884  0.1630 -0.3526
   48MOL    C6724601   3.514   4.308   4.771  0.2376  0.1663 -0.1420
   48MOL    C6824602   3.623   4.378   4.819 -0.4535 -0.0281 -0.6076
   48MOL    H6924603   3.218   4.698   4.962 -0.1382 -0.7553  2.2244
   48MOL    H7024604   3.208   4.874   4.990 -0.8943 -1.7496 -1.1996
   48MOL    H7124605   3.424   4.911   4.916 -1.4064  0.7456 -0.4577
   48MOL    H7224606   3.892   4.520   4.999  1.1192  0.3697 -0.0456
   48MOL    H7324607   3.987   4.734   5.076 -0.8634  2.7321 -0.8579
   48MOL    H7424608   3.846   4.935   5.096 -0.2275  0.0112 -0.2042
   48MOL    H7524609   3.611   4.935   5.007 -0.8855 -0.2174 -3.8965
   48MOL    H7624610   3.286   4.560   4.794  0.0386 -1.1570 -2.6933
   48MOL    H7724611   3.302   4.308   4.731  0.4255 -0.1495 -0.1415
   48MOL    H7824612   3.524   4.205   4.741 -0.1416  0.2953 -0.7304
   48MOL    H7924613   3.718   4.329   4.813  0.4520  1.5293  0.5007
   48MOL    C8024614   3.336   4.832   4.746 -0.2319 -0.2388 -0.9012
   48MOL    C8124615   3.243   4.956   4.726 -0.0308 -0.0311  0.0855
   48MOL    N8224616   3.278   5.087   4.789  0.4117  0.1458 -0.2298
   48MOL    C8324617   3.194   5.166   4.863 -0.1644 -0.5101 -1.3184
   48MOL    C8424618   3.278   5.270   4.924 -0.1209  0.2324 -0.8412
   48MOL    C8524619   3.211   5.360   5.008  0.1891 -0.7068  0.1106
   48MOL    C8624620   3.076   5.347   5.043 -0.7505 -0.2139 -0.4358
   48MOL    C8724621   2.996   5.252   4.980 -0.0402 -0.2282  0.0652
   48MOL    C8824622   3.059   5.159   4.889  0.4032 -0.5724  0.3927
   48MOL    C8924623   3.408   5.255   4.877 -0.3322  0.0860 -0.5607
   48MOL    C9024624   3.404   5.142   4.791  0.1588 -0.4447  0.7080
   48MOL    C9124625   3.523   5.106   4.721  0.7559 -0.0208 -0.1547
   48MOL    C9224626   3.640   5.186   4.731 -0.1009  0.2849  0.3558
   48MOL    C9324627   3.637   5.293   4.815 -0.3929  0.5514  0.1063
   48MOL    C9424628   3.528   5.324   4.895 -0.0384  0.5801 -0.2652
   48MOL    H9524629   3.419   4.816   4.677  1.4279  3.8424  0.0305
   48MOL    H9624630   3.260   4.756   4.727 -0.0513 -0.9789  1.2323
   48MOL    H9724631   3.151   4.932   4.780 -0.2168 -1.6827 -0.9247
   48MOL    H9824632   3.276   5.438   5.045 -1.2576  0.8306 -0.5450
   48MOL    H9924633   3.032   5.415   5.114  1.2860 -0.3548  1.0005
   48MOL   H10024634   2.892   5.246   5.009 -0.3767 -0.5977 -1.1924
   48MOL   H10124635   2.999   5.084   4.839  2.0602 -1.0548 -0.8977
   48MOL   H10224636   3.539   5.011   4.672  2.8689  0.1605  0.1119
   48MOL   H10324637   3.726   5.154   4.673 -1.5052  1.8415 -2.7604
   48MOL   H10424638   3.734   5.340   4.820 -0.1988  0.5294 -2.6723
   48MOL   H10524639   3.536   5.411   4.958 -2.8634  1.5251 -1.1327
   48MOL   C10624640   3.206   4.981   4.578 -0.1993 -0.0244  0.5255
   48MOL   C10724641   3.121   4.876   4.506  0.3270 -0.1429  0.4302
   48MOL   N10824642   3.002   4.842   4.587 -0.3377 -0.0679  0.2292
   48MOL   C10924643   2.977   4.716   4.648  0.0060  0.3647 -0.3125
   48MOL   C11024644   2.854   4.714   4.710  0.5141  0.4088 -0.3181
   48MOL   C11124645   2.806   4.604   4.783 -0.3009  0.1712 -0.6696
   48MOL   C11224646   2.882   4.489   4.789 -0.3432  0.0949 -0.0170
   48MOL   C11324647   3.002   4.480   4.718  0.8018 -0.5149 -0.0285
   48MOL   C11424648   3.058   4.600   4.660  0.2310  0.9706  0.3842
   48MOL   C11524649   2.795   4.839   4.682 -0.5343  0.1963  0.3414
   48MOL   C11624650   2.883   4.916   4.604  0.6650  0.0182 -0.3801
   48MOL   C11724651   2.853   5.047   4.562 -0.6584 -0.3002  0.0441
   48MOL   C11824652   2.735   5.104   4.602 -0.0107 -0.2158 -0.7243
   48MOL   C11924653   2.638   5.030   4.675  0.1096  0.7896 -0.1355
   48MOL   C12024654   2.667   4.899   4.719 -0.1342 -0.2443 -0.1430
   48MOL   H12124655   3.151   5.075   4.572  0.8786  0.4948 -2.1263
   48MOL   H12224656   3.302   4.986   4.527  0.1151 -1.4701  0.9506
   48MOL   H12324657   3.176   4.782   4.510 -0.5878 -0.7617 -1.2335
   48MOL   H12424658   2.712   4.595   4.835  0.7817 -3.7261  0.7666
   48MOL   H12524659   2.849   4.400   4.840  0.5979  0.8901  2.0228
   48MOL   H12624660   3.064   4.391   4.714  1.3166 -0.1583 -0.1211
   48MOL   H12724661   3.151   4.588   4.607 -0.9468  0.4739 -1.6358
   48MOL   H12824662   2.934   5.103   4.518 -0.9034  0.9972  1.1999
   48MOL   H12924663   2.709   5.198   4.557 -2.7807 -0.1614  0.8818
   48MOL   H13024664   2.543   5.073   4.704  1.1383  2.8918  0.1506
   48MOL   H13124665   2.597   4.848   4.783  0.3114  1.5863  1.8545
   48MOL   C13224666   3.091   4.903   4.357  0.0225 -0.1442 -0.1272
   48MOL   C13324667   3.203   4.928   4.256  0.4448 -0.7373  0.4208
   48MOL   N13424668   3.332   4.866   4.290  0.7641 -0.0700  0.3383
   48MOL   C13524669   3.448   4.932   4.320 -0.5884  0.1661  0.5621
   48MOL   C13624670   3.550   4.850   4.372  0.8074 -0.2421 -1.0896
   48MOL   C13724671   3.680   4.898   4.399  0.0906 -1.0075  0.7309
   48MOL   C13824672   3.700   5.035   4.394  0.0066 -0.7615 -0.4435
   48MOL   C13924673   3.601   5.123   4.335  0.8870  0.4105 -0.7669
   48MOL   C14024674   3.476   5.069   4.299 -0.1526 -0.4659 -0.3382
   48MOL   C14124675   3.484   4.719   4.389  0.1434 -0.1186 -0.3195
   48MOL   C14224676   3.354   4.737   4.329  0.4288  0.0750  0.1376
   48MOL   C14324677   3.261   4.630   4.310 -0.3455  0.0534  0.2077
   48MOL   C14424678   3.287   4.507   4.367  0.5303  0.9761 -0.1853
   48MOL   C14524679   3.414   4.489   4.427  0.0984 -0.0673  0.2341
   48MOL   C14624680   3.516   4.587   4.434 -0.0626 -0.4176 -0.1248
   48MOL   H14724681   3.024   4.825   4.320 -0.6949  0.1282  0.5723
   48MOL   H14824682   3.024   4.988   4.345  0.8644  0.2309 -2.6121
   48MOL   H14924683   3.228   5.034   4.263  1.2126 -1.0732  2.8640
   48MOL   H15024684   3.766   4.846   4.437  2.2611  0.6244 -1.8144
   48MOL   H15124685   3.796   5.067   4.429 -1.1872 -0.5635  2.8200
   48MOL   H15224686   3.620   5.228   4.320  0.6589  0.8088  1.4906
   48MOL   H15324687   3.403   5.133   4.251 -0.0367 -0.1240 -0.0587
   48MOL   H15424688   3.156   4.640   4.288  0.0234  3.4139 -0.3666
   48MOL   H15524689   3.213   4.430   4.385  1.4600  0.4843  1.7634
   48MOL   H15624690   3.442   4.396   4.476 -1.9558 -0.1123  1.3998
   48MOL   H15724691   3.610   4.560   4.479  0.3207 -1.5327 -1.5304
   48MOL   C15824692   3.161   4.881   4.111  0.0620 -0.3403  0.6721
   48MOL   C15924693   3.052   4.977   4.054  0.3525 -0.4005  0.3112
   48MOL   N16024694   3.107   5.110   4.055 -0.6943 -0.6662 -0.4585
   48MOL   C16124695   3.058   5.212   4.133  0.1062 -0.0325  0.0656
   48MOL   C16224696   3.135   5.332   4.109  0.0140  0.4829  0.3096
   48MOL   C16324697   3.100   5.444   4.185 -0.0248  0.1962 -0.4130
   48MOL   C16424698   2.989   5.446   4.274 -0.2743 -0.0465 -0.3149
   48MOL   C16524699   2.909   5.332   4.293  0.0701  0.1404 -0.2394
   48MOL   C16624700   2.941   5.219   4.220 -0.4231 -0.0485 -0.1847
   48MOL   C16724701   3.229   5.298   4.009  0.2605 -0.4042 -0.1109
   48MOL   C16824702   3.209   5.161   3.977  0.3964 -0.0342  0.0514
   48MOL   C16924703   3.288   5.098   3.876  0.3128 -0.4285 -0.4269
   48MOL   C17024704   3.392   5.168   3.814 -0.6448  0.4221  0.5250
   48MOL   C17124705   3.410   5.306   3.845 -0.5733 -0.3786 -0.4481
   48MOL   C17224706   3.327   5.366   3.938  0.3444 -0.3821  0.0544
   48MOL   H17324707   3.252   4.891   4.051 -0.0828 -0.7808  0.3767
   48MOL   H17424708   3.137   4.775   4.102 -2.9118  0.3674 -0.3062
   48MOL   H17524709   2.967   4.974   4.123 -2.5300  0.4285 -3.0427
   48MOL   H17624710   3.160   5.528   4.156  0.6374 -0.4058 -0.8075
   48MOL   H17724711   2.962   5.543   4.314  0.1807  0.5603 -1.4304
   48MOL   H17824712   2.823   5.331   4.359  0.1624  1.0968 -0.1004
   48MOL   H17924713   2.875   5.133   4.227  0.3352 -0.4958  1.7719
   48MOL   H18024714   3.296   4.991   3.861  1.2403 -0.4427  0.1289
   48MOL   H18124715   3.461   5.115   3.750  0.0659  0.8274  0.9486
   48MOL   H18224716   3.498   5.351   3.800  0.1592 -0.7910  0.5628
   48MOL   H18324717   3.345   5.471   3.955 -1.6216 -0.6906  4.9228
   48MOL   C18424718   3.008   4.919   3.920 -0.1351  0.8263  0.4174
   48MOL   C18524719   2.895   4.818   3.937 -0.1932 -0.5835  0.4485
   48MOL   N18624720   2.780   4.872   4.012  0.0708 -0.0838 -0.4828
   48MOL   C18724721   2.741   4.833   4.141 -0.2949  0.3815  0.0159
   48MOL   C18824722   2.622   4.904   4.180 -0.1664 -0.3661  0.4144
   48MOL   C18924723   2.564   4.876   4.303  0.0271  0.1746  0.4517
   48MOL   C19024724   2.607   4.770   4.383 -1.2711 -0.9097  0.1673
   48MOL   C19124725   2.726   4.700   4.350  0.0513 -0.2925 -0.7197
   48MOL   C19224726   2.791   4.734   4.231  0.8600 -0.6572  1.0822
   48MOL   C19324727   2.594   4.998   4.072  0.3349 -0.6845 -0.2634
   48MOL   C19424728   2.693   4.974   3.973  0.1357 -0.1444 -0.3279
   48MOL   C19524729   2.689   5.042   3.850  0.3482  0.3917  0.1610
   48MOL   C19624730   2.591   5.142   3.830 -1.2577 -0.3594  1.0488
   48MOL   C19724731   2.485   5.156   3.924 -0.2298 -0.1076  0.3365
   48MOL   C19824732   2.485   5.088   4.042 -0.4865  0.1490  0.5886
   48MOL   H19924733   2.972   4.991   3.847 -2.8567  0.3919  1.2943
   48MOL   H20024734   3.089   4.861   3.875 -2.2737 -2.6317  0.8389
   48MOL   H20124735   2.936   4.737   3.997 -0.1178 -1.8698 -1.2794
   48MOL   H20224736   2.473   4.924   4.337  0.5905  1.0307  0.7533
   48MOL   H20324737   2.560   4.744   4.476  0.0899  0.8695  1.3856
   48MOL   H20424738   2.764   4.627   4.419 -1.1331  0.3799  0.6650
   48MOL   H20524739   2.883   4.692   4.195  0.4843 -0.7347  0.2171
   48MOL   H20624740   2.767   5.027   3.777 -0.4657  2.2152 -1.1260
   48MOL   H20724741   2.582   5.194   3.736 -1.5419 -0.9827  0.7278
   48MOL   H20824742   2.409   5.231   3.906 -0.1459 -0.2339 -0.5582
   48MOL   H20924743   2.405   5.110   4.112 -1.1536 -0.4416  0.0146
   48MOL   C21024744   2.840   4.742   3.812  0.0673  0.0459 -0.1411
   48MOL   C21124745   2.953   4.672   3.725  0.3866  0.1850 -0.0083
   48MOL   N21224746   3.064   4.617   3.797 -0.4845 -0.8359 -0.0323
   48MOL   C21324747   3.200   4.652   3.780  0.4676 -0.4070 -0.0479
   48MOL   C21424748   3.287   4.596   3.879 -0.2294  0.1980  0.0444
   48MOL   C21524749   3.418   4.640   3.887  0.1502 -0.0413 -0.4451
   48MOL   C21624750   3.470   4.731   3.790 -0.3151  0.4844  0.2042
   48MOL   C21724751   3.386   4.778   3.688 -0.0532  0.5324  0.1660
   48MOL   C21824752   3.252   4.737   3.687  0.3430  0.7987 -1.2847
   48MOL   C21924753   3.204   4.503   3.952 -0.5290 -0.1778  0.2906
   48MOL   C22024754   3.068   4.513   3.892 -0.2385 -0.0736  0.2709
   48MOL   C22124755   2.970   4.428   3.946  0.5392 -0.4673  0.3942
   48MOL   C22224756   3.000   4.334   4.049  0.1152 -0.4067  0.1711
   48MOL   C22324757   3.131   4.327   4.095 -0.2013  0.9141 -0.3074
   48MOL   C22424758   3.231   4.410   4.051  0.1254 -0.6779  0.9600
   48MOL   H22524759   2.780   4.666   3.860 -0.1451  0.4002  0.1520
   48MOL   H22624760   2.779   4.801   3.743  1.0083 -1.0997 -1.9912
   48MOL   H22724761   2.987   4.754   3.663 -0.9179  0.8837  0.1725
   48MOL   H22824762   3.486   4.602   3.961  0.2358 -1.0474 -1.0335
   48MOL   H22924763   3.566   4.780   3.801  0.2840  0.0190 -2.5810
   48MOL   H23024764   3.425   4.865   3.638 -0.3526  0.5014 -0.1213
   48MOL   H23124765   3.188   4.784   3.613 -0.9010  0.6741 -0.3034
   48MOL   H23224766   2.871   4.440   3.906  1.3875  1.0110 -1.3200
   48MOL   H23324767   2.926   4.264   4.084 -0.8206 -0.2908 -1.5343
   48MOL   H23424768   3.147   4.255   4.174 -3.4814 -0.4329 -0.7997
   48MOL   H23524769   3.330   4.392   4.090  0.3283 -1.7709 -0.0356
   48MOL   C23624770   2.900   4.566   3.622  0.2423 -0.0052  0.2426
   48MOL   C23724771   2.776   4.603   3.546  0.2021 -0.5867  0.5123
   48MOL   N23824772   2.806   4.702   3.440  0.4982 -0.5245 -0.2950
   48MOL   C23924773   2.756   4.835   3.432 -0.7173  0.5665 -0.2328
   48MOL   C24024774   2.817   4.900   3.322  0.5400 -0.1358 -0.7215
   48MOL   C24124775   2.776   5.029   3.291 -1.0152  0.0640  0.3270
   48MOL   C24224776   2.698   5.101   3.383  0.1359 -0.7795  0.2626
   48MOL   C24324777   2.645   5.038   3.499 -0.4716  0.1645 -0.2127
   48MOL   C24424778   2.668   4.902   3.520  0.4301  1.0075 -0.1379
   48MOL   C24524779   2.891   4.805   3.252 -0.1138 -0.0623 -0.6739
   48MOL   C24624780   2.887   4.686   3.326 -0.0980  0.7010 -0.3937
   48MOL   C24724781   2.965   4.570   3.289  0.4318 -1.0284 -0.0948
   48MOL   C24824782   3.037   4.575   3.170  0.2444 -0.4034  0.5319
   48MOL   C24924783   3.034   4.693   3.089 -0.3322 -0.0667  0.5554
   48MOL   C25024784   2.958   4.806   3.128  0.1533  0.3965  0.1190
   48MOL   H25124785   2.975   4.529   3.551  0.5509  0.8718  0.1067
   48MOL   H25224786   2.879   4.477   3.682 -1.6171 -0.3879 -0.9552
   48MOL   H25324787   2.703   4.650   3.612 -0.7360 -2.3421  0.7724
   48MOL   H25424788   2.826   5.076   3.207 -1.3798 -0.7532 -0.3467
   48MOL   H25524789   2.670   5.202   3.357  1.3006 -0.1895  1.2619
   48MOL   H25624790   2.578   5.089   3.567  0.6565  2.7023 -0.9477
   48MOL   H25724791   2.623   4.852   3.604  1.9109 -0.4846 -0.2047
   48MOL   H25824792   2.961   4.471   3.333 -1.1118 -1.0109 -0.1647
   48MOL   H25924793   3.091   4.487   3.139  0.1380 -0.1280 -0.4426
   48MOL   H26024794   3.082   4.700   2.993  1.1855 -0.2622  1.2853
   48MOL   H26124795   2.968   4.888   3.057  0.4233 -0.4365 -0.8211
   48MOL   C26224796   2.702   4.478   3.488 -0.9854 -0.1511 -0.0938
   48MOL   C26324797   2.624   4.393   3.599  0.1131 -0.7263 -0.2682
   48MOL   N26424798   2.551   4.482   3.697  0.3379 -0.3497 -0.2938
   48MOL   C26524799   2.569   4.473   3.833  0.2073 -0.4013 -0.0452
   48MOL   C26624800   2.521   4.589   3.893 -0.1382 -0.0561  0.0495
   48MOL   C26724801   2.522   4.604   4.030 -0.8532  0.2433  0.1093
   48MOL   C26824802   2.569   4.506   4.114 -0.2185 -0.8228  0.6202
   48MOL   C26924803   2.613   4.382   4.053  0.1911 -0.3830 -0.1665
   48MOL   C27024804   2.621   4.371   3.913  0.7617 -0.1183  0.6113
   48MOL   C27124805   2.467   4.671   3.791 -0.4313 -0.7522  0.1428
   48MOL   C27224806   2.476   4.599   3.665  0.5241  0.1138 -0.3190
   48MOL   C27324807   2.426   4.650   3.548 -0.3998 -0.6381 -0.6713
   48MOL   C27424808   2.341   4.761   3.554  0.5828  0.2039  0.6180
   48MOL   C27524809   2.340   4.840   3.672  0.0672 -0.0915  0.0613
   48MOL   C27624810   2.406   4.797   3.788  0.1855  0.0021 -0.4961
   48MOL   H27724811   2.644   4.519   3.405  0.9156 -2.4138 -2.6260
   48MOL   H27824812   2.767   4.402   3.444 -2.4228 -1.0932 -0.6202
   48MOL   H27924813   2.707   4.339   3.645  1.2301  1.6645  0.6034
   48MOL   H28024814   2.475   4.688   4.078  0.4271  1.7846 -1.2268
   48MOL   H28124815   2.572   4.505   4.222 -0.4970 -0.8517  0.6285
   48MOL   H28224816   2.647   4.295   4.107  1.6179  1.9831  2.9037
   48MOL   H28324817   2.643   4.276   3.868  3.9323  1.4046 -1.1777
   48MOL   H28424818   2.431   4.588   3.459 -0.5107 -3.2865  1.0935
   48MOL   H28524819   2.297   4.796   3.462 -1.0584  0.5627  1.5351
   48MOL   H28624820   2.288   4.934   3.670  1.9051  0.9554  0.8439
   48MOL   H28724821   2.399   4.866   3.870  1.2010 -0.6458  0.1389
   48MOL   C28824822   2.519   4.301   3.544 -0.2319 -0.3894 -0.0396
   48MOL   C28924823   2.560   4.184   3.446  0.7190 -0.5322  0.0812
   48MOL   N29024824   2.702   4.142   3.468 -0.6041  0.1898  0.2533
   48MOL   C29124825   2.808   4.161   3.379 -0.3288 -0.4409 -0.5294
   48MOL   C29224826   2.931   4.110   3.433 -0.4815  0.0195  0.3114
   48MOL   C29324827   3.043   4.129   3.351 -0.4934  0.1493 -0.4027
   48MOL   C29424828   3.037   4.173   3.217  0.4028 -0.5380 -0.2980
   48MOL   C29524829   2.915   4.217   3.161  1.3430 -0.2584 -0.3387
   48MOL   C29624830   2.801   4.209   3.245 -0.6769 -0.2138 -0.0835
   48MOL   C29724831   2.897   4.052   3.563 -0.6566  0.0900 -0.3149
   48MOL   C29824832   2.757   4.080   3.585  0.1673  0.0942  0.2258
   48MOL   C29924833   2.692   4.040   3.706 -0.3245  0.4943 -0.5333
   48MOL   C30024834   2.760   3.960   3.803  0.3372 -0.6569 -0.1133
   48MOL   C30124835   2.897   3.930   3.781  0.2008 -0.5644  0.1401
   48MOL   C30224836   2.960   3.979   3.664 -0.1418 -0.3782 -0.4546
   48MOL   H30324837   2.458   4.262   3.626 -4.4624  0.3480 -2.6957
   48MOL   H30424838   2.444   4.365   3.498  1.0478  1.2220  0.0699
   48MOL   H30524839   2.557   4.222   3.344  1.0342 -1.8409 -0.4342
   48MOL   H30624840   3.140   4.108   3.393 -0.9057  2.6948  1.9604
   48MOL   H30724841   3.132   4.190   3.169 -0.4177  0.1781 -1.6926
   48MOL   H30824842   2.911   4.253   3.060 -1.2350 -4.0690 -1.7267
   48MOL   H30924843   2.708   4.235   3.198 -0.3135  0.4861 -0.4255
   48MOL   H31024844   2.591   4.064   3.735 -0.5955  0.6244 -1.5829
   48MOL   H31124845   2.715   3.930   3.896  1.7911 -1.3507  0.3891
   48MOL   H31224846   2.948   3.882   3.863  1.4537 -0.7849 -0.7534
   48MOL   H31324847   3.064   3.953   3.661  0.0148 -0.2606  2.6869
   48MOL   C31424848   2.461   4.067   3.466 -0.0441  0.2679  0.4847
   48MOL   C31524849   2.451   3.964   3.354 -0.5305 -0.5602 -0.0223
   48MOL   N31624850   2.577   3.908   3.302  0.0546  0.2212  0.0904
   48MOL   C31724851   2.622   3.916   3.172 -0.3649  0.1742  0.4706
   48MOL   C31824852   2.762   3.864   3.175  0.1865  0.8556  0.0081
   48MOL   C31924853   2.837   3.890   3.061 -0.1781  0.0377  0.2095
   48MOL   C32024854   2.789   3.946   2.942  0.4006 -0.1714  0.7585
   48MOL   C32124855   2.651   3.984   2.936  0.3266 -0.1209  0.6878
   48MOL   C32224856   2.572   3.974   3.051 -0.2733 -0.1637  0.5266
   48MOL   C32324857   2.782   3.795   3.296  0.5409  0.3334  0.3067
   48MOL   C32424858   2.664   3.823   3.376 -0.0322  0.7598  0.2384
   48MOL   C32524859   2.657   3.770   3.507 -0.7762 -0.2421 -0.6032
   48MOL   C32624860   2.773   3.704   3.562  0.9953 -0.8141  0.0636
   48MOL   C32724861   2.886   3.676   3.487 -0.0736 -0.7626  0.1453
   48MOL   C32824862   2.888   3.720   3.354  0.3956  0.6037  0.3456
   48MOL   H32924863   2.469   4.018   3.563 -1.4963  0.2706  0.6147
   48MOL   H33024864   2.364   4.117   3.472 -0.3057 -0.0276 -1.0081
   48MOL   H33124865   2.418   4.028   3.272  1.1859  0.6482  0.2069
   48MOL   H33224866   2.942   3.867   3.063 -0.7437 -2.5880  3.2089
   48MOL   H33324867   2.860   3.943   2.861 -0.0991 -3.1658  0.3636
   48MOL   H33424868   2.605   4.016   2.844  1.9413 -1.5706 -0.6572
   48MOL   H33524869   2.468   4.001   3.040 -1.1283 -3.1693  0.6619
   48MOL   H33624870   2.568   3.782   3.566 -0.1668  1.6113 -0.0108
   48MOL   H33724871   2.759   3.648   3.653  1.0319  0.0272  0.6001
   48MOL   H33824872   2.967   3.622   3.534  1.2175 -0.0172 -1.1826
   48MOL   H33924873   2.969   3.686   3.291 -0.3074 -2.8998  1.2054
   48MOL   C34024874   2.331   3.868   3.389 -0.1079 -1.2141  0.2503
   48MOL   C34124875   2.312   3.741   3.316  0.3865 -0.0012 -0.6321
   48MOL   N34224876   2.208   3.661   3.382 -0.3189  0.0786 -0.4439
   48MOL   C34324877   2.236   3.530   3.432 -0.0230 -0.0197  0.3118
   48MOL   C34424878   2.117   3.467   3.463 -0.5154  0.1115 -0.0089
   48MOL   C34524879   2.129   3.334   3.513 -0.5178 -0.3062  0.0121
   48MOL   C34624880   2.250   3.275   3.547 -0.1565  0.2850 -0.9412
   48MOL   C34724881   2.368   3.340   3.508 -0.0794  0.0257 -0.0320
   48MOL   C34824882   2.363   3.468   3.453 -0.6314  0.2750 -0.2550
   48MOL   C34924883   2.006   3.547   3.418 -0.7996  0.3670 -1.1794
   48MOL   C35024884   2.070   3.668   3.371 -0.4235 -0.1615  0.7682
   48MOL   C35124885   1.989   3.767   3.308 -0.4384 -0.0329 -0.8260
   48MOL   C35224886   1.848   3.753   3.311 -0.3126  0.1281 -0.3308
   48MOL   C35324887   1.789   3.639   3.365 -0.1887 -0.5930  0.4877
   48MOL   C35424888   1.865   3.536   3.415 -0.7343  0.8924 -0.5450
   48MOL   H35524889   2.341   3.844   3.495 -2.4276  2.7829  1.4713
   48MOL   H35624890   2.249   3.937   3.372 -0.3439 -1.8041 -1.1182
   48MOL   H35724891   2.411   3.695   3.326  0.7298  1.0353  1.0549
   48MOL   H35824892   2.045   3.269   3.534  1.3865 -2.6434  0.6777
   48MOL   H35924893   2.257   3.178   3.594  1.9171  1.2568  0.8362
   48MOL   H36024894   2.462   3.292   3.526 -0.1992 -0.8843 -1.7106
   48MOL   H36124895   2.457   3.505   3.416  0.3913 -0.1698  1.8634
   48MOL   H36224896   2.041   3.857   3.276  0.2253  0.1281  0.6524
   48MOL   H36324897   1.798   3.836   3.264  0.9382  0.5983 -0.8465
   48MOL   H36424898   1.682   3.624   3.369 -0.4324  0.5573 -0.8880
   48MOL   H36524899   1.819   3.453   3.468 -0.0960 -0.8639 -2.6557
   48MOL   C36624900   2.295   3.756   3.159  0.8727 -0.5220  0.2167
   48MOL   C36724901   2.238   3.635   3.083  0.0766  0.0460  0.7106
   48MOL   N36824902   2.206   3.667   2.945  0.5295 -0.4982  0.0798
   48MOL   C36924903   2.074   3.666   2.892 -0.8932  0.4839 -0.9297
   48MOL   C37024904   2.081   3.691   2.753  0.0425 -0.1427  0.0692
   48MOL   C37124905   1.961   3.682   2.678  0.2292 -0.3468 -0.0116
   48MOL   C37224906   1.834   3.668   2.737 -0.7553  0.7410 -0.3760
   48MOL   C37324907   1.829   3.649   2.876 -0.0515  0.2912 -0.0201
   48MOL   C37424908   1.947   3.643   2.953  0.1640  0.5287 -0.2241
   48MOL   C37524909   2.218   3.717   2.717  0.4479 -0.5823 -0.1632
   48MOL   C37624910   2.289   3.708   2.844  0.2534 -0.1781  0.1867
   48MOL   C37724911   2.426   3.738   2.852 -0.0688 -0.6022 -0.4631
   48MOL   C37824912   2.500   3.763   2.733  0.5281 -0.4628 -0.0544
   48MOL   C37924913   2.431   3.768   2.609  0.5489  0.4976  0.2921
   48MOL   C38024914   2.295   3.739   2.601 -0.1280 -0.1580  0.0275
   48MOL   H38124915   2.219   3.833   3.145 -0.0198 -1.4828 -0.3823
   48MOL   H38224916   2.388   3.791   3.115  0.7318  1.3581  1.3852
   48MOL   H38324917   2.152   3.608   3.143  1.2932 -1.1276  1.9449
   48MOL   H38424918   1.975   3.690   2.572 -0.7659 -1.2114 -0.2229
   48MOL   H38524919   1.743   3.661   2.680 -1.6949 -4.1009  1.4491
   48MOL   H38624920   1.744   3.620   2.937 -0.1010  0.1701 -0.1457
   48MOL   H38724921   1.944   3.630   3.060  2.4565  1.3194 -0.0415
   48MOL   H38824922   2.481   3.730   2.944 -1.4509 -2.0967  0.2592
   48MOL   H38924923   2.605   3.786   2.733  0.4816 -0.2267  0.7886
   48MOL   H39024924   2.494   3.794   2.525 -0.0372 -0.5186 -0.4749
   48MOL   H39124925   2.243   3.734   2.507  1.2465  2.4245 -0.9080
   48MOL   C39224926   2.331   3.511   3.090 -0.3796  0.1771  0.4995
   48MOL   C39324927   2.267   3.385   3.033 -0.0655  0.0777  0.4660
   48MOL   N39424928   2.368   3.286   3.005 -0.1017  0.0660 -0.1048
   48MOL   C39524929   2.431   3.269   2.880 -0.5773 -0.3949 -0.2356
   48MOL   C39624930   2.532   3.171   2.889 -0.3947  0.2574 -0.5256
   48MOL   C39724931   2.607   3.141   2.778 -0.6297 -0.1461 -0.6577
   48MOL   C39824932   2.598   3.220   2.660  0.3641  0.6830 -0.3458
   48MOL   C39924933   2.505   3.325   2.649  0.8163 -0.0346  0.3618
   48MOL   C40024934   2.413   3.340   2.758 -0.2652  0.5843 -0.6021
   48MOL   C40124935   2.538   3.128   3.024  0.3689  0.4913 -0.1536
   48MOL   C40224936   2.432   3.195   3.092 -0.1501  0.1952  0.1448
   48MOL   C40324937   2.409   3.163   3.228 -0.1147 -0.6385  0.1221
   48MOL   C40424938   2.478   3.062   3.287  0.3375  0.8709  0.3512
   48MOL   C40524939   2.576   2.985   3.219 -0.3570  0.3918  0.2480
   48MOL   C40624940   2.609   3.025   3.091 -0.0834 -0.7135  0.5397
   48MOL   H40724941   2.428   3.527   3.043  0.9678 -1.8109  2.4810
   48MOL   H40824942   2.362   3.494   3.193 -0.2844 -1.4997  0.2115
   48MOL   H40924943   2.234   3.424   2.937 -0.6886 -0.0576  0.6267
   48MOL   H41024944   2.681   3.062   2.790 -0.3215  0.3782  0.9900
   48MOL   H41124945   2.661   3.191   2.577 -0.5504  1.6380 -1.3810
   48MOL   H41224946   2.494   3.388   2.563  1.9142 -0.1483  0.1337
   48MOL   H41324947   2.339   3.419   2.756 -1.0125 -0.0733  0.3449
   48MOL   H41424948   2.335   3.209   3.291  0.2943 -0.7524  0.6922
   48MOL   H41524949   2.442   3.022   3.380 -0.9441  0.3765 -0.3548
   48MOL   H41624950   2.628   2.897   3.255 -0.6481  0.1359  0.0512
   48MOL   H41724951   2.677   2.962   3.034  0.0770  0.6552 -0.8066
   48MOL   C41824952   2.143   3.332   3.110 -0.2913 -0.1953  0.1404
   48MOL   C41924953   2.070   3.219   3.035  0.1674  0.0150  0.5487
   48MOL   N42024954   1.968   3.150   3.107  0.1890  0.1570 -0.5172
   48MOL   C42124955   1.966   3.014   3.147 -0.3870  0.1304  0.0731
   48MOL   C42224956   1.838   2.988   3.200 -0.4467  0.2161 -0.9294
   48MOL   C42324957   1.812   2.856   3.246  0.4596 -0.3244  0.2561
   48MOL   C42424958   1.910   2.752   3.248  0.4701  0.0074 -0.1067
   48MOL   C42524959   2.031   2.781   3.185  0.3027 -0.4395  0.0802
   48MOL   C42624960   2.060   2.911   3.135 -0.2612  0.1221  0.2430
   48MOL   C42724961   1.761   3.109   3.207 -0.2830 -0.4492 -0.3661
   48MOL   C42824962   1.838   3.205   3.142 -0.3135  0.1256 -0.1608
   48MOL   C42924963   1.781   3.334   3.114 -0.3677  0.0634 -0.0048
   48MOL   C43024964   1.653   3.366   3.167  1.1412  0.1219 -0.4943
   48MOL   C43124965   1.585   3.277   3.247  0.4941  0.1154  0.0524
   48MOL   C43224966   1.631   3.141   3.258 -0.7061  0.4745  0.0202
   48MOL   H43324967   2.179   3.300   3.208  0.5625  0.0634 -0.0826
   48MOL   H43424968   2.071   3.410   3.133  1.2869  0.9603  1.3207
   48MOL   H43524969   2.145   3.141   3.020 -0.1808 -0.2175 -0.0099
   48MOL   H43624970   1.718   2.816   3.280 -0.5289  0.7410 -1.2061
   48MOL   H43724971   1.879   2.650   3.265 -0.0540  0.2549  0.4304
   48MOL   H43824972   2.106   2.704   3.172  0.8192 -0.0975  0.9268
   48MOL   H43924973   2.154   2.930   3.086  1.8017 -0.6896  3.6902
   48MOL   H44024974   1.836   3.399   3.049 -0.8941  0.1586 -0.3574
   48MOL   H44124975   1.615   3.463   3.139  2.7649  1.7011  2.4914
   48MOL   H44224976   1.487   3.285   3.291 -0.0155  1.0367 -1.2241
   48MOL   H44324977   1.578   3.059   3.304  0.6326  0.1591  1.0247
   48MOL   C44424978   2.024   3.253   2.893 -0.6113 -0.0787 -0.2294
   48MOL   C44524979   1.939   3.153   2.812  0.2748 -0.7657 -0.9149
   48MOL   N44624980   1.884   3.227   2.696 -0.0208  0.6114  0.2502
   48MOL   C44724981   1.745   3.256   2.671 -0.2390  0.0098 -0.8449
   48MOL   C44824982   1.732   3.328   2.547 -0.3159  0.5337 -1.3954
   48MOL   C44924983   1.604   3.371   2.508 -0.6411 -0.7500 -0.0456
   48MOL   C45024984   1.491   3.333   2.585 -0.4269 -0.5403  0.0351
   48MOL   C45124985   1.506   3.268   2.705 -0.5903 -0.4612 -1.0191
   48MOL   C45224986   1.632   3.233   2.752 -0.3183 -0.3217 -0.3654
   48MOL   C45324987   1.867   3.347   2.505 -0.0788 -0.2910  0.2455
   48MOL   C45424988   1.956   3.284   2.591  0.4478  0.3298 -0.0239
   48MOL   C45524989   2.091   3.287   2.566  0.1590 -0.4009 -0.2817
   48MOL   C45624990   2.145   3.348   2.448  0.4006  0.2027  0.7435
   48MOL   C45724991   2.056   3.418   2.367  0.2695 -0.2867  0.3131
   48MOL   C45824992   1.915   3.421   2.400 -0.2884 -0.6518 -0.5276
   48MOL   H45924993   1.973   3.348   2.903 -1.8178 -0.5647 -1.6487
   48MOL   H46024994   2.113   3.264   2.831 -0.0750  0.7356  0.6724
   48MOL   H46124995   1.856   3.135   2.881  0.5467  1.0263 -0.1031
   48MOL   H46224996   1.591   3.421   2.412  1.4758 -0.6275 -0.2995
   48MOL   H46324997   1.393   3.363   2.552 -0.3849 -1.4832 -0.9699
   48MOL   H46424998   1.424   3.255   2.775 -0.2127  0.7053 -0.3620
   48MOL   H46524999   1.640   3.177   2.844  2.2207 -2.2169 -1.6806
   48MOL   H46625000   2.162   3.233   2.626  1.7118 -0.4360 -2.1082
   48MOL   H46725001   2.252   3.347   2.432  0.6822 -4.1027  2.2745
   48MOL   H46825002   2.083   3.455   2.270  0.4151  0.3136  0.5800
   48MOL   H46925003   1.843   3.466   2.333 -0.6351 -1.9044 -1.0122
   48MOL   C47025004   2.008   3.022   2.776  0.1366 -0.1539  0.2828
   48MOL   C47125005   1.910   2.930   2.699 -0.1364 -0.3957 -0.3505
   48MOL   N47225006   1.981   2.824   2.619 -0.0804  0.0380 -0.4388
   48MOL   C47325007   2.008   2.824   2.484 -0.0924  0.3393 -0.0857
   48MOL   C47425008   2.082   2.700   2.453 -0.4887  0.5861  0.2567
   48MOL   C47525009   2.122   2.681   2.317  0.2136 -0.2086  0.3541
   48MOL   C47625010   2.083   2.774   2.218 -1.0886 -0.6218  0.3723
   48MOL   C47725011   2.006   2.889   2.248  0.1934  0.3084  0.8474
   48MOL   C47825012   1.980   2.920   2.388 -0.3612  0.9054 -0.1214
   48MOL   C47925013   2.103   2.632   2.579  0.9487 -0.1071 -0.2416
   48MOL   C48025014   2.048   2.715   2.686  0.4628  0.0317  0.1930
   48MOL   C48125015   2.065   2.672   2.818  0.0868  0.6211  1.0280
   48MOL   C48225016   2.127   2.547   2.855 -0.2970 -0.8394  0.0856
   48MOL   C48325017   2.183   2.467   2.751 -0.7655  0.1540 -0.0693
   48MOL   C48425018   2.176   2.509   2.614  0.4463 -0.0174  0.2205
   48MOL   H48525019   2.096   3.043   2.716 -0.5680 -0.0826 -0.7454
   48MOL   H48625020   2.029   2.968   2.869  0.0162  1.1440  1.0687
   48MOL   H48725021   1.855   2.990   2.626 -0.6476 -2.9313 -2.1196
   48MOL   H48825022   2.178   2.594   2.289  1.4797  0.9403 -0.7802
   48MOL   H48925023   2.104   2.745   2.116  1.3892  0.1941  0.6135
   48MOL   H49025024   1.969   2.957   2.173 -0.0662 -1.6180 -0.8022
   48MOL   H49125025   1.928   3.012   2.412  0.2293  1.2250 -0.0519
   48MOL   H49225026   2.022   2.737   2.893 -2.7016  0.8364 -0.6709
   48MOL   H49325027   2.121   2.511   2.957  1.0432 -2.7522 -0.4954
   48MOL   H49425028   2.234   2.375   2.774  1.5683  1.1564 -1.0523
   48MOL   H49525029   2.210   2.451   2.530  0.7210  1.7084 -0.8934
   48MOL   C49625030   1.795   2.868   2.784  0.3855 -0.0405  0.1739
   48MOL   C49725031   1.699   2.781   2.705 -0.0590  0.1788  0.3028
   48MOL   N49825032   1.578   2.754   2.776 -0.1431 -0.3357 -0.1711
   48MOL   C49925033   1.460   2.816   2.773  0.6400 -0.5053 -0.4927
   48MOL   C50025034   1.364   2.758   2.857 -0.0292  0.3720  0.1157
   48MOL   C50125035   1.237   2.820   2.873 -0.2613 -0.0626 -0.2344
   48MOL   C50225036   1.207   2.941   2.811 -0.0600 -0.9928 -0.3202
   48MOL   C50325037   1.309   2.998   2.731 -0.7508  0.6325 -0.5995
   48MOL   C50425038   1.433   2.935   2.704 -0.1108 -0.1584  0.1089
   48MOL   C50525039   1.435   2.648   2.918 -0.2519  0.2921 -0.0924
   48MOL   C50625040   1.566   2.648   2.868 -0.0883 -0.2787 -0.4020
   48MOL   C50725041   1.662   2.567   2.921  0.0283 -0.2628 -0.7865
   48MOL   C50825042   1.622   2.469   3.013  0.4120  0.4289 -0.2156
   48MOL   C50925043   1.489   2.460   3.052 -0.1817  0.4750 -0.0671
   48MOL   C51025044   1.400   2.552   3.005 -0.7622 -0.5023  0.2320
   48MOL   H51125045   1.822   2.813   2.874 -0.8702 -0.6849  0.1592
   48MOL   H51225046   1.740   2.948   2.833 -1.6880 -1.5429  0.3422
   48MOL   H51325047   1.747   2.687   2.681 -2.3711 -0.9582 -0.0810
   48MOL   H51425048   1.155   2.788   2.937 -1.8069  2.2972 -0.9606
   48MOL   H51525049   1.109   2.986   2.812 -0.0792 -1.0359 -0.1251
   48MOL   H51625050   1.294   3.092   2.680  0.3476  0.5872 -1.0285
   48MOL   H51725051   1.508   2.993   2.652 -2.1447  1.9620 -0.5749
   48MOL   H51825052   1.767   2.566   2.895  0.0371  3.1547 -1.2008
   48MOL   H51925053   1.698   2.405   3.056 -0.1342 -1.9308 -2.6705
   48MOL   H52025054   1.453   2.386   3.123 -1.6582 -0.2505 -1.5246
   48MOL   H52125055   1.299   2.541   3.043 -0.9987 -1.9772 -0.7804
   48MOL   H52225056   1.675   2.827   2.609  0.9560  1.8243  0.8228
   49MOL     C125057   2.795   0.071   2.243  0.0398  0.4740  0.5415
   49MOL     C225058   2.756   8.180   2.152 -0.1712  0.8458  0.0162
   49MOL     N325059   2.829   8.200   2.022 -0.5126 -0.1758 -0.3200
   49MOL     C425060   2.774   0.006   1.899 -0.5713  0.1843  0.0444
   49MOL     C525061   2.872   0.008   1.798 -0.8503 -0.1752  0.2214
   49MOL     C625062   2.831   0.030   1.661 -0.7072 -0.5173 -0.1591
   49MOL     C725063   2.693   0.057   1.628  0.7544  0.9864  0.0860
   49MOL     C825064   2.609   0.056   1.740  0.4894 -0.3130  0.6650
   49MOL     C925065   2.643   0.029   1.871  0.3091  0.8583 -0.1054
   49MOL    C1025066   2.994   8.202   1.859 -0.7883  0.0475 -0.0105
   49MOL    C1125067   2.968   8.193   2.001  0.0470  0.0947  0.7894
   49MOL    C1225068   3.075   8.178   2.095 -0.1926 -0.1357  0.8744
   49MOL    C1325069   3.204   8.160   2.042 -0.0235 -0.3377 -0.0670
   49MOL    C1425070   3.230   8.162   1.902 -0.5304 -0.7341  0.1675
   49MOL    C1525071   3.124   8.177   1.816  0.6715 -0.0452 -0.1560
   49MOL    H1625072   2.716   0.068   2.319 -1.2671 -0.3290 -0.8153
   49MOL    H1725073   2.803   0.172   2.204  1.2268  0.8427  1.6850
   49MOL    H1825074   2.650   8.184   2.127 -0.8644 -0.8656  2.5640
   49MOL    H1925075   2.906   0.036   1.584 -1.3952  0.2330 -0.7841
   49MOL    H2025076   2.658   0.084   1.529 -0.7215 -0.0792  0.2902
   49MOL    H2125077   2.505   0.082   1.729  0.3237 -1.3153 -0.2365
   49MOL    H2225078   2.567   0.036   1.947 -0.6458 -0.3956 -0.9142
   49MOL    H2325079   3.054   8.176   2.201 -2.0694 -2.8029  0.5238
   49MOL    H2425080   3.279   8.152   2.120  0.3372  1.7078 -0.1659
   49MOL    H2525081   3.330   8.152   1.862 -0.6390 -1.0895 -0.0133
   49MOL    H2625082   3.134   8.172   1.708  1.7438 -0.3798 -0.0446
   49MOL    H2725083   2.886   0.042   2.295  0.9227  2.1047 -0.0701
   49MOL    C2825084   2.788   8.043   2.212 -0.5087 -0.3388 -0.5629
   49MOL    C2925085   2.708   7.997   2.337  0.2960 -0.8634  0.3202
   49MOL    N3025086   2.571   8.040   2.344 -0.2865  0.5034 -0.4361
   49MOL    C3125087   2.492   8.078   2.457 -0.2617 -0.8239 -0.4573
   49MOL    C3225088   2.354   8.096   2.429 -0.0334  0.8089  0.4499
   49MOL    C3325089   2.271   8.119   2.541 -1.0254  1.0404 -0.5489
   49MOL    C3425090   2.320   8.138   2.673 -0.6384  0.4084  0.3652
   49MOL    C3525091   2.456   8.116   2.696  0.3869  0.2109  0.8893
   49MOL    C3625092   2.538   8.090   2.587  0.2543  0.1616  0.7639
   49MOL    C3725093   2.343   8.074   2.287 -0.1371  0.2992 -0.5138
   49MOL    C3825094   2.471   8.034   2.237 -0.3155  0.1213 -0.3320
   49MOL    C3925095   2.486   7.987   2.101  0.3172 -0.6935 -0.2303
   49MOL    C4025096   2.380   7.990   2.010 -0.0240  0.2691  0.5195
   49MOL    C4125097   2.261   8.053   2.052  0.3852 -0.7946 -0.2263
   49MOL    C4225098   2.240   8.090   2.189 -0.0857 -0.1336 -0.7165
   49MOL    H4325099   2.776   7.974   2.129 -0.1958 -1.2527  0.1433
   49MOL    H4425100   2.893   8.045   2.241 -0.6408  0.4388 -0.1033
   49MOL    H4525101   2.757   8.054   2.416  0.6384 -0.0735 -0.4458
   49MOL    H4625102   2.163   8.112   2.531 -1.1043  1.9325 -0.3322
   49MOL    H4725103   2.256   8.161   2.757 -1.7970 -0.6996 -0.1964
   49MOL    H4825104   2.485   8.106   2.799  0.3840  0.2820  0.8973
   49MOL    H4925105   2.644   8.072   2.604 -0.0081  0.1434  2.4930
   49MOL    H5025106   2.583   7.954   2.064  0.5720 -0.6324  0.3871
   49MOL    H5125107   2.396   7.949   1.911  1.6149 -0.9743  1.2667
   49MOL    H5225108   2.187   8.061   1.974  0.0564  1.6437  0.2957
   49MOL    H5325109   2.148   8.133   2.225  0.8563  1.0540  0.3452
   49MOL    C5425110   2.707   7.847   2.359  0.2109  0.1227 -0.0382
   49MOL    C5525111   2.851   7.806   2.387  0.1725  0.4525  0.2005
   49MOL    N5625112   2.906   7.855   2.510  0.4494  0.5982 -0.8585
   49MOL    C5725113   3.007   7.950   2.520  0.0609 -0.5024 -0.4994
   49MOL    C5825114   3.030   7.971   2.653 -0.2639 -0.0053  0.2542
   49MOL    C5925115   3.114   8.070   2.696 -0.2368 -1.4191  0.6734
   49MOL    C6025116   3.164   8.156   2.599 -0.2676 -0.3310 -0.4313
   49MOL    C6125117   3.157   8.127   2.467  0.3770 -0.1255 -0.6662
   49MOL    C6225118   3.081   8.018   2.423  0.4369 -0.5627  0.0163
   49MOL    C6325119   2.954   7.878   2.731 -0.0316  0.0371 -0.6987
   49MOL    C6425120   2.864   7.817   2.638 -0.3799 -0.4578 -0.1730
   49MOL    C6525121   2.770   7.730   2.691  0.6645 -0.7202  0.8487
   49MOL    C6625122   2.743   7.720   2.830  0.4437 -0.1081  0.6575
   49MOL    C6725123   2.839   7.775   2.919 -0.3610 -0.2198  0.0138
   49MOL    C6825124   2.945   7.851   2.871 -0.1219 -0.7642  0.0706
   49MOL    H6925125   2.637   7.819   2.437 -0.6324  1.7856 -0.1914
   49MOL    H7025126   2.676   7.807   2.262 -0.7445 -0.4177  0.4854
   49MOL    H7125127   2.901   7.852   2.302 -2.8337  0.2596 -1.7313
   49MOL    H7225128   3.120   8.086   2.802 -0.2292  1.3828  0.2988
   49MOL    H7325129   3.234   0.004   2.631 -1.4238 -0.4310  2.4594
   49MOL    H7425130   3.202   8.194   2.395  1.3651 -1.1055 -0.9765
   49MOL    H7525131   3.075   7.995   2.318 -1.2082  0.5890 -0.1647
   49MOL    H7625132   2.699   7.679   2.628  0.9964  2.4139 -2.1626
   49MOL    H7725133   2.665   7.652   2.861  0.8203  0.2363  2.3966
   49MOL    H7825134   2.825   7.755   3.024  2.8752 -1.5687  0.2407
   49MOL    H7925135   3.008   7.905   2.940 -1.9578  2.2959 -0.5558
   49MOL    C8025136   2.867   7.654   2.386  0.2336 -0.0375  0.1895
   49MOL    C8125137   2.844   7.587   2.242 -0.1957 -0.4559 -0.2700
   49MOL    N8225138   2.928   7.653   2.143  0.3571 -0.0734  0.7448
   49MOL    C8325139   2.875   7.729   2.035  0.0459 -0.4167  0.0001
   49MOL    C8425140   2.980   7.783   1.958  0.3267 -0.1208  0.0718
   49MOL    C8525141   2.952   7.864   1.843 -0.0866  0.3097 -0.1573
   49MOL    C8625142   2.819   7.870   1.798 -0.5901  0.4985  0.4669
   49MOL    C8725143   2.713   7.800   1.862 -0.6389  0.7511 -0.6607
   49MOL    C8825144   2.745   7.734   1.985 -0.4614  0.3450  0.1364
   49MOL    C8925145   3.096   7.760   2.037  0.5227 -0.7133 -0.6001
   49MOL    C9025146   3.067   7.676   2.154 -0.9605 -0.2380  0.3019
   49MOL    C9125147   3.175   7.631   2.240  0.2996  0.0496 -0.1786
   49MOL    C9225148   3.305   7.663   2.209 -0.0440  0.4872 -0.5980
   49MOL    C9325149   3.338   7.748   2.098 -1.0264  0.4582 -0.1697
   49MOL    C9425150   3.232   7.800   2.018 -0.1677  0.2154  0.2300
   49MOL    H9525151   2.972   7.639   2.415 -0.1137 -1.5898  0.6826
   49MOL    H9625152   2.817   7.587   2.456 -1.0669 -0.3241 -1.0029
   49MOL    H9725153   2.739   7.608   2.222 -0.4080  1.2150  2.3369
   49MOL    H9825154   3.041   7.897   1.791  0.2096 -0.2117  0.0192
   49MOL    H9925155   2.799   7.916   1.703  0.9595 -2.0237 -1.1397
   49MOL   H10025156   2.610   7.811   1.833 -1.3607  1.2067  1.9228
   49MOL   H10125157   2.661   7.699   2.044 -0.2952 -1.5940 -0.7249
   49MOL   H10225158   3.154   7.559   2.318 -1.0907 -0.1657 -0.7318
   49MOL   H10325159   3.382   7.625   2.275  0.2039 -1.2424 -1.8455
   49MOL   H10425160   3.439   7.776   2.072 -0.3414 -0.7712  1.0698
   49MOL   H10525161   3.243   7.863   1.931  0.7654  1.0571  0.9488
   49MOL   C10625162   2.859   7.431   2.227  0.2086 -0.1498 -0.1122
   49MOL   C10725163   2.779   7.343   2.332 -0.2649  0.7825 -0.4868
   49MOL   N10825164   2.639   7.381   2.334  0.0972  0.6309 -0.2387
   49MOL   C10925165   2.563   7.397   2.451  0.5330 -0.0052 -0.3034
   49MOL   C11025166   2.443   7.461   2.417 -0.3735 -0.2532 -0.0301
   49MOL   C11125167   2.356   7.515   2.519 -0.0849 -0.2761  0.4463
   49MOL   C11225168   2.398   7.501   2.649  0.0108  0.5608  0.4656
   49MOL   C11325169   2.514   7.429   2.685  0.0923  0.3631  0.8474
   49MOL   C11425170   2.594   7.379   2.585 -0.0739 -0.6045  0.3459
   49MOL   C11525171   2.429   7.450   2.275 -0.3919  0.0004 -0.1156
   49MOL   C11625172   2.552   7.410   2.230  0.6407 -0.0499  0.2574
   49MOL   C11725173   2.568   7.392   2.092  0.0978  0.0807  0.2274
   49MOL   C11825174   2.467   7.428   2.002 -0.6491  0.2907 -0.3196
   49MOL   C11925175   2.339   7.463   2.051 -0.4838 -0.2863  0.6999
   49MOL   C12025176   2.322   7.475   2.189 -0.0229  0.1108  0.6265
   49MOL   H12125177   2.822   7.407   2.127 -3.0705 -2.2198  1.5382
   49MOL   H12225178   2.964   7.401   2.227 -0.7555 -3.7570 -0.9158
   49MOL   H12325179   2.813   7.371   2.432 -0.6384 -0.2401 -0.0675
   49MOL   H12425180   2.269   7.575   2.498 -1.2156 -1.5178  1.4647
   49MOL   H12525181   2.330   7.537   2.725 -0.2849  0.2625  0.3432
   49MOL   H12625182   2.544   7.416   2.788 -1.0958 -2.0366  0.9112
   49MOL   H12725183   2.680   7.318   2.610  0.5450 -0.1098 -0.5574
   49MOL   H12825184   2.655   7.355   2.040  0.3058  0.0276  0.6107
   49MOL   H12925185   2.474   7.413   1.895 -2.7923 -1.3783 -0.2468
   49MOL   H13025186   2.255   7.492   1.990 -2.2644 -0.4976  2.9749
   49MOL   H13125187   2.231   7.509   2.235  0.1544  1.1401  0.2324
   49MOL   C13225188   2.792   7.195   2.310 -0.1490  0.7569  0.2131
   49MOL   C13325189   2.917   7.143   2.387 -0.2483  1.1853  0.5016
   49MOL   N13425190   2.917   7.156   2.533 -0.1087 -0.0701  0.7040
   49MOL   C13525191   2.996   7.249   2.603  0.1153  0.3722 -0.2061
   49MOL   C13625192   2.974   7.236   2.744  0.3299 -0.0719 -0.5985
   49MOL   C13725193   3.044   7.323   2.832  0.3445 -0.9445 -1.4267
   49MOL   C13825194   3.132   7.423   2.785 -0.7521  0.5179 -0.0895
   49MOL   C13925195   3.146   7.438   2.645  0.6980 -0.6852  0.8083
   49MOL   C14025196   3.088   7.346   2.556 -0.3841 -0.6451  0.1384
   49MOL   C14125197   2.882   7.124   2.761 -0.0796 -0.0787  0.2153
   49MOL   C14225198   2.842   7.086   2.628 -0.0745  0.6967  0.0410
   49MOL   C14325199   2.738   6.993   2.615 -0.3560  0.5885  0.2917
   49MOL   C14425200   2.673   6.931   2.726  0.4386  0.6577 -0.0060
   49MOL   C14525201   2.714   6.964   2.852 -0.3170  0.0218 -0.0268
   49MOL   C14625202   2.816   7.064   2.872  0.9821  0.3115 -0.1239
   49MOL   H14725203   2.711   7.137   2.355  1.8463 -1.2193  1.3522
   49MOL   H14825204   2.803   7.180   2.203 -0.6756  0.3911  0.2108
   49MOL   H14925205   2.994   7.209   2.347 -0.0489 -0.8381 -2.5257
   49MOL   H15025206   3.016   7.308   2.935  1.5653 -0.0752 -0.9584
   49MOL   H15125207   3.180   7.502   2.840 -0.3840  1.3021 -1.5327
   49MOL   H15225208   3.218   7.507   2.605 -0.2574  0.3434  0.8355
   49MOL   H15325209   3.099   7.364   2.450 -1.6283 -0.1408  0.0742
   49MOL   H15425210   2.704   6.969   2.516 -2.0898  1.2468  0.7053
   49MOL   H15525211   2.587   6.867   2.713  1.5932 -0.7875 -0.7609
   49MOL   H15625212   2.661   6.923   2.937  1.0290 -0.8718  0.4081
   49MOL   H15725213   2.831   7.097   2.973 -0.4779  2.4463 -0.5748
   49MOL   C15825214   2.957   7.000   2.349  0.0094  1.3017 -0.1397
   49MOL   C15925215   3.004   6.972   2.199  0.1578  0.2469 -0.3432
   49MOL   N16025216   3.081   7.090   2.154 -0.3255  0.0443  0.4072
   49MOL   C16125217   3.044   7.185   2.058 -0.1337  0.2567 -0.1506
   49MOL   C16225218   3.146   7.286   2.053  0.2613 -0.7437 -0.2832
   49MOL   C16325219   3.113   7.395   1.976 -0.5352 -0.4722  0.0099
   49MOL   C16425220   2.989   7.406   1.912  0.2272  0.2111 -0.0015
   49MOL   C16525221   2.900   7.301   1.909  0.4992  0.4628 -0.8991
   49MOL   C16625222   2.930   7.183   1.978 -0.2645 -0.3399  0.5461
   49MOL   C16725223   3.248   7.247   2.143  1.2076  0.2727  0.2986
   49MOL   C16825224   3.205   7.129   2.205 -0.5621 -0.0207 -0.5564
   49MOL   C16925225   3.285   7.076   2.313 -0.5815  0.1096  0.0422
   49MOL   C17025226   3.400   7.143   2.365  0.0795  0.3914  0.3929
   49MOL   C17125227   3.438   7.257   2.291 -0.5669 -0.0575 -0.3619
   49MOL   C17225228   3.369   7.303   2.181  0.4162 -0.0336  0.6562
   49MOL   H17325229   3.037   6.976   2.419  0.1958  1.0885 -0.4211
   49MOL   H17425230   2.869   6.941   2.375 -0.4411  1.3548 -1.5042
   49MOL   H17525231   2.914   6.966   2.137 -0.4757  0.0686  0.5780
   49MOL   H17625232   3.171   7.485   1.962 -0.9161 -0.6832 -3.2258
   49MOL   H17725233   2.961   7.495   1.858  0.4093 -0.0740 -0.5738
   49MOL   H17825234   2.808   7.316   1.855 -1.0496 -0.9733  1.3020
   49MOL   H17925235   2.863   7.099   1.968 -0.1834 -0.2422 -1.0012
   49MOL   H18025236   3.251   6.996   2.377 -0.2197 -0.3061 -0.2947
   49MOL   H18125237   3.452   7.119   2.456 -0.6625 -0.9436  0.4825
   49MOL   H18225238   3.519   7.322   2.324  1.0098 -1.5315 -1.2502
   49MOL   H18325239   3.398   7.394   2.132 -2.7247  0.0412 -1.2276
   49MOL   C18425240   3.079   6.837   2.186  0.8048  0.1962 -0.5337
   49MOL   C18525241   2.986   6.715   2.189 -0.1928 -0.4070 -0.0546
   49MOL   N18625242   2.884   6.711   2.086  0.0878  0.6598  0.0895
   49MOL   C18725243   2.746   6.726   2.115 -0.4841  0.0537 -0.2128
   49MOL   C18825244   2.675   6.705   1.990 -0.7350  0.0898  0.0015
   49MOL   C18925245   2.536   6.701   1.996 -0.2931  0.2058  0.3426
   49MOL   C19025246   2.471   6.721   2.120  0.6701  0.4197 -0.1476
   49MOL   C19125247   2.540   6.733   2.240  0.1011 -0.0555 -0.3682
   49MOL   C19225248   2.683   6.738   2.241  0.2905  0.3484  0.1888
   49MOL   C19325249   2.776   6.702   1.885  0.1788  0.3441 -0.4490
   49MOL   C19425250   2.906   6.706   1.944 -0.3673 -0.4009 -0.6074
   49MOL   C19525251   3.021   6.699   1.866  0.7243  0.6445 -0.1926
   49MOL   C19625252   3.011   6.701   1.728 -0.9431 -1.1536 -0.4936
   49MOL   C19725253   2.887   6.703   1.665  0.1363 -0.3220  0.3821
   49MOL   C19825254   2.768   6.698   1.744  0.8201 -0.7494 -0.1742
   49MOL   H19925255   3.145   6.824   2.100  2.2162  0.0404  0.5447
   49MOL   H20025256   3.158   6.832   2.262  0.9431  1.7335 -0.5574
   49MOL   H20125257   2.930   6.724   2.283  0.4919  0.2041  0.2981
   49MOL   H20225258   2.485   6.702   1.901  1.0008  1.9099 -0.3655
   49MOL   H20325259   2.363   6.723   2.128  0.6409 -0.0648 -0.3981
   49MOL   H20425260   2.487   6.762   2.329  0.0138  0.6350 -0.6388
   49MOL   H20525261   2.740   6.750   2.331 -1.3674 -1.6238  1.5612
   49MOL   H20625262   3.115   6.695   1.919  0.7779  0.9841 -0.2628
   49MOL   H20725263   3.104   6.701   1.674 -1.0122  3.3190 -0.7795
   49MOL   H20825264   2.882   6.705   1.557 -0.7105 -2.4934  0.3668
   49MOL   H20925265   2.673   6.701   1.693  0.7709  0.9578 -0.0118
   49MOL   C21025266   3.056   6.569   2.192  0.3641 -0.2561  0.2743
   49MOL   C21125267   3.117   6.536   2.324  0.0535 -0.5685 -0.7380
   49MOL   N21225268   3.042   6.574   2.444  0.0500 -0.6124  0.1365
   49MOL   C21325269   3.078   6.673   2.531 -0.2773  0.3693 -0.8515
   49MOL   C21425270   2.971   6.698   2.619 -0.3277 -0.4356  0.4815
   49MOL   C21525271   2.989   6.797   2.720 -0.0761 -0.2746 -1.0398
   49MOL   C21625272   3.107   6.873   2.732 -0.0119 -0.2552 -0.0441
   49MOL   C21725273   3.218   6.842   2.646  0.1297  0.5489 -0.0650
   49MOL   C21825274   3.202   6.743   2.545 -0.0617  0.3110  0.2514
   49MOL   C21925275   2.861   6.613   2.578  0.1310  0.1567  0.0712
   49MOL   C22025276   2.909   6.536   2.470  0.2542  0.6432 -0.3322
   49MOL   C22125277   2.825   6.440   2.406 -0.1310 -0.0995 -0.2412
   49MOL   C22225278   2.697   6.419   2.460 -1.4358  0.2162 -0.2463
   49MOL   C22325279   2.652   6.492   2.572  0.6509  0.1796  0.4340
   49MOL   C22425280   2.732   6.589   2.630 -1.1206  0.8617  0.7286
   49MOL   H22525281   2.982   6.491   2.180 -0.0703  0.1781  0.1162
   49MOL   H22625282   3.126   6.559   2.109 -0.4040 -0.4544 -0.3519
   49MOL   H22725283   3.212   6.589   2.323 -0.4161  0.2872 -1.3288
   49MOL   H22825284   2.904   6.815   2.784  0.3110 -2.0855  0.0336
   49MOL   H22925285   3.118   6.940   2.816 -1.8011  0.1052 -0.0825
   49MOL   H23025286   3.318   6.882   2.656  1.6806 -2.7679 -1.4015
   49MOL   H23125287   3.294   6.723   2.491  0.4477 -0.8682  1.5262
   49MOL   H23225288   2.865   6.381   2.324  0.8868  0.4325 -0.1346
   49MOL   H23325289   2.632   6.348   2.411  1.2753 -0.7381 -2.6470
   49MOL   H23425290   2.554   6.460   2.602  0.1394  0.8821 -0.4416
   49MOL   H23525291   2.702   6.636   2.723 -0.2805  0.0976  1.3920
   49MOL   C23625292   3.164   6.389   2.325  1.0335 -0.3203  0.0358
   49MOL   C23725293   3.204   6.319   2.457 -0.0974  0.1968  0.1295
   49MOL   N23825294   3.191   6.179   2.439  0.9312 -0.2035  0.8446
   49MOL   C23925295   3.082   6.101   2.489  0.1438  0.5303  0.9748
   49MOL   C24025296   3.109   5.965   2.454  0.4799 -0.0906  0.3584
   49MOL   C24125297   3.011   5.868   2.498  0.6079 -0.4373 -0.5070
   49MOL   C24225298   2.883   5.903   2.558 -0.0943 -0.3509  0.2137
   49MOL   C24325299   2.863   6.043   2.583 -0.2711  0.7026 -0.0915
   49MOL   C24425300   2.958   6.134   2.549  0.7932  0.6792  0.0573
   49MOL   C24525301   3.228   5.956   2.379  0.6023 -0.3809  0.7529
   49MOL   C24625302   3.280   6.091   2.369 -0.2636 -0.7821 -0.3084
   49MOL   C24725303   3.397   6.120   2.292  0.1197 -0.7441 -0.2845
   49MOL   C24825304   3.467   6.024   2.228 -0.0288  0.3622  0.1689
   49MOL   C24925305   3.425   5.891   2.240  0.3265 -0.4063 -0.7254
   49MOL   C25025306   3.303   5.858   2.312 -0.2567 -0.3569  0.2161
   49MOL   H25125307   3.093   6.327   2.269 -0.6363  3.0141 -1.6673
   49MOL   H25225308   3.254   6.378   2.265  0.2289  0.2747 -1.3119
   49MOL   H25325309   3.131   6.337   2.536  1.0100  0.3542  1.1421
   49MOL   H25425310   3.036   5.764   2.486  1.2712 -0.3183 -0.2033
   49MOL   H25525311   2.809   5.828   2.585  0.7696 -0.3250  2.8597
   49MOL   H25625312   2.779   6.075   2.643  1.3476  1.0040  2.0984
   49MOL   H25725313   2.931   6.238   2.562 -0.3709  0.5198 -1.0047
   49MOL   H25825314   3.445   6.217   2.292 -2.5164  0.6492 -2.3667
   49MOL   H25925315   3.567   6.040   2.189  0.6584 -2.4318  0.6319
   49MOL   H26025316   3.479   5.811   2.193  0.9989  0.1952 -0.9799
   49MOL   H26125317   3.273   5.755   2.321  2.0546 -1.0076  0.9471
   49MOL   C26225318   3.334   6.372   2.506 -0.0123  0.0675  0.1790
   49MOL   C26325319   3.362   6.331   2.654  0.2940 -0.4154 -0.0940
   49MOL   N26425320   3.490   6.267   2.662  0.5284  0.3119 -0.2416
   49MOL   C26525321   3.505   6.128   2.695 -0.0926  0.7169  0.5535
   49MOL   C26625322   3.639   6.105   2.730  0.0372 -0.2698 -0.6349
   49MOL   C26725323   3.683   5.982   2.784 -0.6690  0.2081  0.4119
   49MOL   C26825324   3.588   5.879   2.794 -0.0321  0.6869  0.1567
   49MOL   C26925325   3.456   5.898   2.751  0.4060  0.6187  0.4364
   49MOL   C27025326   3.412   6.025   2.708 -0.2111  0.8281  0.4619
   49MOL   C27125327   3.708   6.227   2.706  0.5385  0.4539  0.1543
   49MOL   C27225328   3.622   6.321   2.652  0.5690  0.3069  0.4543
   49MOL   C27325329   3.659   6.456   2.624 -0.1917  0.0638 -0.2134
   49MOL   C27425330   3.796   6.488   2.650  0.1544  0.3690 -0.3844
   49MOL   C27525331   3.887   6.394   2.707  0.1190  0.0912  0.3926
   49MOL   C27625332   3.839   6.264   2.724  0.7388 -0.2029 -0.5855
   49MOL   H27725333   3.416   6.337   2.444 -1.0331  0.0614 -1.1830
   49MOL   H27825334   3.345   6.480   2.495 -0.3165  0.0629 -0.1510
   49MOL   H27925335   3.285   6.255   2.667  0.2205 -0.6163 -1.6450
   49MOL   H28025336   3.787   5.971   2.809 -0.2084 -1.8067 -2.1592
   49MOL   H28125337   3.630   5.784   2.825  0.1365  0.3938 -0.9380
   49MOL   H28225338   3.384   5.819   2.766 -0.3586  0.8658 -1.7280
   49MOL   H28325339   3.306   6.037   2.690 -0.1285 -0.7289 -1.1874
   49MOL   H28425340   3.582   6.526   2.594  0.2699  0.2099 -1.0849
   49MOL   H28525341   3.834   6.589   2.637 -0.8383  0.8677  0.4958
   49MOL   H28625342   3.989   6.424   2.724 -0.2757  1.5014  0.3154
   49MOL   H28725343   3.907   6.196   2.773  0.1672 -0.4340 -0.1160
   49MOL   C28825344   3.349   6.456   2.754  0.2999 -0.8603  0.1781
   49MOL   C28925345   3.406   6.425   2.897  0.4156 -0.3268  0.2074
   49MOL   N29025346   3.420   6.545   2.982  0.0059  0.3965 -0.2148
   49MOL   C29125347   3.540   6.599   3.032 -0.3202  0.3076  0.4619
   49MOL   C29225348   3.515   6.712   3.110 -0.3595 -0.4468  0.0532
   49MOL   C29325349   3.623   6.782   3.172 -0.0092  0.6174 -0.5305
   49MOL   C29425350   3.753   6.748   3.140  0.4044 -0.5334 -0.1829
   49MOL   C29525351   3.775   6.637   3.054  0.4098  0.8077  0.3709
   49MOL   C29625352   3.669   6.562   3.003 -0.3669  0.2656  0.4505
   49MOL   C29725353   3.375   6.737   3.098  0.8038 -0.3794  0.9147
   49MOL   C29825354   3.317   6.624   3.034  0.5449 -0.2951 -0.2586
   49MOL   C29925355   3.175   6.614   3.017  0.1175  0.1485  0.1626
   49MOL   C30025356   3.090   6.713   3.072 -0.0867  0.3475 -1.0803
   49MOL   C30125357   3.148   6.822   3.138  0.6016  0.4861 -0.0728
   49MOL   C30225358   3.291   6.834   3.149  0.0757  0.3308 -0.1524
   49MOL   H30325359   3.396   6.541   2.706 -0.8827  0.0526  0.5904
   49MOL   H30425360   3.247   6.494   2.763  1.1816  1.8896 -1.1157
   49MOL   H30525361   3.505   6.384   2.878  0.4745  0.4028 -1.1533
   49MOL   H30625362   3.604   6.868   3.234 -0.5279 -0.7114  1.1819
   49MOL   H30725363   3.835   6.810   3.173  1.0714  0.0440 -2.7776
   49MOL   H30825364   3.872   6.604   3.019  0.1567  0.7563 -0.2982
   49MOL   H30925365   3.702   6.485   2.935 -3.2489 -0.7827  0.1510
   49MOL   H31025366   3.139   6.525   2.967  5.2123 -1.3525 -1.2203
   49MOL   H31125367   2.984   6.713   3.049 -0.5576 -0.5544  0.9882
   49MOL   H31225368   3.088   6.908   3.163  1.3195  1.0145 -0.1529
   49MOL   H31325369   3.333   6.918   3.202 -0.5140  0.5699 -0.0599
   49MOL   C31425370   3.329   6.311   2.971 -0.3185 -0.1166  0.1086
   49MOL   C31525371   3.385   6.256   3.098  0.1074  0.0727 -0.1140
   49MOL   N31625372   3.285   6.166   3.159  0.1159 -0.3615 -0.8196
   49MOL   C31725373   3.176   6.219   3.233 -0.1828  0.5104 -0.2790
   49MOL   C31825374   3.095   6.110   3.269  0.0024 -0.4830 -0.1976
   49MOL   C31925375   2.982   6.124   3.344 -0.2481  0.8772  1.0254
   49MOL   C32025376   2.944   6.244   3.395 -0.4609  0.0137 -0.2516
   49MOL   C32125377   3.021   6.356   3.362  0.4733 -0.0176 -0.1935
   49MOL   C32225378   3.135   6.346   3.278  0.0170  0.1939  0.7147
   49MOL   C32325379   3.151   5.992   3.208 -0.0048 -0.8188 -0.0418
   49MOL   C32425380   3.261   6.035   3.129 -0.0970 -0.1796 -0.2590
   49MOL   C32525381   3.328   5.941   3.051  0.2082  0.3321 -0.2785
   49MOL   C32625382   3.289   5.805   3.059  0.3862  0.1762 -0.0821
   49MOL   C32725383   3.176   5.760   3.136  0.1475 -0.3469 -0.0826
   49MOL   C32825384   3.109   5.858   3.209 -0.0367  0.7421  0.3706
   49MOL   H32925385   3.222   6.327   2.976 -0.5473 -1.3729 -0.5798
   49MOL   H33025386   3.329   6.236   2.892  1.1473  0.6472 -0.6414
   49MOL   H33125387   3.384   6.351   3.152 -0.9624  0.1872 -0.3086
   49MOL   H33225388   2.927   6.034   3.365  1.2432  0.0296  1.3829
   49MOL   H33325389   2.857   6.253   3.459  1.9150  0.7285  2.9693
   49MOL   H33425390   2.986   6.443   3.416 -0.5449  0.3726 -1.4630
   49MOL   H33525391   3.187   6.440   3.262  0.4370 -0.2116 -0.3751
   49MOL   H33625392   3.414   5.958   2.989  1.3125 -2.0008  0.5404
   49MOL   H33725393   3.344   5.733   3.000 -1.5492  0.6192 -2.5109
   49MOL   H33825394   3.151   5.655   3.137  1.8076 -0.7336  0.9426
   49MOL   H33925395   3.023   5.822   3.263 -0.9472  0.7707 -1.0207
   49MOL   C34025396   3.530   6.211   3.098 -0.6574 -1.0481  0.7619
   49MOL   C34125397   3.590   6.139   3.223  0.2014 -0.5240  0.4158
   49MOL   N34225398   3.723   6.099   3.175  0.4573  0.5710  0.5170
   49MOL   C34325399   3.752   5.973   3.121 -0.0363 -0.3180 -0.0378
   49MOL   C34425400   3.887   5.959   3.074 -0.1065 -0.8983  0.2512
   49MOL   C34525401   3.926   5.837   3.019  0.0307 -0.0045 -0.1364
   49MOL   C34625402   3.839   5.728   3.020  0.5790 -0.1252 -0.0558
   49MOL   C34725403   3.700   5.744   3.055  0.1583 -0.4289  0.1328
   49MOL   C34825404   3.662   5.870   3.112 -0.4792  0.2614  0.6121
   49MOL   C34925405   3.944   6.091   3.097  0.0558  0.2254 -0.9511
   49MOL   C35025406   3.839   6.176   3.149  1.0911 -0.8169 -0.5788
   49MOL   C35125407   3.862   6.317   3.155  0.3005 -0.2712 -0.3700
   49MOL   C35225408   3.994   6.368   3.135 -0.2027 -0.1210 -0.5602
   49MOL   C35325409   4.098   6.277   3.098 -0.5144  0.2109  0.1170
   49MOL   C35425410   4.074   6.139   3.079  0.0350  0.1289 -0.0094
   49MOL   H35525411   3.542   6.143   3.013  1.6657 -0.0680  0.2712
   49MOL   H35625412   3.588   6.302   3.083 -0.2557 -1.2835  0.8884
   49MOL   H35725413   3.534   6.049   3.248  0.4673 -0.0159  2.9252
   49MOL   H35825414   4.025   5.824   2.977 -0.5090 -1.0634 -1.1140
   49MOL   H35925415   3.880   5.640   2.973  0.3326 -1.3592  1.9590
   49MOL   H36025416   3.621   5.672   3.043  1.9590 -2.3430 -0.6686
   49MOL   H36125417   3.564   5.879   3.156  0.0518 -1.2399  2.1727
   49MOL   H36225418   3.777   6.375   3.186  1.2930 -0.4056  2.8016
   49MOL   H36325419   4.007   6.474   3.150  1.2658 -0.3961  0.3018
   49MOL   H36425420   4.202   6.305   3.085  0.2417 -2.4304  0.1292
   49MOL   H36525421   4.147   6.066   3.048 -1.5528 -0.0583 -3.5729
   49MOL   C36625422   3.611   6.216   3.357 -0.6093 -0.0393  0.1525
   49MOL   C36725423   3.498   6.185   3.466  0.0084 -0.3715  1.1297
   49MOL   N36825424   3.541   6.081   3.548 -0.0889 -0.5788 -0.0002
   49MOL   C36925425   3.499   5.945   3.543  0.0531 -0.0072  0.4952
   49MOL   C37025426   3.577   5.863   3.638 -0.1781 -0.0438 -0.0044
   49MOL   C37125427   3.542   5.729   3.663 -0.2202  0.1499  0.1153
   49MOL   C37225428   3.433   5.674   3.588 -0.0583  0.2957  0.1580
   49MOL   C37325429   3.364   5.746   3.490  0.3666 -0.3913  0.0806
   49MOL   C37425430   3.402   5.878   3.466  0.3999 -0.4812  0.1588
   49MOL   C37525431   3.676   5.959   3.697  0.2795  0.1418 -0.3585
   49MOL   C37625432   3.641   6.089   3.654 -0.2619  0.1046 -0.0285
   49MOL   C37725433   3.721   6.200   3.685  0.0320 -0.2836  0.1370
   49MOL   C37825434   3.815   6.191   3.785  0.5663  0.0235 -0.5081
   49MOL   C37925435   3.844   6.068   3.837  0.3115  0.1784 -0.3243
   49MOL   C38025436   3.781   5.951   3.798  0.3028  0.7069  0.2809
   49MOL   H38125437   3.710   6.216   3.401 -0.8815 -0.6726  0.7775
   49MOL   H38225438   3.588   6.319   3.331 -2.2210  0.0419  1.7958
   49MOL   H38325439   3.408   6.158   3.412 -0.6606  0.3402  1.8751
   49MOL   H38425440   3.602   5.677   3.736  0.7562  1.4207  0.2423
   49MOL   H38525441   3.405   5.571   3.605  1.5568 -0.2106 -0.2063
   49MOL   H38625442   3.275   5.714   3.438 -1.8423  1.5242  2.4948
   49MOL   H38725443   3.344   5.935   3.395  0.1999 -0.9678 -0.0708
   49MOL   H38825444   3.701   6.292   3.632  0.8704  0.5175  1.1861
   49MOL   H38925445   3.869   6.278   3.818  1.2699 -0.4093 -0.5138
   49MOL   H39025446   3.919   6.052   3.913 -0.5863 -2.2845  0.1059
   49MOL   H39125447   3.807   5.856   3.842 -0.5511  0.7938  1.0014
   49MOL   C39225448   3.445   6.308   3.542 -0.2542 -0.3874  0.5286
   49MOL   C39325449   3.360   6.277   3.670 -0.2820  0.3384  0.3362
   49MOL   N39425450   3.327   6.398   3.748 -0.3960 -0.4141  0.5416
   49MOL   C39525451   3.361   6.414   3.883 -0.2570 -0.0975  0.1031
   49MOL   C39625452   3.306   6.539   3.933 -0.6169  0.0464 -0.0158
   49MOL   C39725453   3.332   6.580   4.068 -0.2892  0.3134  0.3217
   49MOL   C39825454   3.390   6.489   4.158 -0.9260  0.2221  0.9539
   49MOL   C39925455   3.445   6.368   4.103  0.1637  0.3623 -0.1494
   49MOL   C40025456   3.436   6.335   3.965  0.0518  0.9176 -0.0635
   49MOL   C40125457   3.247   6.604   3.816  0.3091 -0.1086  0.1134
   49MOL   C40225458   3.268   6.515   3.704  0.9856 -0.6957  0.3682
   49MOL   C40325459   3.222   6.558   3.578  0.2573  0.1192  0.4709
   49MOL   C40425460   3.160   6.680   3.556 -0.4825 -0.3806  0.1664
   49MOL   C40525461   3.136   6.769   3.660 -0.7182  0.5933 -0.1740
   49MOL   C40625462   3.181   6.732   3.790  0.2980  0.3920  0.3138
   49MOL   H40725463   3.527   6.377   3.559 -0.6948  0.2670 -0.0098
   49MOL   H40825464   3.394   6.378   3.477  0.1535  0.1464  0.7761
   49MOL   H40925465   3.422   6.216   3.737 -1.8482 -2.5131 -0.7255
   49MOL   H41025466   3.298   6.675   4.106 -0.7697  0.8328 -1.3590
   49MOL   H41125467   3.411   6.508   4.262 -1.6801  1.6820  0.8535
   49MOL   H41225468   3.495   6.299   4.170  0.9129 -0.6867 -1.7714
   49MOL   H41325469   3.486   6.250   3.922  1.0383  1.3991  0.1146
   49MOL   H41425470   3.234   6.485   3.499 -1.4111 -0.0582  0.3598
   49MOL   H41525471   3.136   6.697   3.452  0.1808 -1.3273 -0.1470
   49MOL   H41625472   3.079   6.859   3.645 -0.2853  1.2009  1.7230
   49MOL   H41725473   3.182   6.793   3.879  2.1505 -3.1167  2.8454
   49MOL   C41825474   3.232   6.194   3.643  0.3645 -0.0603 -0.4828
   49MOL   C41925475   3.164   6.129   3.767 -0.6523  0.5300  0.0792
   49MOL   N42025476   3.027   6.096   3.738 -1.4421  0.4053 -0.3040
   49MOL   C42125477   2.919   6.178   3.775 -0.9778  0.3473 -0.3016
   49MOL   C42225478   2.798   6.102   3.761  0.1647 -0.6371 -0.7144
   49MOL   C42325479   2.675   6.154   3.800  0.2283  0.2858 -0.3588
   49MOL   C42425480   2.669   6.280   3.860 -0.0733  0.7382 -0.4135
   49MOL   C42525481   2.782   6.360   3.869  0.2868  0.2051 -0.4690
   49MOL   C42625482   2.907   6.312   3.829 -0.4232  0.4717 -0.2400
   49MOL   C42725483   2.829   5.977   3.697  1.1808 -0.0154 -0.0445
   49MOL   C42825484   2.969   5.987   3.664 -0.4084 -0.5717 -0.0605
   49MOL   C42925485   3.021   5.880   3.594  0.1659 -0.4410 -0.1818
   49MOL   C43025486   2.940   5.773   3.550  0.1757 -0.0431  0.5395
   49MOL   C43125487   2.803   5.766   3.575 -0.1040 -0.3872  0.8719
   49MOL   C43225488   2.749   5.867   3.650  0.0870  0.4901 -0.0270
   49MOL   H43325489   3.159   6.260   3.598 -0.6843 -2.0785 -1.8462
   49MOL   H43425490   3.244   6.118   3.566  2.2005 -1.5438  1.2155
   49MOL   H43525491   3.172   6.209   3.840 -2.6395  2.5460 -1.8061
   49MOL   H43625492   2.596   6.080   3.797 -0.3547  0.9088 -0.2876
   49MOL   H43725493   2.572   6.310   3.895 -0.0421 -2.4948  2.6970
   49MOL   H43825494   2.766   6.462   3.901  0.1051  0.1282 -0.3184
   49MOL   H43925495   3.004   6.359   3.837 -0.7162  1.1582 -0.7038
   49MOL   H44025496   3.125   5.859   3.575  1.1248  0.9757  3.0538
   49MOL   H44125497   2.998   5.698   3.498 -0.4784  0.5583 -1.0881
   49MOL   H44225498   2.744   5.682   3.541 -3.8372  1.3259  2.7219
   49MOL   H44325499   2.642   5.871   3.659  0.0535 -0.3102 -0.1084
   49MOL   C44425500   3.254   6.019   3.827 -0.5235 -0.4416  0.2590
   49MOL   C44525501   3.219   5.994   3.977  0.7927 -0.6432  0.1921
   49MOL   N44625502   3.080   5.941   3.997  0.1374  0.3491  0.7858
   49MOL   C44725503   2.982   5.997   4.076 -0.0898  1.2190 -0.2585
   49MOL   C44825504   2.870   5.915   4.072  0.2066 -0.1128  0.3005
   49MOL   C44925505   2.759   5.958   4.143 -0.2145  0.4278 -0.3500
   49MOL   C45025506   2.760   6.078   4.219 -0.2484  0.0842  0.0132
   49MOL   C45125507   2.875   6.152   4.231 -0.6097  0.4004 -0.8517
   49MOL   C45225508   2.987   6.111   4.155  0.1481  0.3515 -0.0238
   49MOL   C45325509   2.902   5.802   3.995  1.0080  0.1419  0.2379
   49MOL   C45425510   3.039   5.813   3.958  0.1195  0.3144  0.3173
   49MOL   C45525511   3.102   5.714   3.884 -0.3413 -1.2433 -0.2358
   49MOL   C45625512   3.027   5.596   3.854  0.5567 -0.5974 -0.3712
   49MOL   C45725513   2.896   5.581   3.892  0.1183  0.0370 -0.4703
   49MOL   C45825514   2.837   5.684   3.961 -0.2748  0.3990  0.1304
   49MOL   H45925515   3.249   5.931   3.763  1.5711  1.3764 -2.5174
   49MOL   H46025516   3.358   6.052   3.826 -0.8671  0.8736  3.2745
   49MOL   H46125517   3.219   6.092   4.024  2.0978 -0.5403 -0.0117
   49MOL   H46225518   2.679   5.886   4.149 -0.1714  0.2885 -1.4249
   49MOL   H46325519   2.672   6.111   4.272 -0.8432 -1.5058  0.0436
   49MOL   H46425520   2.877   6.248   4.281  0.4242  1.9906 -3.8055
   49MOL   H46525521   3.078   6.170   4.159  0.1987  0.3861 -1.5855
   49MOL   H46625522   3.207   5.722   3.857 -0.8281  3.9669 -1.1481
   49MOL   H46725523   3.063   5.515   3.793 -0.8398 -0.7304 -1.0453
   49MOL   H46825524   2.837   5.492   3.877 -0.4109  0.0752  1.2265
   49MOL   H46925525   2.735   5.664   3.989  0.0278 -2.8133 -0.8573
   49MOL   C47025526   3.334   5.914   4.049  0.3660  0.7536 -0.5012
   49MOL   C47125527   3.336   5.914   4.207  0.1767 -0.0205 -0.5970
   49MOL   N47225528   3.425   5.816   4.261 -0.1320  0.7544 -1.1197
   49MOL   C47325529   3.378   5.718   4.346  0.6949 -0.2739 -0.2706
   49MOL   C47425530   3.489   5.636   4.380 -0.5573 -0.5155  0.2578
   49MOL   C47525531   3.470   5.516   4.454  0.3518 -0.4676  0.0209
   49MOL   C47625532   3.339   5.482   4.493 -0.5271 -0.9031  0.2970
   49MOL   C47725533   3.229   5.568   4.476  0.8384 -0.5482  0.0568
   49MOL   C47825534   3.249   5.691   4.402  0.1156 -0.2607  0.2995
   49MOL   C47925535   3.607   5.701   4.320 -0.4399  0.3715  0.7505
   49MOL   C48025536   3.568   5.807   4.248  0.2481 -1.0549 -0.5234
   49MOL   C48125537   3.658   5.883   4.170  0.2876 -0.1136  0.6926
   49MOL   C48225538   3.802   5.856   4.179 -0.3049 -0.1606  0.1582
   49MOL   C48325539   3.847   5.753   4.265  0.1743 -0.7440  0.1889
   49MOL   C48425540   3.750   5.673   4.332  0.2060  0.5956  0.4586
   49MOL   H48525541   3.346   5.811   4.018  0.5170  0.8800 -0.8705
   49MOL   H48625542   3.433   5.951   4.020  1.5355 -0.7059  1.4924
   49MOL   H48725543   3.234   5.889   4.235  1.4227 -3.7108  0.9295
   49MOL   H48825544   3.555   5.456   4.483  1.2884  1.8790  2.3869
   49MOL   H48925545   3.334   5.398   4.559  1.2162 -1.3473 -0.1213
   49MOL   H49025546   3.136   5.537   4.520  1.2910 -2.5956 -0.3530
   49MOL   H49125547   3.167   5.757   4.380  1.3839  1.3041  0.1979
   49MOL   H49225548   3.628   5.965   4.107 -0.8697 -1.0393  0.0260
   49MOL   H49325549   3.873   5.920   4.128 -1.0452  1.0867  0.6653
   49MOL   H49425550   3.946   5.711   4.275  0.4023  0.1948  2.1540
   49MOL   H49525551   3.792   5.581   4.369 -0.1995 -0.4553 -1.5957
   49MOL   C49625552   3.374   6.056   4.271  0.1181  0.4586  0.0204
   49MOL   C49725553   3.374   6.056   4.427 -0.5660 -0.4890 -0.1193
   49MOL   N49825554   3.429   6.177   4.489 -0.3971 -0.4011  0.4073
   49MOL   C49925555   3.367   6.298   4.519  0.5010  0.0995  0.4668
   49MOL   C50025556   3.455   6.398   4.567 -0.2652 -0.2721  0.0074
   49MOL   C50125557   3.400   6.526   4.587  0.3078  0.4805  0.4980
   49MOL   C50225558   3.265   6.565   4.575  0.5438  0.4817  0.6462
   49MOL   C50325559   3.179   6.459   4.524 -0.2707  0.4041  0.4694
   49MOL   C50425560   3.230   6.329   4.502 -1.0606  0.8662 -0.6801
   49MOL   C50525561   3.584   6.329   4.576  0.5617 -0.8156 -0.5313
   49MOL   C50625562   3.566   6.196   4.527  0.1400 -0.2541  0.4070
   49MOL   C50725563   3.672   6.107   4.523 -0.7298 -0.1494 -0.3604
   49MOL   C50825564   3.806   6.144   4.568  0.7660 -0.4660  0.8992
   49MOL   C50925565   3.820   6.275   4.614  0.0932  0.3026  0.3068
   49MOL   C51025566   3.714   6.366   4.619  0.3449  0.5823 -0.0392
   49MOL   H51125567   3.478   6.081   4.250  0.1853 -0.5238 -0.8445
   49MOL   H51225568   3.305   6.132   4.235 -0.5552  0.7248  1.8164
   49MOL   H51325569   3.429   5.974   4.473 -0.0405  0.7587  1.5556
   49MOL   H51425570   3.458   6.598   4.643  0.9681 -0.5004  1.1012
   49MOL   H51525571   3.223   6.663   4.593  0.7268  0.4742  1.1056
   49MOL   H51625572   3.072   6.465   4.511 -0.5224 -1.2428  1.6222
   49MOL   H51725573   3.163   6.253   4.464 -0.6962  0.5594 -0.7029
   49MOL   H51825574   3.649   6.004   4.498  0.5662 -1.0790  2.1525
   49MOL   H51925575   3.887   6.074   4.560  0.7281 -0.2658 -1.7427
   49MOL   H52025576   3.915   6.312   4.647  0.3921  3.7701 -4.0410
   49MOL   H52125577   3.740   6.467   4.647  1.9882  0.2185 -0.1796
   49MOL   H52225578   3.273   6.037   4.464 -0.3837 -1.2103 -0.0017
   50MOL     C125579   0.302   4.758   2.408  0.2176  0.3023  0.0001
   50MOL     C225580   0.209   4.804   2.288 -0.0093 -0.1801  0.2858
   50MOL     N325581   0.258   4.933   2.234  0.2792  0.2831  0.3252
   50MOL     C425582   0.179   5.048   2.210 -0.1728 -0.0677 -0.3912
   50MOL     C525583   0.257   5.157   2.167 -0.2507 -0.6771  0.1388
   50MOL     C625584   0.193   5.281   2.144 -0.2942  0.0632  0.0422
   50MOL     C725585   0.059   5.307   2.178  0.3045 -0.0944 -0.4031
   50MOL     C825586   8.212   5.196   2.226 -0.0294 -0.1215 -0.5790
   50MOL     C925587   0.041   5.070   2.237 -0.1011  0.3047 -0.2199
   50MOL    C1025588   0.388   5.102   2.148 -0.0021 -0.2201  0.8897
   50MOL    C1125589   0.390   4.967   2.188  0.2388  0.1742 -0.1916
   50MOL    C1225590   0.508   4.893   2.194 -0.4756  0.7197  0.2289
   50MOL    C1325591   0.628   4.954   2.149  0.4452 -0.3591 -0.1266
   50MOL    C1425592   0.629   5.088   2.099  0.0587 -0.0891 -0.7748
   50MOL    C1525593   0.507   5.158   2.102  0.5855  0.0527 -0.1727
   50MOL    H1625594   0.305   4.649   2.406  1.5465  0.3350 -1.1103
   50MOL    H1725595   0.257   4.787   2.502 -3.2829  0.8412 -1.7402
   50MOL    H1825596   0.109   4.822   2.328  0.0186 -1.3568  0.9192
   50MOL    H1925597   0.246   5.365   2.103 -0.8646  0.3723 -0.0682
   50MOL    H2025598   0.008   5.402   2.170  1.4711  0.3371 -3.1815
   50MOL    H2125599   8.108   5.213   2.251  0.0088  0.5932 -0.8967
   50MOL    H2225600   8.211   4.985   2.270  1.2866  0.2028  2.0593
   50MOL    H2325601   0.508   4.786   2.210  2.2432  0.2787 -2.2622
   50MOL    H2425602   0.720   4.897   2.151 -0.0762 -1.1894  0.8470
   50MOL    H2525603   0.718   5.130   2.056  0.9307 -0.3442  0.7566
   50MOL    H2625604   0.499   5.255   2.056  1.4942  1.2887  2.2105
   50MOL    H2725605   0.404   4.798   2.404 -0.7258  2.8459  0.4663
   50MOL    C2825606   0.195   4.708   2.173  0.6765  0.6743  0.2819
   50MOL    C2925607   0.136   4.568   2.210 -0.6337 -0.1194  0.0365
   50MOL    N3025608   0.029   4.565   2.309  0.4583  0.2514  0.3476
   50MOL    C3125609   0.032   4.474   2.417 -0.1993  0.4317 -0.0977
   50MOL    C3225610   8.135   4.477   2.479 -0.5604 -0.1530  0.3796
   50MOL    C3325611   8.113   4.389   2.590  0.7987 -0.5198 -0.7877
   50MOL    C3425612   8.219   4.324   2.651  0.9149  0.1678  0.2229
   50MOL    C3525613   0.119   4.318   2.591  0.2879 -0.2177  0.1500
   50MOL    C3625614   0.137   4.392   2.475 -0.5953 -0.1894  0.2187
   50MOL    C3725615   8.059   4.575   2.412  0.0674  0.1943 -0.0487
   50MOL    C3825616   8.135   4.632   2.307  1.0290 -0.1909 -0.8834
   50MOL    C3925617   8.085   4.734   2.222 -0.4324 -0.1818  0.2842
   50MOL    C4025618   7.951   4.776   2.243 -0.3047 -0.6477  0.9779
   50MOL    C4125619   7.875   4.721   2.346  0.2432 -0.1820 -0.5639
   50MOL    C4225620   7.924   4.615   2.426  0.7388  0.4111 -0.0402
   50MOL    H4325621   0.134   4.757   2.097  0.8483 -1.7856 -1.5444
   50MOL    H4425622   0.285   4.698   2.112 -0.9496  1.4969 -2.3658
   50MOL    H4525623   0.217   4.510   2.256 -1.8083 -2.1539 -0.3836
   50MOL    H4625624   8.014   4.391   2.635  1.3707  0.5106  0.4493
   50MOL    H4725625   8.205   4.265   2.740  1.4005 -0.3534 -0.0436
   50MOL    H4825626   0.206   4.270   2.633 -0.1009 -0.8513  0.2360
   50MOL    H4925627   0.234   4.388   2.428 -1.3717  0.0540 -1.4624
   50MOL    H5025628   8.139   4.770   2.136 -1.0133 -3.3503 -1.5050
   50MOL    H5125629   7.911   4.848   2.173 -0.9532 -2.0431 -0.1019
   50MOL    H5225630   7.775   4.754   2.370  0.5698 -0.1155  0.7078
   50MOL    H5325631   7.863   4.575   2.506 -0.0388 -1.3516 -1.4891
   50MOL    C5425632   0.075   4.491   2.085  0.2361 -0.0335 -0.2440
   50MOL    C5525633   0.177   4.425   1.982 -0.2226 -0.1891  0.0580
   50MOL    N5625634   0.267   4.337   2.048 -0.2725  0.6783 -0.3201
   50MOL    C5725635   0.401   4.359   2.080  0.9866  0.2057 -0.3089
   50MOL    C5825636   0.464   4.232   2.113  0.7002  0.9259  0.2223
   50MOL    C5925637   0.599   4.227   2.137 -0.3266 -0.0538  0.0833
   50MOL    C6025638   0.677   4.340   2.135 -0.2454 -0.3857  0.6911
   50MOL    C6125639   0.614   4.461   2.105 -0.1700 -0.1327 -0.0869
   50MOL    C6225640   0.482   4.474   2.067 -1.0737  0.3716 -0.7183
   50MOL    C6325641   0.358   4.141   2.134  0.8279 -0.0550 -0.3369
   50MOL    C6425642   0.236   4.213   2.105  0.5805 -0.0227 -0.8853
   50MOL    C6525643   0.111   4.141   2.111 -0.0159 -0.0704 -0.2837
   50MOL    C6625644   0.105   4.013   2.154  0.2074 -0.1009  0.0411
   50MOL    C6725645   0.223   3.945   2.198  0.4083 -0.3083 -0.1239
   50MOL    C6825646   0.349   4.009   2.187 -0.7497 -0.1903 -0.0199
   50MOL    H6925647   0.006   4.414   2.121 -0.1032  0.0188 -0.7761
   50MOL    H7025648   0.014   4.564   2.032  1.2220  0.0301 -1.2887
   50MOL    H7125649   0.241   4.504   1.943  1.5039 -0.4452  2.2769
   50MOL    H7225650   0.653   4.138   2.166  0.8157  0.5221 -0.2686
   50MOL    H7325651   0.784   4.322   2.142  0.2923  2.6647  0.7121
   50MOL    H7425652   0.680   4.546   2.099  0.3836 -0.4563  1.2171
   50MOL    H7525653   0.447   4.564   2.019 -3.8643  1.1386  2.5033
   50MOL    H7625654   0.023   4.192   2.075  0.9221  1.2321 -0.7758
   50MOL    H7725655   0.015   3.956   2.166  0.1917 -0.3185 -1.0737
   50MOL    H7825656   0.226   3.843   2.235  0.2816  0.9063  3.4280
   50MOL    H7925657   0.438   3.953   2.208 -1.3611 -1.3067 -0.3896
   50MOL    C8025658   0.097   4.350   1.869 -0.4689 -0.3182 -0.1215
   50MOL    C8125659   0.058   4.423   1.738 -0.3689 -0.0446  0.6530
   50MOL    N8225660   8.189   4.528   1.751  0.4025  0.4537  0.5318
   50MOL    C8325661   8.051   4.518   1.719  0.4906 -0.2015  0.3038
   50MOL    C8425662   7.990   4.647   1.732  0.0882 -0.1132  0.4040
   50MOL    C8525663   7.851   4.656   1.707 -0.4146 -0.2706 -0.2068
   50MOL    C8625664   7.777   4.550   1.666 -0.0209  0.3877 -0.7500
   50MOL    C8725665   7.832   4.420   1.654 -0.3995  0.0223 -0.4114
   50MOL    C8825666   7.969   4.405   1.683  0.0716 -0.1208 -0.6471
   50MOL    C8925667   8.094   4.738   1.765  0.4662  0.0401  0.2621
   50MOL    C9025668   8.218   4.664   1.766  0.5125 -0.0770  0.8778
   50MOL    C9125669   0.110   4.728   1.804  0.1377 -0.4277 -0.4146
   50MOL    C9225670   0.111   4.864   1.837  0.1454  0.0243  0.4244
   50MOL    C9325671   8.214   4.938   1.834 -0.5777  0.3129  0.4829
   50MOL    C9425672   8.097   4.876   1.788 -0.0050  0.4080 -1.2242
   50MOL    H9525673   0.148   4.254   1.859 -0.1413 -0.2298  0.6350
   50MOL    H9625674   0.003   4.325   1.919  0.6543 -1.4615  1.4989
   50MOL    H9725675   8.227   4.338   1.701 -2.6206  1.0364  1.6125
   50MOL    H9825676   7.813   4.757   1.709  0.2143  0.0082 -1.6567
   50MOL    H9925677   7.675   4.556   1.630  0.2484 -1.1976 -1.8064
   50MOL   H10025678   7.770   4.339   1.619 -0.1167 -0.4513  0.1596
   50MOL   H10125679   8.009   4.305   1.694  0.1913 -0.2294 -2.0250
   50MOL   H10225680   0.203   4.676   1.821 -0.6836 -2.0065 -0.6527
   50MOL   H10325681   0.199   4.916   1.872 -0.5208  1.2505  0.2798
   50MOL   H10425682   8.207   5.043   1.861  1.5057  0.6682 -0.2632
   50MOL   H10525683   8.009   4.939   1.789 -0.7382 -0.5316  2.4204
   50MOL   C10625684   0.165   4.454   1.634 -0.5109  0.0870  0.1192
   50MOL   C10725685   0.247   4.343   1.565  0.3340  0.4256  0.5224
   50MOL   N10825686   0.190   4.211   1.542 -0.5036 -0.1933  0.0902
   50MOL   C10925687   0.251   4.084   1.559 -0.2030  0.2927 -0.4767
   50MOL   C11025688   0.173   3.982   1.503 -0.7065 -0.1523 -0.0992
   50MOL   C11125689   0.207   3.848   1.510 -0.3392  0.7075 -0.0619
   50MOL   C11225690   0.327   3.813   1.579  0.4035  0.0950 -0.1366
   50MOL   C11325691   0.415   3.911   1.632 -0.3540 -0.1421  0.4050
   50MOL   C11425692   0.374   4.044   1.618 -0.7378  0.3781  0.0044
   50MOL   C11525693   0.054   4.044   1.456 -0.4480 -0.1145  0.4995
   50MOL   C11625694   0.068   4.184   1.476 -0.1244  0.3472  0.2126
   50MOL   C11725695   8.197   4.267   1.428  0.1163 -0.1646 -0.2228
   50MOL   C11825696   8.072   4.219   1.382  0.1921 -0.1593  0.4046
   50MOL   C11925697   8.053   4.084   1.352 -0.2866 -0.2306 -0.0908
   50MOL   C12025698   8.155   3.998   1.400  0.1541  0.3724 -0.6727
   50MOL   H12125699   0.140   4.522   1.552 -1.2383  1.7565  1.6954
   50MOL   H12225700   0.237   4.513   1.690  0.6397 -2.0867  0.9808
   50MOL   H12325701   0.323   4.316   1.639  0.7307 -0.2950 -0.1391
   50MOL   H12425702   0.141   3.775   1.467  1.6342 -2.7364  2.5353
   50MOL   H12525703   0.352   3.708   1.581 -1.6366 -0.4226 -1.0128
   50MOL   H12625704   0.500   3.876   1.689 -1.3371 -2.2609  0.6179
   50MOL   H12725705   0.437   4.117   1.666 -0.6004 -0.4077  1.0449
   50MOL   H12825706   8.207   4.373   1.448 -1.0846 -0.5019  2.4272
   50MOL   H12925707   7.990   4.289   1.376  0.4692  0.0301 -1.8275
   50MOL   H13025708   7.962   4.045   1.310 -1.2368 -0.5240  2.1755
   50MOL   H13125709   8.143   3.892   1.383  1.4234  0.0763  0.1568
   50MOL   C13225710   0.321   4.385   1.438 -0.4111 -0.0444  0.5049
   50MOL   C13325711   0.416   4.499   1.437  0.3761  0.4825  0.1180
   50MOL   N13425712   0.516   4.483   1.550 -0.6961  0.3369  0.2469
   50MOL   C13525713   0.538   4.576   1.652  0.2400 -0.8081  0.0166
   50MOL   C13625714   0.655   4.534   1.722  0.2007 -0.4292  0.2733
   50MOL   C13725715   0.703   4.618   1.821  0.1793 -1.0026  0.2576
   50MOL   C13825716   0.635   4.740   1.849  0.6025 -0.3400 -0.5296
   50MOL   C13925717   0.520   4.781   1.775 -0.3321 -0.1490 -0.2037
   50MOL   C14025718   0.472   4.694   1.683  0.1865  0.2311  0.2419
   50MOL   C14125719   0.699   4.409   1.670 -0.2498  0.8960 -0.1280
   50MOL   C14225720   0.607   4.372   1.565  0.0276 -0.2215 -0.1460
   50MOL   C14325721   0.628   4.255   1.496  0.1924 -0.4005 -0.4730
   50MOL   C14425722   0.726   4.165   1.529  0.2187  0.6994  0.4664
   50MOL   C14525723   0.816   4.198   1.631  0.7297  0.0804 -0.3756
   50MOL   C14625724   0.799   4.318   1.702  0.0898 -0.0200  0.1017
   50MOL   H14725725   0.367   4.296   1.394  0.9783  2.0599 -2.4308
   50MOL   H14825726   0.250   4.397   1.357  0.0446  1.9735  0.3780
   50MOL   H14925727   0.366   4.594   1.454  0.1074  0.2889  0.4187
   50MOL   H15025728   0.795   4.585   1.866  0.3241 -0.2633  0.5120
   50MOL   H15125729   0.690   4.802   1.918  0.2351 -2.7616  2.0369
   50MOL   H15225730   0.467   4.872   1.801 -0.4521 -0.5981  1.2167
   50MOL   H15325731   0.393   4.725   1.617  1.3615 -0.3297 -1.4762
   50MOL   H15425732   0.576   4.233   1.404  1.6439 -2.0541 -0.9231
   50MOL   H15525733   0.754   4.076   1.473 -1.3821  0.8918 -0.6546
   50MOL   H15625734   0.903   4.140   1.657  0.8698  0.8408  0.9045
   50MOL   H15725735   0.866   4.347   1.783 -0.0757 -1.6654  0.8477
   50MOL   C15825736   0.488   4.524   1.299  0.1010  0.1940  0.0376
   50MOL   C15925737   0.615   4.612   1.309  0.1122 -0.3838 -0.4288
   50MOL   N16025738   0.677   4.615   1.175  0.1884 -0.6985 -0.1243
   50MOL   C16125739   0.777   4.528   1.130 -0.3435 -0.1686 -0.9868
   50MOL   C16225740   0.816   4.571   0.999  0.7221  0.4077  0.1891
   50MOL   C16325741   0.921   4.501   0.931 -0.1575 -0.5426 -0.6902
   50MOL   C16425742   0.977   4.390   0.996  0.0131 -1.1297 -0.2018
   50MOL   C16525743   0.938   4.347   1.124  0.4033  0.3864  0.2137
   50MOL   C16625744   0.840   4.420   1.194  0.7022 -0.0673  0.3019
   50MOL   C16725745   0.741   4.684   0.961  0.4166 -0.3817 -0.3844
   50MOL   C16825746   0.641   4.696   1.064 -0.2104  0.7870 -0.2268
   50MOL   C16925747   0.529   4.777   1.053  0.1536  0.2719  1.2341
   50MOL   C17025748   0.522   4.862   0.941 -0.5882  0.2792  0.6492
   50MOL   C17125749   0.625   4.861   0.844 -0.1165 -0.2417 -0.8917
   50MOL   C17225750   0.729   4.763   0.849  0.0285 -0.3172  0.3393
   50MOL   H17325751   0.526   4.428   1.262 -0.4651 -0.5646  1.3954
   50MOL   H17425752   0.424   4.570   1.223  0.9982 -0.3229 -1.0511
   50MOL   H17525753   0.688   4.559   1.371 -0.2551  0.5226  0.7831
   50MOL   H17625754   0.954   4.532   0.833 -1.7349 -3.1746 -2.0961
   50MOL   H17725755   1.056   4.335   0.947 -0.9317 -1.3561 -1.5004
   50MOL   H17825756   0.966   4.255   1.174 -0.6725  0.7702  1.5583
   50MOL   H17925757   0.820   4.387   1.295 -2.3325 -1.0731 -0.5756
   50MOL   H18025758   0.458   4.785   1.134  0.9846  1.7118  1.8430
   50MOL   H18125759   0.443   4.936   0.935 -1.0420 -0.3736 -1.7459
   50MOL   H18225760   0.615   4.923   0.757  3.4434 -1.6812 -2.4400
   50MOL   H18325761   0.810   4.757   0.777 -0.1802  0.2419  0.0554
   50MOL   C18425762   0.598   4.761   1.365 -0.0997  0.1670  0.3105
   50MOL   C18525763   0.706   4.815   1.458 -0.4141  0.5671  0.0139
   50MOL   N18625764   0.836   4.828   1.391  0.9049 -0.0155  0.5115
   50MOL   C18725765   0.952   4.756   1.421  0.0664 -0.0792  0.2654
   50MOL   C18825766   1.054   4.803   1.332  0.1544  0.3106 -0.0343
   50MOL   C18925767   1.175   4.741   1.345 -0.0976 -0.5429 -0.3271
   50MOL   C19025768   1.200   4.625   1.426  0.2565  0.5966 -0.3686
   50MOL   C19125769   1.086   4.582   1.508  0.3602  0.6829 -0.1645
   50MOL   C19225770   0.966   4.644   1.501  0.0209 -0.0437  0.6913
   50MOL   C19325771   1.001   4.910   1.255  0.0372 -0.6636  0.5687
   50MOL   C19425772   0.864   4.915   1.283 -0.3383  0.0395 -0.0794
   50MOL   C19525773   0.781   4.999   1.205  0.5909 -0.8066  0.1796
   50MOL   C19625774   0.841   5.096   1.124  0.0993 -0.4388  0.0099
   50MOL   C19725775   0.982   5.101   1.103  0.6290 -0.5484  0.1048
   50MOL   C19825776   1.060   5.006   1.167  0.1743 -0.2075 -0.1023
   50MOL   H19925777   0.593   4.827   1.279 -1.1353  0.3056  0.4795
   50MOL   H20025778   0.503   4.758   1.418 -1.1583  0.1259 -1.5717
   50MOL   H20125779   0.714   4.745   1.542 -1.1669  2.5578  1.7831
   50MOL   H20225780   1.251   4.784   1.282 -0.4879  1.4811  0.5328
   50MOL   H20325781   1.297   4.578   1.432 -0.0798  0.0272  0.8519
   50MOL   H20425782   1.092   4.508   1.586 -1.3649 -0.4921 -1.1019
   50MOL   H20525783   0.888   4.606   1.567  0.4547  0.2526  1.3804
   50MOL   H20625784   0.673   5.000   1.213  0.3815 -0.9584 -2.0795
   50MOL   H20725785   0.781   5.167   1.069  0.0872 -0.1610  0.3827
   50MOL   H20825786   1.037   5.165   1.036  1.6400 -1.3066  0.2046
   50MOL   H20925787   1.167   5.007   1.151 -0.0276  2.1776 -1.6063
   50MOL   C21025788   0.660   4.957   1.508 -0.3281 -0.1546  0.9398
   50MOL   C21125789   0.764   5.043   1.582 -0.7602  0.2874  0.0446
   50MOL   N21225790   0.719   5.181   1.591  0.4232  0.0103 -0.2263
   50MOL   C21325791   0.771   5.286   1.516  0.4488  0.4711  0.4451
   50MOL   C21425792   0.720   5.410   1.560  0.4948 -0.5885 -0.6211
   50MOL   C21525793   0.772   5.530   1.500 -0.1302  0.0496  0.4444
   50MOL   C21625794   0.865   5.517   1.392 -0.0187  0.7363  0.5969
   50MOL   C21725795   0.915   5.392   1.355 -1.0257  0.1770  0.0386
   50MOL   C21825796   0.871   5.280   1.415 -0.5228  0.3141 -0.2273
   50MOL   C21925797   0.612   5.381   1.647 -0.4502 -0.5927  0.6561
   50MOL   C22025798   0.617   5.236   1.667  0.2658 -0.7287  0.0962
   50MOL   C22125799   0.518   5.176   1.747 -0.6942  0.8777  0.1092
   50MOL   C22225800   0.420   5.255   1.810  1.0884 -1.0364 -0.4323
   50MOL   C22325801   0.429   5.393   1.808  0.6601 -0.3461  0.8436
   50MOL   C22425802   0.522   5.455   1.724 -0.2521 -0.5184 -0.3501
   50MOL   H22525803   0.630   5.022   1.425 -0.9148 -0.8397  0.6115
   50MOL   H22625804   0.575   4.932   1.571 -1.2466 -0.7916 -0.5353
   50MOL   H22725805   0.852   5.037   1.518 -0.7400 -0.7242  0.1536
   50MOL   H22825806   0.746   5.629   1.535  1.4853  1.1668 -1.3687
   50MOL   H22925807   0.891   5.599   1.327 -0.5880 -0.5381 -1.2770
   50MOL   H23025808   0.990   5.394   1.277 -0.8961  1.1151  0.1800
   50MOL   H23125809   0.903   5.187   1.371 -1.7079 -0.3201  0.2200
   50MOL   H23225810   0.523   5.068   1.757  0.7853  0.9533  0.3493
   50MOL   H23325811   0.336   5.214   1.864  0.2441 -0.2137 -1.0961
   50MOL   H23425812   0.357   5.460   1.853 -1.7669  0.0556 -3.3600
   50MOL   H23525813   0.520   5.561   1.702 -0.4490  0.2570  3.1018
   50MOL   C23625814   0.816   4.973   1.710  0.0541  0.0984 -0.0919
   50MOL   C23725815   0.936   5.048   1.768 -0.5194 -0.0639 -0.2900
   50MOL   N23825816   0.981   4.994   1.902 -0.3700 -0.3831  0.1154
   50MOL   C23925817   1.008   5.075   2.012  0.3675 -0.4194 -0.1873
   50MOL   C24025818   1.066   4.989   2.112 -0.0158 -0.3924 -0.5429
   50MOL   C24125819   1.104   5.045   2.235 -0.7584 -0.2856  0.5561
   50MOL   C24225820   1.091   5.180   2.251 -0.3094 -0.2283 -0.0541
   50MOL   C24325821   1.025   5.264   2.161  0.0800  0.8375  0.1703
   50MOL   C24425822   0.989   5.213   2.038  0.5147  0.5582  0.3819
   50MOL   C24525823   1.066   4.857   2.064 -0.1437  0.2368  0.2970
   50MOL   C24625824   1.024   4.862   1.926 -0.5273 -0.3602 -0.2812
   50MOL   C24725825   1.027   4.739   1.851 -0.3499  0.1484 -0.3760
   50MOL   C24825826   1.076   4.625   1.912  0.5329 -0.2968 -0.8115
   50MOL   C24925827   1.116   4.619   2.053  0.0270  0.1282 -0.2360
   50MOL   C25025828   1.117   4.738   2.123  0.0885 -0.2437  0.1320
   50MOL   H25125829   0.736   4.967   1.783  0.4444 -1.9646  0.1971
   50MOL   H25225830   0.842   4.870   1.689  0.4026 -0.2200  1.8411
   50MOL   H25325831   0.905   5.150   1.784 -1.2645 -0.2740 -0.3875
   50MOL   H25425832   1.143   4.989   2.319  0.0313 -0.3884  0.1264
   50MOL   H25525833   1.120   5.220   2.347  0.7983  1.0481 -0.9107
   50MOL   H25625834   1.007   5.370   2.173 -1.5753  0.7131 -0.9701
   50MOL   H25725835   0.940   5.276   1.966 -0.6825 -1.8590 -0.9908
   50MOL   H25825836   1.014   4.742   1.744  2.4600  3.4110 -0.6948
   50MOL   H25925837   1.086   4.529   1.864  0.1466 -2.0917  2.5208
   50MOL   H26025838   1.154   4.529   2.100 -1.5316 -0.2750  0.2584
   50MOL   H26125839   1.149   4.756   2.225 -1.3539 -0.3715  0.6160
   50MOL   C26225840   1.059   5.062   1.676  0.4582  0.1364  0.2790
   50MOL   C26325841   1.156   5.179   1.729 -0.2401  0.4590 -0.0479
   50MOL   N26425842   1.285   5.159   1.665 -0.2804  0.1438  0.0813
   50MOL   C26525843   1.402   5.113   1.730  0.0654 -0.2480 -0.7818
   50MOL   C26625844   1.502   5.098   1.630 -0.3692 -0.4816  0.2032
   50MOL   C26725845   1.629   5.052   1.667 -0.1173  0.3105 -0.6088
   50MOL   C26825846   1.661   5.017   1.801  0.0547 -0.3531 -0.6686
   50MOL   C26925847   1.555   5.030   1.899 -0.8225 -0.4728 -0.2418
   50MOL   C27025848   1.426   5.073   1.865  0.5714  0.6927  1.1022
   50MOL   C27125849   1.451   5.138   1.511  0.2309 -0.4640 -0.2151
   50MOL   C27225850   1.314   5.176   1.530 -0.6200 -0.0546  0.0378
   50MOL   C27325851   1.234   5.218   1.427  0.1898 -0.1412  0.0285
   50MOL   C27425852   1.288   5.231   1.297 -0.7418  0.4474  0.2268
   50MOL   C27525853   1.423   5.203   1.272  0.4479 -0.3337 -0.4231
   50MOL   C27625854   1.506   5.167   1.383 -0.4969  0.9232 -0.8739
   50MOL   H27725855   1.116   4.970   1.662 -0.9827 -0.9360  1.2699
   50MOL   H27825856   1.030   5.091   1.575 -1.9321  1.3169  1.2709
   50MOL   H27925857   1.178   5.159   1.834  2.6882  1.5938 -0.3845
   50MOL   H28025858   1.711   5.040   1.597  2.3248 -0.8480  2.3141
   50MOL   H28125859   1.760   4.979   1.820 -1.2311 -3.1676  0.6219
   50MOL   H28225860   1.573   4.994   1.999 -0.1833 -3.2602 -1.3113
   50MOL   H28325861   1.360   5.065   1.950  0.1470  0.2394  0.7353
   50MOL   H28425862   1.131   5.243   1.449 -0.0730 -0.5560 -0.7309
   50MOL   H28525863   1.233   5.275   1.215  0.6235  1.8536  0.0507
   50MOL   H28625864   1.464   5.218   1.173  1.0321  0.5145 -0.0590
   50MOL   H28725865   1.613   5.156   1.372  0.0836  2.5317  2.4133
   50MOL   C28825866   1.099   5.322   1.710 -0.1172  0.2392 -0.2691
   50MOL   C28925867   1.203   5.439   1.722 -0.4254 -0.8598 -0.2068
   50MOL   N29025868   1.134   5.566   1.703 -0.0414 -0.5102  0.1828
   50MOL   C29125869   1.130   5.632   1.579  0.0606 -0.1577  0.3726
   50MOL   C29225870   1.065   5.760   1.596 -0.3836  0.7581  0.3121
   50MOL   C29325871   1.062   5.848   1.491  0.1107 -0.1121  0.1973
   50MOL   C29425872   1.122   5.819   1.368  0.8078  0.2813  0.5395
   50MOL   C29525873   1.200   5.702   1.358 -0.5906  0.3448 -0.0723
   50MOL   C29625874   1.197   5.601   1.456 -0.3496 -0.3118  0.2142
   50MOL   C29725875   1.009   5.763   1.727  0.4711  0.1938 -0.2493
   50MOL   C29825876   1.052   5.643   1.791  0.4120  0.2560  0.3183
   50MOL   C29925877   1.012   5.617   1.925 -0.2743  0.3254  0.1083
   50MOL   C30025878   0.924   5.700   1.992  0.4892 -0.4155 -0.3933
   50MOL   C30125879   0.878   5.817   1.929  0.2314 -0.4205  0.5327
   50MOL   C30225880   0.917   5.846   1.798  0.4644  1.0081 -0.6877
   50MOL   H30325881   1.060   5.347   1.612  3.7491  2.3246 -1.3748
   50MOL   H30425882   1.014   5.341   1.775  0.7830  1.0002  0.7138
   50MOL   H30525883   1.279   5.420   1.646  0.9376  0.3337  0.8270
   50MOL   H30625884   1.020   5.948   1.500  2.3228  0.9635 -0.9161
   50MOL   H30725885   1.105   5.877   1.278  0.9020  1.0536  1.0178
   50MOL   H30825886   1.236   5.674   1.260  0.5283  1.0180  0.1325
   50MOL   H30925887   1.242   5.504   1.442 -0.5036 -0.1640 -1.3773
   50MOL   H31025888   1.048   5.528   1.973  1.5083  1.2830  0.5942
   50MOL   H31125889   0.898   5.682   2.095 -0.1132  0.7801 -0.3343
   50MOL   H31225890   0.807   5.883   1.975 -1.0179 -1.2406 -0.1821
   50MOL   H31325891   0.874   5.935   1.754  0.9456 -0.1204 -3.5214
   50MOL   C31425892   1.276   5.432   1.857  0.0267  0.4812  0.0625
   50MOL   C31525893   1.369   5.559   1.872  0.0232 -0.4478 -0.2022
   50MOL   N31625894   1.431   5.560   2.002 -0.1587  0.0693  0.2921
   50MOL   C31725895   1.426   5.660   2.096  0.0035 -0.4489  1.0745
   50MOL   C31825896   1.503   5.626   2.207  0.6668  0.5327  0.1772
   50MOL   C31925897   1.488   5.707   2.315 -0.2292  0.7652  0.1120
   50MOL   C32025898   1.411   5.823   2.319  0.1562 -0.3352  0.4822
   50MOL   C32125899   1.333   5.856   2.204 -0.5023  0.8849 -0.2766
   50MOL   C32225900   1.348   5.778   2.094  0.4398 -0.4528  1.1428
   50MOL   C32325901   1.577   5.508   2.169  0.3577 -0.0762 -0.2680
   50MOL   C32425902   1.530   5.471   2.043 -0.1524  0.0358  0.1144
   50MOL   C32525903   1.599   5.364   1.973  0.1511  0.4626 -0.3608
   50MOL   C32625904   1.710   5.302   2.031 -0.5497  0.3054  0.0318
   50MOL   C32725905   1.751   5.335   2.164  0.3177 -0.1989  0.0189
   50MOL   C32825906   1.687   5.442   2.228  0.8531  0.4119 -0.3541
   50MOL   H32925907   1.217   5.413   1.946  0.0321 -2.4259 -0.5174
   50MOL   H33025908   1.335   5.341   1.855 -0.5916  0.0749  0.0451
   50MOL   H33125909   1.315   5.653   1.872 -1.5739 -1.3574 -0.2222
   50MOL   H33225910   1.561   5.699   2.394  0.2259  1.5906 -0.2268
   50MOL   H33325911   1.387   5.877   2.409  1.9192 -1.0554  1.4038
   50MOL   H33425912   1.270   5.943   2.200 -1.1633  0.3963 -0.6968
   50MOL   H33525913   1.276   5.821   2.025  2.2684  1.2690  0.2580
   50MOL   H33625914   1.574   5.341   1.871 -2.3837  2.6714 -0.2961
   50MOL   H33725915   1.763   5.225   1.977 -1.6880 -1.2548  1.0780
   50MOL   H33825916   1.832   5.279   2.208  1.1418 -0.5070 -1.8141
   50MOL   H33925917   1.722   5.470   2.327 -1.3717 -0.2405  0.6553
   50MOL   C34025918   1.464   5.580   1.746  0.2800 -0.1441 -0.2577
   50MOL   C34125919   1.574   5.693   1.751  0.3163  0.0011 -0.3727
   50MOL   N34225920   1.674   5.670   1.647 -0.0948  0.2025 -0.3413
   50MOL   C34325921   1.807   5.645   1.680  0.0252 -0.3406  0.6268
   50MOL   C34425922   1.875   5.641   1.557 -1.2307  0.5981 -0.3737
   50MOL   C34525923   2.014   5.617   1.560  0.6390  0.6765 -0.4713
   50MOL   C34625924   2.077   5.595   1.683 -0.0705 -0.3381 -0.3081
   50MOL   C34725925   2.006   5.607   1.805 -0.4029  0.2206 -0.7573
   50MOL   C34825926   1.869   5.628   1.804  0.3561  0.5287 -0.0010
   50MOL   C34925927   1.777   5.669   1.451 -0.4506  0.2110  0.8234
   50MOL   C35025928   1.652   5.688   1.512  0.0859 -0.0252  0.2750
   50MOL   C35125929   1.538   5.712   1.438  0.5069  0.7270 -0.4991
   50MOL   C35225930   1.541   5.711   1.297 -0.5685 -0.6564  0.1868
   50MOL   C35325931   1.667   5.703   1.233 -0.7994  0.5971  0.6230
   50MOL   C35425932   1.785   5.688   1.311  0.3664  0.3195 -0.0964
   50MOL   H35525933   1.520   5.489   1.727 -0.2231 -0.2923 -1.0361
   50MOL   H35625934   1.408   5.602   1.655 -0.1100  0.2670  0.0780
   50MOL   H35725935   1.618   5.667   1.847  0.5534 -0.8338 -0.7069
   50MOL   H35825936   2.073   5.609   1.470  0.6769  0.1739 -0.4014
   50MOL   H35925937   2.185   5.583   1.688 -0.0781 -0.4081 -0.2993
   50MOL   H36025938   2.057   5.589   1.899 -1.7723  0.5320  0.0570
   50MOL   H36125939   1.810   5.635   1.893 -0.2578 -1.0280 -0.2610
   50MOL   H36225940   1.440   5.723   1.483  0.1980  0.7155 -1.1616
   50MOL   H36325941   1.451   5.717   1.237  0.1053  0.6251 -0.7155
   50MOL   H36425942   1.673   5.701   1.126  0.3599 -2.8218  0.7046
   50MOL   H36525943   1.881   5.674   1.262  0.4238 -0.5017  0.2368
   50MOL   C36625944   1.516   5.830   1.749  0.2642 -0.1636  0.2319
   50MOL   C36725945   1.621   5.946   1.769  0.0502 -0.1376  0.2937
   50MOL   N36825946   1.558   6.072   1.726 -0.0150 -0.1435 -0.2275
   50MOL   C36925947   1.600   6.142   1.605  0.0239 -0.5369 -1.0475
   50MOL   C37025948   1.510   6.253   1.597 -0.7030  0.0375  0.1094
   50MOL   C37125949   1.537   6.343   1.490  0.4380  0.0140 -0.0303
   50MOL   C37225950   1.640   6.321   1.393  0.1765 -0.3728 -0.2528
   50MOL   C37325951   1.710   6.204   1.395 -0.2632 -0.8134 -0.2149
   50MOL   C37425952   1.686   6.117   1.501 -0.7759  0.0237 -0.1268
   50MOL   C37525953   1.412   6.247   1.701  0.3099 -0.3704  0.2621
   50MOL   C37625954   1.445   6.132   1.783  0.2038  0.1786  0.0959
   50MOL   C37725955   1.370   6.109   1.899 -0.0586 -0.1746 -0.7654
   50MOL   C37825956   1.257   6.192   1.929 -0.9133  0.4990  0.0433
   50MOL   C37925957   1.227   6.303   1.850  0.6589  0.1803 -1.3216
   50MOL   C38025958   1.298   6.331   1.735 -0.9626  0.0861  0.5933
   50MOL   H38125959   1.449   5.839   1.663 -1.7238  0.8204  1.8297
   50MOL   H38225960   1.440   5.829   1.827  1.6170 -1.5678  1.5808
   50MOL   H38325961   1.703   5.942   1.698  0.6952 -3.0629  1.1471
   50MOL   H38425962   1.478   6.433   1.480  0.4122 -0.0632 -0.5837
   50MOL   H38525963   1.635   6.390   1.310 -2.9836  0.6525  0.7205
   50MOL   H38625964   1.783   6.187   1.317  0.1056 -0.1507 -0.0194
   50MOL   H38725965   1.746   6.029   1.487 -2.0481 -1.2021  1.8320
   50MOL   H38825966   1.384   6.022   1.961 -0.8579  1.8802  2.4181
   50MOL   H38925967   1.185   6.165   2.004 -1.6126  2.2329  0.0166
   50MOL   H39025968   1.143   6.364   1.882  2.0722  0.6399  1.6990
   50MOL   H39125969   1.287   6.423   1.680  1.0764  0.3597  0.6001
   50MOL   C39225970   1.684   5.954   1.912  0.2671  0.2971 -0.3349
   50MOL   C39325971   1.739   6.095   1.958 -0.2245  0.6994  0.1604
   50MOL   N39425972   1.729   6.109   2.100 -0.9811 -0.2269 -0.2092
   50MOL   C39525973   1.644   6.209   2.158 -1.1541  0.4631  0.1976
   50MOL   C39625974   1.652   6.200   2.297 -0.7383  0.3950 -0.8361
   50MOL   C39725975   1.561   6.269   2.376  0.1023 -0.1931  0.3687
   50MOL   C39825976   1.458   6.348   2.313 -0.2788  0.5646 -0.1394
   50MOL   C39925977   1.462   6.371   2.176  0.2483 -0.5667  0.2984
   50MOL   C40025978   1.552   6.296   2.098 -0.1479  0.3619 -0.1135
   50MOL   C40125979   1.756   6.104   2.321  0.1229 -0.4867 -0.8678
   50MOL   C40225980   1.804   6.046   2.205  0.5473  0.2232  0.2845
   50MOL   C40325981   1.913   5.958   2.199  0.6487 -0.1091 -0.3265
   50MOL   C40425982   1.980   5.916   2.317  0.0683  0.2086 -0.3539
   50MOL   C40525983   1.934   5.969   2.439  0.3731 -0.6229  0.4122
   50MOL   C40625984   1.820   6.059   2.438  0.0317 -0.0381  0.5561
   50MOL   H40725985   1.594   5.933   1.971 -0.3381 -0.4855 -1.5144
   50MOL   H40825986   1.761   5.880   1.936  0.4678  0.2645 -1.0968
   50MOL   H40925987   1.681   6.177   1.915 -1.4654  1.5827  3.4169
   50MOL   H41025988   1.562   6.253   2.483  1.3192  0.0854  0.4098
   50MOL   H41125989   1.383   6.404   2.366  0.9353  1.7063  0.4332
   50MOL   H41225990   1.389   6.431   2.124 -0.2851 -2.1919 -0.8729
   50MOL   H41325991   1.543   6.310   1.992 -0.1447 -1.5084 -0.3641
   50MOL   H41425992   1.943   5.911   2.107 -2.2561 -1.3384 -0.7114
   50MOL   H41525993   2.054   5.838   2.321  0.4790  0.5155 -1.6115
   50MOL   H41625994   1.988   5.934   2.526  0.1228 -0.4156  0.6551
   50MOL   H41725995   1.780   6.105   2.527  1.0888  1.1034  0.4605
   50MOL   C41825996   1.883   6.123   1.909  0.1088 -0.0295  0.1623
   50MOL   C41925997   1.921   6.274   1.905  0.0035  0.1529  0.3176
   50MOL   N42025998   2.062   6.295   1.871  0.3783 -0.0964  0.4257
   50MOL   C42125999   2.166   6.325   1.961  0.4586 -0.3907 -0.7125
   50MOL   C42226000   2.286   6.333   1.885  0.5195 -0.1921 -0.6557
   50MOL   C42326001   2.407   6.374   1.946  0.0593  0.0785 -0.2974
   50MOL   C42426002   2.413   6.394   2.086 -0.7821  0.5320 -0.5009
   50MOL   C42526003   2.301   6.377   2.166  0.2394 -0.2189  0.0671
   50MOL   C42626004   2.175   6.335   2.103 -0.4517  0.1025 -0.3730
   50MOL   C42726005   2.253   6.310   1.747 -0.1520  0.0315  0.2727
   50MOL   C42826006   2.113   6.278   1.739  0.2088 -0.4012 -0.1800
   50MOL   C42926007   2.054   6.243   1.615  0.2834 -0.3147 -0.6166
   50MOL   C43026008   2.129   6.227   1.499  0.8609 -0.6549 -0.6756
   50MOL   C43126009   2.265   6.263   1.506  0.4763 -0.1464 -0.5827
   50MOL   C43226010   2.321   6.314   1.624  0.0753  0.1008 -0.2017
   50MOL   H43326011   1.954   6.066   1.970 -1.2793 -3.5130 -1.3636
   50MOL   H43426012   1.887   6.085   1.807 -2.4757 -0.6142  0.2539
   50MOL   H43526013   1.904   6.313   2.006 -2.2463 -1.1076  0.4670
   50MOL   H43626014   2.496   6.386   1.885  0.9000  0.6297  0.9989
   50MOL   H43726015   2.507   6.425   2.128  0.1456 -1.2770 -1.1706
   50MOL   H43826016   2.304   6.399   2.272  0.2338  3.1636 -0.5797
   50MOL   H43926017   2.086   6.322   2.162  0.2224 -1.8406  0.2427
   50MOL   H44026018   1.948   6.229   1.601 -0.1955 -0.1457  2.5115
   50MOL   H44126019   2.088   6.201   1.403 -0.1394  0.5180 -0.5719
   50MOL   H44226020   2.336   6.261   1.424 -1.6984  1.1111 -2.5740
   50MOL   H44326021   2.419   6.358   1.621 -0.6597  1.7159 -1.2396
   50MOL   C44426022   1.830   6.366   1.819  0.9181  0.2900 -0.2995
   50MOL   C44526023   1.878   6.501   1.771 -0.3353 -0.5746 -0.8191
   50MOL   N44626024   1.779   6.560   1.683 -0.0339  0.0451  0.2829
   50MOL   C44726025   1.801   6.589   1.547  0.2156 -0.6547  0.6150
   50MOL   C44826026   1.686   6.648   1.493 -0.1844  0.3672  0.3357
   50MOL   C44926027   1.685   6.680   1.353  0.1529  1.0905  0.4120
   50MOL   C45026028   1.802   6.655   1.281 -0.0824  0.0218  0.6847
   50MOL   C45126029   1.915   6.592   1.335  0.1704  0.2903  0.2298
   50MOL   C45226030   1.916   6.565   1.470  0.7685  0.7046  0.3420
   50MOL   C45326031   1.586   6.656   1.597 -0.3260 -0.1418  0.9834
   50MOL   C45426032   1.649   6.602   1.714 -0.3614  0.1920 -0.8695
   50MOL   C45526033   1.578   6.609   1.837  0.6742 -0.4904  0.5937
   50MOL   C45626034   1.439   6.651   1.845 -0.4588 -0.0887  0.5748
   50MOL   C45726035   1.383   6.708   1.729 -0.9311  0.1930 -0.4195
   50MOL   C45826036   1.454   6.715   1.603  0.0501 -0.0369  0.3682
   50MOL   H45926037   1.811   6.324   1.720  2.6195  2.0660 -1.4143
   50MOL   H46026038   1.736   6.378   1.874  0.1768  0.2519 -1.5163
   50MOL   H46126039   1.966   6.483   1.709 -0.3910  4.2308 -2.4648
   50MOL   H46226040   1.603   6.723   1.297  1.7741 -0.7392 -3.5587
   50MOL   H46326041   1.807   6.693   1.180  1.7818  1.2198  1.2079
   50MOL   H46426042   1.999   6.562   1.273  0.2540  0.1828  0.3922
   50MOL   H46526043   2.007   6.531   1.517 -0.7722 -1.6419  1.7341
   50MOL   H46626044   1.620   6.571   1.929  0.6194 -0.4771  0.6242
   50MOL   H46726045   1.399   6.662   1.945 -4.2341 -0.4406 -0.8191
   50MOL   H46826046   1.279   6.737   1.738 -0.4409  0.9583  3.8514
   50MOL   H46926047   1.415   6.757   1.511  0.7781  2.2761  1.1034
   50MOL   C47026048   1.934   6.601   1.882 -0.1970  0.4066 -0.7609
   50MOL   C47126049   1.964   6.744   1.840  0.1449 -0.1633  0.1432
   50MOL   N47226050   1.844   6.834   1.845  0.1737 -0.5823 -0.1666
   50MOL   C47326051   1.785   6.905   1.740  0.0086  0.4136  0.8785
   50MOL   C47426052   1.670   6.971   1.784 -0.1861 -0.4982  0.2090
   50MOL   C47526053   1.599   7.051   1.698  0.1290  0.4357  0.0389
   50MOL   C47626054   1.641   7.067   1.567  0.4180 -0.3187  0.9190
   50MOL   C47726055   1.757   7.002   1.523  0.3013 -0.2813  0.2452
   50MOL   C47826056   1.832   6.922   1.611 -0.4166 -0.3275 -0.4785
   50MOL   C47926057   1.650   6.937   1.919 -0.2716  0.5448  0.4365
   50MOL   C48026058   1.765   6.859   1.957  0.2670 -0.2368 -0.4597
   50MOL   C48126059   1.781   6.812   2.090  0.3920 -0.5638 -0.0597
   50MOL   C48226060   1.679   6.844   2.187 -0.2315  0.0269 -0.6010
   50MOL   C48326061   1.561   6.916   2.147 -0.4606  0.0867 -0.7111
   50MOL   C48426062   1.548   6.966   2.013 -0.5353 -0.4511 -0.3917
   50MOL   H48526063   1.865   6.595   1.967 -0.8619 -1.4947 -1.3918
   50MOL   H48626064   2.024   6.553   1.919 -1.4156 -0.7806  0.7406
   50MOL   H48726065   1.974   6.731   1.732  2.0387  0.3602  0.2502
   50MOL   H48826066   1.511   7.094   1.745 -0.9297 -0.0761 -1.4186
   50MOL   H48926067   1.592   7.141   1.506  0.2760 -0.3608  0.9808
   50MOL   H49026068   1.786   7.018   1.420 -2.3990 -1.5477 -0.7641
   50MOL   H49126069   1.916   6.864   1.577 -0.5153 -2.2015  2.3409
   50MOL   H49226070   1.871   6.761   2.120 -0.2717 -1.1157  1.0281
   50MOL   H49326071   1.702   6.809   2.287  0.4296 -1.1117 -1.1404
   50MOL   H49426072   1.488   6.932   2.225 -1.5871  0.4059 -1.7992
   50MOL   H49526073   1.454   7.008   1.980 -1.1964 -1.3669  0.2762
   50MOL   C49626074   2.091   6.791   1.901 -0.1748  0.1821  0.1108
   50MOL   C49726075   2.118   6.939   1.876  0.1679  0.4099 -0.2227
   50MOL   N49826076   2.235   6.985   1.946  0.3250  0.0439  0.4345
   50MOL   C49926077   2.364   7.001   1.888  0.3771 -0.1011  0.0657
   50MOL   C50026078   2.452   7.057   1.988  0.3836  0.0860 -1.0119
   50MOL   C50126079   2.588   7.071   1.963 -0.0668  0.0657  0.2740
   50MOL   C50226080   2.636   7.047   1.836  0.3599 -0.8123  0.4038
   50MOL   C50326081   2.553   6.990   1.735 -0.3119  0.2759  0.0367
   50MOL   C50426082   2.416   6.971   1.764 -0.6622 -0.3253 -0.6682
   50MOL   C50526083   2.378   7.074   2.108  0.5561  0.2454  0.1498
   50MOL   C50626084   2.248   7.015   2.078  0.2871 -0.1810 -0.2642
   50MOL   C50726085   2.147   7.012   2.179  0.0296 -0.2613  0.3767
   50MOL   C50826086   2.163   7.077   2.301 -0.5334 -0.8138 -0.1505
   50MOL   C50926087   2.291   7.127   2.332 -0.3187 -0.5265  0.4632
   50MOL   C51026088   2.397   7.121   2.236 -0.0408  0.3277  0.2135
   50MOL   H51126089   2.099   6.780   2.009  1.7141 -0.7671 -0.1082
   50MOL   H51226090   2.179   6.742   1.861 -2.0114 -0.8091 -2.8636
   50MOL   H51326091   2.029   6.997   1.903 -0.2913 -0.8688  1.0804
   50MOL   H51426092   2.672   7.110   2.019  0.5596  1.8803 -1.8757
   50MOL   H51526093   2.742   7.053   1.818  0.3917 -1.5269  0.3253
   50MOL   H51626094   2.591   6.980   1.634  0.3911  1.2225  0.1932
   50MOL   H51726095   2.355   6.925   1.687 -0.7272  0.5102 -1.1218
   50MOL   H51826096   2.047   6.980   2.153 -0.2602  0.2411  0.8724
   50MOL   H51926097   2.082   7.097   2.370  0.0580  0.1376  0.2724
   50MOL   H52026098   2.320   7.160   2.430  0.5653 -0.6014  0.2376
   50MOL   H52126099   2.497   7.152   2.265  0.7807 -1.6873 -0.3795
   50MOL   H52226100   2.128   6.956   1.769 -0.3767  0.8057 -0.2151
   51MOL     C126101   3.723   4.690   1.575  0.0419  0.0827  0.6376
   51MOL     C226102   3.702   4.687   1.414 -0.1471 -0.4467  0.4128
   51MOL     N326103   3.557   4.669   1.382 -0.9906 -0.0150  0.3189
   51MOL     C426104   3.512   4.568   1.298 -0.5305 -0.4851  0.1853
   51MOL     C526105   3.370   4.566   1.294 -0.2456 -0.3481  0.2674
   51MOL     C626106   3.301   4.466   1.219 -0.8840 -0.5529 -0.1180
   51MOL     C726107   3.377   4.366   1.152 -0.3561 -0.1412 -0.2333
   51MOL     C826108   3.522   4.374   1.152 -0.0590 -0.9355  0.4376
   51MOL     C926109   3.588   4.471   1.225 -0.1643  0.6824 -0.2224
   51MOL    C1026110   3.332   4.676   1.379 -0.2056 -0.3810 -0.1886
   51MOL    C1126111   3.447   4.733   1.433 -0.6424  0.3756  0.1079
   51MOL    C1226112   3.444   4.842   1.521  0.0813 -0.4518  0.9334
   51MOL    C1326113   3.321   4.886   1.561  0.5808 -0.1318  0.5027
   51MOL    C1426114   3.199   4.835   1.506  0.2824  0.3414  0.0736
   51MOL    C1526115   3.208   4.718   1.429 -0.3200  0.3298 -0.9234
   51MOL    H1626116   3.651   4.625   1.624  1.0073 -0.8637  0.8359
   51MOL    H1726117   3.727   4.791   1.616  0.6005  0.0354  0.7129
   51MOL    H1826118   3.755   4.600   1.375  1.5481  1.1045 -0.8304
   51MOL    H1926119   3.194   4.474   1.220 -0.8143  0.5492  1.3905
   51MOL    H2026120   3.335   4.280   1.101  0.1832  0.4006 -1.6394
   51MOL    H2126121   3.582   4.306   1.093 -0.1826 -0.5467 -0.1362
   51MOL    H2226122   3.695   4.461   1.222 -0.0551  2.1749 -2.5290
   51MOL    H2326123   3.532   4.898   1.549  0.3101  0.9799 -2.4482
   51MOL    H2426124   3.315   4.976   1.621  0.9543  1.1220 -1.3092
   51MOL    H2526125   3.100   4.873   1.527  0.0972  0.3433 -0.7808
   51MOL    H2626126   3.119   4.664   1.401  0.0588 -0.6603 -0.2355
   51MOL    H2726127   3.821   4.644   1.593 -0.5578 -2.0927 -1.4656
   51MOL    C2826128   3.747   4.818   1.353  0.1981 -0.2897 -0.1109
   51MOL    C2926129   3.890   4.814   1.306  0.1911 -0.2067  0.4915
   51MOL    N3026130   3.898   4.745   1.173  0.1206 -0.4149 -0.4985
   51MOL    C3126131   3.962   4.619   1.155  0.2641 -0.2706  0.3586
   51MOL    C3226132   3.934   4.575   1.021 -0.5704  0.8443 -0.2669
   51MOL    C3326133   3.998   4.450   0.990 -0.4735 -0.2278  0.2566
   51MOL    C3426134   4.076   4.373   1.076 -0.4380 -0.3378 -0.8961
   51MOL    C3526135   4.098   4.416   1.201 -0.2868 -0.2885 -0.4444
   51MOL    C3626136   4.043   4.538   1.240  0.1726  0.1645  0.3493
   51MOL    C3726137   3.864   4.679   0.952 -0.3430  0.1540 -0.0001
   51MOL    C3826138   3.838   4.777   1.051 -0.0785  0.1893  0.0678
   51MOL    C3926139   3.773   4.894   1.017 -0.1560 -0.9126  0.0765
   51MOL    C4026140   3.740   4.922   0.883  0.0441  0.5159  0.5757
   51MOL    C4126141   3.761   4.829   0.781 -0.3047 -0.1711 -0.1698
   51MOL    C4226142   3.814   4.698   0.819  0.1633 -1.3111 -0.7615
   51MOL    H4326143   3.679   4.854   1.276  1.0305  0.6140 -0.4287
   51MOL    H4426144   3.738   4.896   1.428  1.1475 -1.2831  1.0561
   51MOL    H4526145   3.946   4.751   1.375  1.1032 -1.7810 -1.6431
   51MOL    H4626146   3.991   4.414   0.888  1.4049 -2.3314  0.8404
   51MOL    H4726147   4.104   4.275   1.040  1.8846 -0.0604  0.1028
   51MOL    H4826148   4.169   4.364   1.265 -1.3503  0.9704  1.8322
   51MOL    H4926149   4.078   4.581   1.333  1.6883 -0.5424  0.1089
   51MOL    H5026150   3.743   4.962   1.095 -1.1970 -0.8738 -0.3521
   51MOL    H5126151   3.704   5.021   0.859  1.1282  0.6999 -0.3249
   51MOL    H5226152   3.729   4.844   0.679 -0.1995 -1.5706 -0.4141
   51MOL    H5326153   3.832   4.625   0.741  1.0575 -2.0228  0.0988
   51MOL    C5426154   3.958   4.953   1.304  0.1873 -0.4674 -0.3651
   51MOL    C5526155   3.992   5.013   1.438  0.8304  0.3912 -0.7727
   51MOL    N5626156   4.069   4.922   1.521  0.3976  0.2510 -0.1847
   51MOL    C5726157   4.051   4.919   1.658 -0.1146  0.1421 -0.9959
   51MOL    C5826158   4.135   4.812   1.711  0.5268 -0.3463  0.2596
   51MOL    C5926159   4.123   4.782   1.849  0.2412  0.0155  0.8716
   51MOL    C6026160   4.044   4.863   1.934 -0.4171 -0.4433 -0.6258
   51MOL    C6126161   3.963   4.965   1.883 -0.1303 -0.7502 -0.8256
   51MOL    C6226162   3.964   4.990   1.745 -0.2043  0.6254 -0.3426
   51MOL    C6326163   4.219   4.762   1.599  0.4155 -0.3390  0.2732
   51MOL    C6426164   4.177   4.835   1.487  0.3652 -0.3902  0.0657
   51MOL    C6526165   4.246   4.816   1.363 -0.3622 -0.0695  0.8952
   51MOL    C6626166   4.344   4.712   1.353 -0.7860  0.3190  0.0499
   51MOL    C6726167   4.386   4.637   1.470  0.8144  0.1430  0.4659
   51MOL    C6826168   4.321   4.663   1.585 -0.4391 -0.4934  0.1731
   51MOL    H6926169   4.052   4.958   1.248 -1.1220 -0.3747 -2.6059
   51MOL    H7026170   3.893   5.015   1.242  0.4453 -0.0784 -0.2506
   51MOL    H7126171   3.897   5.028   1.489  0.7978  0.5905 -0.8931
   51MOL    H7226172   4.181   4.701   1.892  2.1293  0.2733 -1.1071
   51MOL    H7326173   4.027   4.835   2.037  0.5350  0.5465 -0.1848
   51MOL    H7426174   3.910   5.028   1.952 -2.4121 -2.1890 -1.1955
   51MOL    H7526175   3.910   5.078   1.714 -0.8673 -0.2962 -1.8901
   51MOL    H7626176   4.222   4.872   1.274 -0.0814 -2.6363 -0.8808
   51MOL    H7726177   4.397   4.697   1.260 -0.0968  3.6211 -0.1299
   51MOL    H7826178   4.462   4.561   1.463  0.5587 -0.1173  0.4727
   51MOL    H7926179   4.355   4.605   1.670  0.6632 -0.2943 -0.1268
   51MOL    C8026180   4.062   5.150   1.423  0.0689 -0.3452  0.7058
   51MOL    C8126181   3.978   5.273   1.371 -0.0168  0.7472 -0.3722
   51MOL    N8226182   3.854   5.299   1.452 -0.7917  0.8395  0.0154
   51MOL    C8326183   3.726   5.269   1.403 -0.2920 -0.0220  0.2495
   51MOL    C8426184   3.630   5.300   1.500 -0.2751  0.2592  0.1880
   51MOL    C8526185   3.494   5.292   1.464  0.0555 -0.2886  0.4518
   51MOL    C8626186   3.453   5.259   1.335  0.1352  0.2460 -0.1656
   51MOL    C8726187   3.548   5.220   1.236  0.8829  0.1082  0.6647
   51MOL    C8826188   3.685   5.224   1.273  0.2703 -0.5863 -1.1921
   51MOL    C8926189   3.699   5.329   1.620 -0.3447 -0.1533  0.1032
   51MOL    C9026190   3.843   5.329   1.589  0.7707  0.1960 -0.3757
   51MOL    C9126191   3.941   5.363   1.687 -0.6698 -0.1999 -0.2469
   51MOL    C9226192   3.901   5.403   1.816 -0.1675 -0.2474 -0.3194
   51MOL    C9326193   3.761   5.399   1.845  0.5148  0.0399  0.4974
   51MOL    C9426194   3.663   5.365   1.749  0.4945  0.0166  0.2927
   51MOL    H9526195   4.099   5.187   1.519 -0.7056  2.7695 -0.1253
   51MOL    H9626196   4.151   5.147   1.361 -1.1327  1.2642 -1.1701
   51MOL    H9726197   3.957   5.242   1.268 -3.1762 -1.2585  0.8075
   51MOL    H9826198   3.418   5.322   1.535 -0.2501 -0.8033  0.3407
   51MOL    H9926199   3.348   5.257   1.311  0.0206 -1.4547  0.3725
   51MOL   H10026200   3.527   5.197   1.132  0.3049  0.9442  0.5968
   51MOL   H10126201   3.758   5.211   1.193 -0.1690  0.0679 -1.7002
   51MOL   H10226202   4.048   5.359   1.672 -0.7990 -1.8419 -0.8736
   51MOL   H10326203   3.971   5.439   1.891  0.5207  0.4211 -1.2774
   51MOL   H10426204   3.723   5.431   1.941  0.1490  1.5291 -0.1310
   51MOL   H10526205   3.561   5.373   1.782  0.1724 -0.1011 -0.6654
   51MOL   C10626206   4.070   5.398   1.363 -0.1218  0.6636 -0.0324
   51MOL   C10726207   4.104   5.441   1.223  0.2881 -0.6176 -0.3916
   51MOL   N10826208   3.987   5.443   1.136  0.1848  0.0081  0.5070
   51MOL   C10926209   3.974   5.363   1.018  0.1085  1.0815  0.0194
   51MOL   C11026210   3.837   5.381   0.969  0.9146  0.0478 -0.0382
   51MOL   C11126211   3.800   5.301   0.855 -0.2090  0.1500 -0.2757
   51MOL   C11226212   3.894   5.215   0.794  0.1157 -0.2634  0.0404
   51MOL   C11326213   4.025   5.210   0.845  0.6155 -0.4472 -0.6893
   51MOL   C11426214   4.065   5.283   0.957 -0.1771  0.6925 -0.2523
   51MOL   C11526215   3.773   5.479   1.050 -1.0597 -0.6439  0.2849
   51MOL   C11626216   3.868   5.514   1.152  1.4149 -0.3526 -0.1983
   51MOL   C11726217   3.830   5.602   1.255  0.2046  0.2455  0.1156
   51MOL   C11826218   3.699   5.659   1.254  0.3583 -0.9946  0.0829
   51MOL   C11926219   3.606   5.624   1.154 -0.4892  0.0627  0.6541
   51MOL   C12026220   3.645   5.535   1.053  0.5202  0.7779 -0.0385
   51MOL   H12126221   4.019   5.468   1.430  0.9582  1.0789  0.3550
   51MOL   H12226222   4.155   5.377   1.427  1.0401  1.5335 -1.2662
   51MOL   H12326223   4.155   5.351   1.188 -2.6902 -2.2827 -0.5433
   51MOL   H12426224   3.709   5.320   0.800 -0.2809 -0.5107 -0.3898
   51MOL   H12526225   3.876   5.161   0.701  0.0472  1.4548 -0.9647
   51MOL   H12626226   4.093   5.147   0.790  0.2631 -0.0367 -1.6027
   51MOL   H12726227   4.167   5.287   0.993 -1.2127 -0.1226  2.9848
   51MOL   H12826228   3.902   5.628   1.331  1.1617 -0.1693 -0.6415
   51MOL   H12926229   3.665   5.727   1.330 -0.4198 -3.0585  1.6265
   51MOL   H13026230   3.502   5.653   1.149 -0.4540 -0.1363 -2.1184
   51MOL   H13126231   3.577   5.494   0.979  0.3458 -1.0116  1.0835
   51MOL   C13226232   4.203   5.568   1.207 -0.0349 -0.6395 -0.1251
   51MOL   C13326233   4.339   5.528   1.269  0.2515  0.3395  0.2623
   51MOL   N13426234   4.405   5.411   1.204  0.1509 -0.7682 -0.1044
   51MOL   C13526235   4.430   5.287   1.262 -0.0586  0.0804 -0.1367
   51MOL   C13626236   4.495   5.205   1.169 -0.6020 -0.2898  0.5892
   51MOL   C13726237   4.528   5.074   1.201 -0.0560 -0.7201  0.9024
   51MOL   C13826238   4.508   5.028   1.335  0.0070 -0.5379 -0.9078
   51MOL   C13926239   4.443   5.110   1.430  0.0638  0.1095 -0.6414
   51MOL   C14026240   4.406   5.244   1.397 -0.2741 -0.5892 -0.9246
   51MOL   C14126241   4.502   5.281   1.043  0.9971 -0.3984 -1.1716
   51MOL   C14226242   4.448   5.408   1.069  0.3486 -0.1398 -0.1313
   51MOL   C14326243   4.452   5.515   0.973  0.4193  0.6846  0.4559
   51MOL   C14426244   4.483   5.478   0.840 -0.5774  0.2180 -0.0021
   51MOL   C14526245   4.523   5.345   0.807 -0.3545  0.5800  0.1767
   51MOL   C14626246   4.542   5.259   0.910  0.3153  0.1568 -0.2187
   51MOL   H14726247   4.215   5.574   1.098 -0.1393  0.3383 -0.0859
   51MOL   H14826248   4.159   5.657   1.251 -3.6248 -2.3684 -0.0862
   51MOL   H14926249   4.317   5.487   1.367  0.6436  0.4129  0.3827
   51MOL   H15026250   4.581   5.009   1.132  1.4013  0.7074  0.6646
   51MOL   H15126251   4.544   4.928   1.348  2.6637  0.3878 -0.9176
   51MOL   H15226252   4.423   5.071   1.529 -0.5606 -0.1726 -0.8751
   51MOL   H15326253   4.359   5.307   1.471  0.3891 -1.4038  0.2049
   51MOL   H15426254   4.414   5.612   1.000 -0.8824 -0.3464  2.5068
   51MOL   H15526255   4.491   5.550   0.760  1.9275  0.1206  0.1151
   51MOL   H15626256   4.563   5.326   0.709  0.7420 -0.4362  0.8088
   51MOL   H15726257   4.578   5.161   0.882 -0.7745 -0.2957 -0.0453
   51MOL   C15826258   4.458   5.634   1.293 -0.0112 -0.2870  0.2773
   51MOL   C15926259   4.558   5.594   1.402  0.0526  0.2493  0.2135
   51MOL   N16026260   4.679   5.677   1.397  0.5935 -0.4392 -0.4471
   51MOL   C16126261   4.812   5.637   1.354 -0.2890  0.9428 -0.0175
   51MOL   C16226262   4.903   5.746   1.363  0.8267  0.0464  0.0914
   51MOL   C16326263   5.038   5.725   1.321 -0.2119  0.5408 -0.4489
   51MOL   C16426264   5.086   5.604   1.270 -0.4406  0.0579 -0.1698
   51MOL   C16526265   4.993   5.501   1.254  0.9277 -0.7385 -0.2087
   51MOL   C16626266   4.856   5.514   1.288 -0.5320  0.6039 -0.4478
   51MOL   C16726267   4.830   5.854   1.418 -0.0936 -0.6000 -0.2544
   51MOL   C16826268   4.693   5.813   1.435 -0.1905 -0.1854  0.0061
   51MOL   C16926269   4.596   5.907   1.482 -0.4396  0.5399  0.6346
   51MOL   C17026270   4.634   6.040   1.501  0.1848 -0.7346 -0.5819
   51MOL   C17126271   4.771   6.080   1.489 -0.2407 -0.1125 -0.1393
   51MOL   C17226272   4.866   5.983   1.450 -0.1226 -0.7638 -0.4148
   51MOL   H17326273   4.512   5.642   1.199 -1.6576 -0.9108 -0.7603
   51MOL   H17426274   4.409   5.730   1.311 -0.5433 -0.6434  0.7449
   51MOL   H17526275   4.583   5.490   1.381 -0.1684  0.7578 -2.8106
   51MOL   H17626276   5.102   5.811   1.334 -0.1469  0.2862  1.1077
   51MOL   H17726277   5.192   5.587   1.259 -0.7866 -1.0776 -1.8847
   51MOL   H17826278   5.015   5.404   1.211  0.1845 -0.2886 -1.6487
   51MOL   H17926279   4.792   5.427   1.281  1.8945 -1.3012  0.5435
   51MOL   H18026280   4.496   5.871   1.498 -0.4437 -0.0765 -0.7275
   51MOL   H18126281   4.554   6.108   1.529 -1.1098 -2.4785  0.0296
   51MOL   H18226282   4.809   6.180   1.505  1.0023 -0.7545  0.9819
   51MOL   H18326283   4.969   6.002   1.424 -0.2801 -0.6363 -0.9534
   51MOL   C18426284   4.501   5.585   1.548 -0.1071  1.4957  0.0557
   51MOL   C18526285   4.598   5.546   1.663  0.1752 -0.4220 -0.3667
   51MOL   N18626286   4.537   5.543   1.794  0.0111  0.4882  0.2267
   51MOL   C18726287   4.578   5.620   1.908 -0.9546 -0.3806  0.0130
   51MOL   C18826288   4.490   5.603   2.019  0.5610  0.6126  0.8297
   51MOL   C18926289   4.511   5.672   2.141 -0.0855  0.0463 -0.0624
   51MOL   C19026290   4.611   5.771   2.148  0.8535 -0.4723 -0.0795
   51MOL   C19126291   4.701   5.792   2.036  0.0922 -0.2697  0.0694
   51MOL   C19226292   4.685   5.714   1.918  0.3228 -0.1963  0.3758
   51MOL   C19326293   4.401   5.496   1.985 -0.2735  0.0162  0.1790
   51MOL   C19426294   4.436   5.459   1.850  0.0353  0.0966 -0.1476
   51MOL   C19526295   4.357   5.354   1.786  0.0997 -0.0294  0.1254
   51MOL   C19626296   4.265   5.277   1.857 -0.4796 -0.2278  0.0325
   51MOL   C19726297   4.248   5.301   1.993 -0.1995  0.5798 -0.0728
   51MOL   C19826298   4.317   5.407   2.053  0.4684 -0.4485 -0.3396
   51MOL   H19926299   4.456   5.678   1.583 -1.4684  0.3877  1.2967
   51MOL   H20026300   4.415   5.520   1.563  1.0494  0.4685  2.5705
   51MOL   H20126301   4.656   5.638   1.664 -1.5586  0.7047  0.2274
   51MOL   H20226302   4.434   5.671   2.216  0.3228  0.0581  0.3543
   51MOL   H20326303   4.621   5.845   2.226 -0.9795 -1.8790  1.5266
   51MOL   H20426304   4.773   5.872   2.046  1.1302 -1.0193 -1.2564
   51MOL   H20526305   4.746   5.741   1.833 -0.5412  0.1567 -0.1338
   51MOL   H20626306   4.379   5.329   1.683  0.6991 -1.1010  0.5103
   51MOL   H20726307   4.212   5.191   1.818  1.0719 -0.7568 -0.9945
   51MOL   H20826308   4.178   5.246   2.055 -0.5730  2.7662  1.4789
   51MOL   H20926309   4.296   5.422   2.158 -1.7359  0.5681 -0.8885
   51MOL   C21026310   4.686   5.422   1.628  1.1051 -0.2002  0.2415
   51MOL   C21126311   4.743   5.345   1.745  0.0694 -0.4360  0.1330
   51MOL   N21226312   4.787   5.218   1.692 -0.5520 -0.1193 -0.3579
   51MOL   C21326313   4.721   5.093   1.712 -0.0967  0.4945  0.4039
   51MOL   C21426314   4.792   4.994   1.639  0.3881  0.3978 -1.0204
   51MOL   C21526315   4.732   4.861   1.636 -0.1730  0.3247  0.3944
   51MOL   C21626316   4.612   4.831   1.693 -0.1314 -0.0298  0.1532
   51MOL   C21726317   4.555   4.929   1.779 -0.6231 -0.0075 -0.0192
   51MOL   C21826318   4.603   5.060   1.777  0.1484  0.5589 -0.8518
   51MOL   C21926319   4.901   5.052   1.572 -0.4780 -0.1926  0.4166
   51MOL   C22026320   4.902   5.191   1.614 -0.3923  0.2869  0.0186
   51MOL   C22126321   5.005   5.275   1.570 -0.4909 -0.0317  0.1655
   51MOL   C22226322   5.112   5.224   1.494  0.0570  1.0808 -0.2202
   51MOL   C22326323   5.111   5.087   1.455 -0.2794  0.2233  0.0804
   51MOL   C22426324   5.007   5.003   1.486 -0.0187  0.2506 -0.0165
   51MOL   H22526325   4.619   5.351   1.580  0.1023  0.8303  0.1005
   51MOL   H22626326   4.770   5.437   1.560  0.7766 -0.2395 -0.1703
   51MOL   H22726327   4.655   5.314   1.801 -1.8739  2.6113 -1.0998
   51MOL   H22826328   4.781   4.781   1.581 -3.3488  0.0352 -2.2112
   51MOL   H22926329   4.574   4.731   1.687  0.5933 -0.4682  2.1506
   51MOL   H23026330   4.469   4.903   1.839  0.2004 -0.9217  0.7791
   51MOL   H23126331   4.546   5.135   1.830  0.2723 -0.8844  1.3902
   51MOL   H23226332   5.015   5.375   1.608  0.0481 -0.3645  0.8985
   51MOL   H23326333   5.200   5.284   1.473  0.6125 -0.4659 -2.4465
   51MOL   H23426334   5.196   5.053   1.397  1.5232  0.9267  2.2255
   51MOL   H23526335   5.026   4.903   1.450 -0.5155  0.9585 -2.2975
   51MOL   C23626336   4.842   5.416   1.843 -0.3798 -0.2567  0.2824
   51MOL   C23726337   4.817   5.378   1.996  0.7162  0.6006  0.0943
   51MOL   N23826338   4.807   5.239   2.030 -0.1227 -0.7956  0.5542
   51MOL   C23926339   4.700   5.183   2.100  0.3455 -0.3267  0.0388
   51MOL   C24026340   4.721   5.047   2.113 -0.0454  0.2735 -0.3582
   51MOL   C24126341   4.622   4.970   2.179 -0.0900 -0.0142 -0.4948
   51MOL   C24226342   4.511   5.028   2.246 -0.1382 -1.0113  0.5025
   51MOL   C24326343   4.491   5.164   2.233  0.2023 -0.0654  0.7397
   51MOL   C24426344   4.584   5.239   2.161 -0.1740 -0.3262  0.5439
   51MOL   C24526345   4.848   5.016   2.058  0.1396 -0.0919 -0.2448
   51MOL   C24626346   4.895   5.135   2.006  1.0859 -1.2596 -0.4743
   51MOL   C24726347   5.020   5.140   1.938 -0.3014 -0.4907  0.0484
   51MOL   C24826348   5.098   5.021   1.928 -0.1878 -0.1951  0.1367
   51MOL   C24926349   5.054   4.906   1.985  0.4069 -0.8565  0.1137
   51MOL   C25026350   4.932   4.902   2.049 -1.7906  0.3275  0.1470
   51MOL   H25126351   4.945   5.393   1.816 -0.5701 -0.0145 -0.6913
   51MOL   H25226352   4.842   5.525   1.832  1.5249 -0.4934 -2.5420
   51MOL   H25326353   4.717   5.412   2.023 -0.2404 -1.1700 -1.1115
   51MOL   H25426354   4.651   4.867   2.191 -0.0901 -0.2300 -2.1988
   51MOL   H25526355   4.429   4.969   2.283  0.1087 -1.3291  0.5425
   51MOL   H25626356   4.401   5.213   2.267  0.0833  0.7434 -0.6796
   51MOL   H25726357   4.563   5.345   2.164 -1.2945 -0.5027 -0.5067
   51MOL   H25826358   5.059   5.235   1.903 -1.6290  0.1769  0.3581
   51MOL   H25926359   5.190   5.022   1.872 -0.7042  0.1546 -0.7126
   51MOL   H26026360   5.105   4.811   1.977  2.0745  0.1950 -2.0794
   51MOL   H26126361   4.889   4.810   2.084  1.1251 -1.0990  0.0739
   51MOL   C26226362   4.930   5.442   2.083  0.6309 -0.2310 -0.1737
   51MOL   C26326363   4.928   5.415   2.232  0.1450 -0.2997 -0.2910
   51MOL   N26426364   5.058   5.421   2.290 -0.0374  0.1624 -0.0330
   51MOL   C26526365   5.138   5.309   2.329  0.3569 -0.0452 -0.7498
   51MOL   C26626366   5.257   5.361   2.388  0.1822  0.1924  0.1086
   51MOL   C26726367   5.352   5.266   2.438 -0.2632 -0.1319  0.6459
   51MOL   C26826368   5.328   5.125   2.431  0.2301 -0.3515  0.3658
   51MOL   C26926369   5.207   5.079   2.375 -0.3312 -0.8679  0.3693
   51MOL   C27026370   5.116   5.174   2.325 -0.0050  0.4981 -0.0157
   51MOL   C27126371   5.260   5.500   2.373 -0.2494  0.0113 -0.4725
   51MOL   C27226372   5.139   5.540   2.320  0.6390 -0.0805  0.4185
   51MOL   C27326373   5.110   5.675   2.299 -0.2733 -0.9690 -0.2558
   51MOL   C27426374   5.202   5.775   2.333 -0.1575 -0.3495  0.4098
   51MOL   C27526375   5.321   5.737   2.399 -0.1499  0.0367 -0.0436
   51MOL   C27626376   5.347   5.599   2.424  0.6435  0.1527  0.3169
   51MOL   H27726377   5.023   5.400   2.045  1.3915  2.1909 -1.1170
   51MOL   H27826378   4.936   5.550   2.072 -0.8090 -0.0289  0.8453
   51MOL   H27926379   4.893   5.314   2.256  1.6763 -0.1810  2.6293
   51MOL   H28026380   5.441   5.305   2.485 -0.1039  3.3837 -2.3918
   51MOL   H28126381   5.398   5.048   2.462  0.9659  0.3009  0.3306
   51MOL   H28226382   5.189   4.973   2.365  1.7755 -1.3657  1.5754
   51MOL   H28326383   5.023   5.151   2.275  1.1303 -2.8173 -0.7356
   51MOL   H28426384   5.023   5.709   2.245 -0.5343 -0.2351  0.6112
   51MOL   H28526385   5.176   5.878   2.313 -0.2425 -0.7053 -1.3498
   51MOL   H28626386   5.387   5.812   2.440  0.5654 -0.9634  0.6598
   51MOL   H28726387   5.437   5.563   2.471 -0.8229 -2.4175  1.2641
   51MOL   C28826388   4.824   5.501   2.307 -0.0849  0.7121 -0.0084
   51MOL   C28926389   4.800   5.464   2.458 -0.3287  0.0463 -0.6444
   51MOL   N29026390   4.792   5.588   2.536  0.4944  0.3644  0.3586
   51MOL   C29126391   4.890   5.643   2.618 -0.3330  0.1919  0.2774
   51MOL   C29226392   4.843   5.764   2.674  0.3438  0.2018 -0.3120
   51MOL   C29326393   4.934   5.837   2.761  0.4712  0.0333  0.2710
   51MOL   C29426394   5.071   5.804   2.768  0.4568 -0.1839  0.0622
   51MOL   C29526395   5.113   5.684   2.714  0.2930 -0.3515  0.4385
   51MOL   C29626396   5.026   5.601   2.644  0.2140 -0.0664  0.1120
   51MOL   C29726397   4.710   5.780   2.632  0.1511  0.0263  0.2487
   51MOL   C29826398   4.687   5.678   2.536 -0.1806  0.1371 -0.3051
   51MOL   C29926399   4.570   5.673   2.461 -0.3672 -0.6668 -0.5531
   51MOL   C30026400   4.466   5.768   2.485  0.3314 -0.3148 -0.2090
   51MOL   C30126401   4.487   5.865   2.582  0.1932 -0.4984  0.1030
   51MOL   C30226402   4.611   5.878   2.649 -0.7047  0.1400 -0.8972
   51MOL   H30326403   4.836   5.608   2.292 -3.8555  0.8920 -2.2826
   51MOL   H30426404   4.727   5.500   2.259  0.1602 -0.0467 -0.5055
   51MOL   H30526405   4.882   5.409   2.504 -0.3997  0.3951 -0.1014
   51MOL   H30626406   4.894   5.922   2.815 -0.8296  0.1685 -0.8758
   51MOL   H30726407   5.151   5.852   2.822  0.8319 -0.8122  0.0602
   51MOL   H30826408   5.217   5.660   2.729 -0.1523 -1.8876  1.1610
   51MOL   H30926409   5.068   5.509   2.604  0.8163 -0.2855  1.2306
   51MOL   H31026410   4.567   5.601   2.380 -0.6622 -1.8816  0.5297
   51MOL   H31126411   4.373   5.767   2.431 -0.5249 -1.2969  1.2558
   51MOL   H31226412   4.405   5.934   2.593  1.6461  1.1320  0.8824
   51MOL   H31326413   4.637   5.959   2.715  0.1358  0.0576 -1.1172
   51MOL   C31426414   4.685   5.364   2.482  0.7192 -0.0452  0.5777
   51MOL   C31526415   4.627   5.358   2.617  0.2295 -0.0673 -0.0723
   51MOL   N31626416   4.507   5.276   2.610  0.3273  0.3118 -0.2473
   51MOL   C31726417   4.374   5.326   2.631  0.2497 -0.3863 -0.3972
   51MOL   C31826418   4.285   5.225   2.611 -0.3911 -0.5288  0.1123
   51MOL   C31926419   4.148   5.250   2.620 -1.3860  0.4638 -0.5490
   51MOL   C32026420   4.102   5.382   2.649 -1.1179 -1.2852 -0.4953
   51MOL   C32126421   4.190   5.491   2.671 -0.1588 -0.0824  0.1506
   51MOL   C32226422   4.326   5.458   2.666 -0.5213 -0.2960 -0.5246
   51MOL   C32326423   4.359   5.105   2.596  0.3041  0.1183  0.8139
   51MOL   C32426424   4.495   5.141   2.585  0.2139  0.1149  0.0587
   51MOL   C32526425   4.593   5.043   2.569  0.4831 -0.6539 -0.1664
   51MOL   C32626426   4.567   4.909   2.558  0.5399  0.2683  0.1380
   51MOL   C32726427   4.432   4.867   2.570 -0.4833 -0.0413  0.2146
   51MOL   C32826428   4.330   4.966   2.589 -0.1738 -0.2986 -0.7625
   51MOL   H32926429   4.601   5.403   2.424  0.2740  2.3026  2.7225
   51MOL   H33026430   4.712   5.271   2.432 -0.2125  0.8608 -1.6611
   51MOL   H33126431   4.597   5.460   2.639 -2.2148 -0.5672 -0.9522
   51MOL   H33226432   4.072   5.175   2.604 -2.1903  1.0629  0.3787
   51MOL   H33326433   3.994   5.393   2.645 -1.0493 -0.1753  0.4936
   51MOL   H33426434   4.158   5.593   2.686  0.5148  0.3306 -1.1039
   51MOL   H33526435   4.393   5.542   2.676 -3.0471  1.5893  1.2290
   51MOL   H33626436   4.699   5.064   2.560  0.1342  0.7941 -1.0285
   51MOL   H33726437   4.651   4.845   2.540  0.4214 -0.2820  1.4759
   51MOL   H33826438   4.401   4.765   2.558 -1.0613 -0.3492  3.9068
   51MOL   H33926439   4.227   4.937   2.605 -0.6322  1.5262 -0.2715
   51MOL   C34026440   4.726   5.320   2.723 -0.2965  0.0789 -0.0017
   51MOL   C34126441   4.676   5.348   2.866  0.2902  0.0611 -0.3382
   51MOL   N34226442   4.755   5.282   2.968 -0.0825  0.0026 -0.4132
   51MOL   C34326443   4.710   5.180   3.053  0.4697  0.9701  0.1494
   51MOL   C34426444   4.810   5.157   3.150  0.3419  0.1772  0.2492
   51MOL   C34526445   4.787   5.058   3.254 -0.2401 -0.5203 -0.2207
   51MOL   C34626446   4.675   4.979   3.251 -0.1635 -0.2489 -0.0601
   51MOL   C34726447   4.577   5.010   3.151 -0.1330  0.2894  0.0281
   51MOL   C34826448   4.590   5.105   3.053  0.2680  0.0629  1.1160
   51MOL   C34926449   4.914   5.247   3.130 -0.5184 -0.1634  0.2218
   51MOL   C35026450   4.883   5.323   3.013 -0.3095 -0.1566  0.3414
   51MOL   C35126451   4.963   5.423   2.964  0.4721 -0.3402  0.1260
   51MOL   C35226452   5.089   5.442   3.025  0.0902 -0.1713 -0.2236
   51MOL   C35326453   5.131   5.362   3.135  0.6921 -0.0234 -0.5503
   51MOL   C35426454   5.036   5.273   3.192  0.1261  0.5658 -0.3487
   51MOL   H35526455   4.736   5.211   2.715 -0.7250  0.0801 -0.5704
   51MOL   H35626456   4.823   5.366   2.707 -0.5706  1.0181  1.0160
   51MOL   H35726457   4.580   5.296   2.873  0.6662 -0.3688  2.3547
   51MOL   H35826458   4.862   5.051   3.332  1.0569  0.4020 -1.3413
   51MOL   H35926459   4.665   4.896   3.319 -2.1835  0.0358  0.0225
   51MOL   H36026460   4.497   4.937   3.151  0.4047 -0.3392 -2.3153
   51MOL   H36126461   4.509   5.126   2.985  1.2649 -0.7430 -0.3426
   51MOL   H36226462   4.937   5.483   2.878 -1.0330  0.2574  0.9831
   51MOL   H36326463   5.154   5.519   2.984  0.8793  0.6025  2.4183
   51MOL   H36426464   5.233   5.366   3.171  0.1613 -1.6177  1.2403
   51MOL   H36526465   5.063   5.204   3.270  1.1248 -0.0738 -1.2532
   51MOL   C36626466   4.648   5.501   2.896 -0.0707  0.3284 -0.5312
   51MOL   C36726467   4.650   5.555   3.042 -0.1905 -0.1175 -0.1548
   51MOL   N36826468   4.670   5.698   3.052 -0.0901  0.0695  0.3041
   51MOL   C36926469   4.783   5.754   3.110 -0.6855 -0.3753 -0.5834
   51MOL   C37026470   4.777   5.898   3.088  0.3604 -0.3433 -0.3171
   51MOL   C37126471   4.889   5.972   3.106  0.1836  0.3517  0.7270
   51MOL   C37226472   5.010   5.918   3.150 -0.0064  0.5370  0.2712
   51MOL   C37326473   5.010   5.785   3.188  0.3805  0.2249 -0.4642
   51MOL   C37426474   4.903   5.697   3.157 -0.1515 -0.0135 -0.1329
   51MOL   C37526475   4.645   5.922   3.034  0.2176 -0.0530 -0.1796
   51MOL   C37626476   4.587   5.800   3.000 -0.3574 -0.3073  0.3772
   51MOL   C37726477   4.466   5.793   2.937  0.2774 -0.5712 -0.3805
   51MOL   C37826478   4.398   5.913   2.898 -0.5367  0.3166  0.6552
   51MOL   C37926479   4.455   6.038   2.924  0.7267  0.5565  0.2092
   51MOL   C38026480   4.579   6.044   2.990 -0.7134  0.0972  0.2621
   51MOL   H38126481   4.718   5.565   2.843  1.0058  0.5587  1.1124
   51MOL   H38226482   4.548   5.513   2.855 -0.1144  2.3828  0.1025
   51MOL   H38326483   4.727   5.504   3.101 -2.5074 -2.7948  0.6906
   51MOL   H38426484   4.891   6.078   3.082  0.3871 -0.1026 -1.2974
   51MOL   H38526485   5.101   5.970   3.171 -0.1631  0.8149  0.2591
   51MOL   H38626486   5.100   5.749   3.234  0.3619 -0.6582 -1.1080
   51MOL   H38726487   4.914   5.593   3.184 -1.2123 -0.1060 -0.0317
   51MOL   H38826488   4.409   5.704   2.918 -2.2381  0.7672  0.6858
   51MOL   H38926489   4.302   5.907   2.849 -0.2970 -2.3911  0.4388
   51MOL   H39026490   4.390   6.119   2.895  0.6846  0.5612  0.3167
   51MOL   H39126491   4.629   6.139   3.002 -0.0656  0.1304 -2.3867
   51MOL   C39226492   4.522   5.498   3.120 -0.2172 -0.2434  0.1470
   51MOL   C39326493   4.542   5.504   3.276 -0.3477  0.4108  0.0178
   51MOL   N39426494   4.515   5.629   3.339 -0.0526  0.7081  0.2702
   51MOL   C39526495   4.603   5.702   3.421  0.1753  0.4552 -0.1312
   51MOL   C39626496   4.540   5.823   3.464 -0.1306  0.0134 -0.2658
   51MOL   C39726497   4.614   5.900   3.553  0.2454 -0.1899  0.4716
   51MOL   C39826498   4.747   5.869   3.586  0.3149 -0.3314 -0.7284
   51MOL   C39926499   4.816   5.766   3.526  0.0776  0.2681 -0.5642
   51MOL   C40026500   4.744   5.674   3.455 -0.0054 -0.0197 -0.2916
   51MOL   C40126501   4.403   5.823   3.413 -0.0442  0.9647 -0.1086
   51MOL   C40226502   4.394   5.702   3.340 -0.5333  0.1588 -0.1356
   51MOL   C40326503   4.269   5.658   3.292 -0.3692  0.1478 -0.3538
   51MOL   C40426504   4.154   5.742   3.307  0.5010 -0.1948  0.0795
   51MOL   C40526505   4.171   5.869   3.368  0.1093  0.0439  0.9136
   51MOL   C40626506   4.293   5.910   3.410  0.4977 -0.3391 -0.6463
   51MOL   H40726507   4.427   5.534   3.080 -1.1394  0.2910  2.7478
   51MOL   H40826508   4.523   5.390   3.105  0.9464 -0.4131  1.3773
   51MOL   H40926509   4.649   5.497   3.294  0.1181  1.5484 -2.1329
   51MOL   H41026510   4.582   5.999   3.580  1.3247  0.3490 -0.2162
   51MOL   H41126511   4.802   5.937   3.648 -2.5639  1.2293  0.2086
   51MOL   H41226512   4.922   5.756   3.545 -0.0562 -1.4594 -0.6226
   51MOL   H41326513   4.794   5.592   3.407  1.2163 -0.7070  2.0932
   51MOL   H41426514   4.252   5.561   3.247 -1.5294  0.2292 -0.1193
   51MOL   H41526515   4.060   5.707   3.267  0.0050 -0.4468  1.4394
   51MOL   H41626516   4.076   5.921   3.374 -1.3866 -2.4551 -0.2615
   51MOL   H41726517   4.300   6.010   3.449  0.8873 -0.3064 -0.7928
   51MOL   C41826518   4.474   5.377   3.348  0.1212  0.3069  0.8235
   51MOL   C41926519   4.450   5.391   3.499  0.2251 -0.2317  0.1289
   51MOL   N42026520   4.341   5.302   3.548  0.3413  0.6500  0.1866
   51MOL   C42126521   4.222   5.347   3.603 -0.1047  0.3871 -0.4004
   51MOL   C42226522   4.151   5.235   3.671 -0.5228  0.6204 -0.3715
   51MOL   C42326523   4.030   5.265   3.739 -0.6288  0.3780 -0.0921
   51MOL   C42426524   3.983   5.396   3.745  0.1022  0.0290  0.6447
   51MOL   C42526525   4.053   5.505   3.688  0.4365 -0.0963 -0.2986
   51MOL   C42626526   4.165   5.477   3.611  0.0638  0.0419 -0.0039
   51MOL   C42726527   4.232   5.112   3.642  0.6558  0.8598  0.2337
   51MOL   C42826528   4.344   5.162   3.562 -0.1792  0.5799  0.1824
   51MOL   C42926529   4.443   5.071   3.516 -0.3779 -0.0676  0.0511
   51MOL   C43026530   4.435   4.934   3.551  0.3160  0.3837 -0.1035
   51MOL   C43126531   4.327   4.887   3.622  0.2284 -0.0483 -0.0108
   51MOL   C43226532   4.225   4.972   3.672 -0.6844 -0.0071  0.6647
   51MOL   H43326533   4.381   5.350   3.298 -0.3551 -1.0260  2.3883
   51MOL   H43426534   4.538   5.289   3.337 -0.3602  0.1757 -1.1539
   51MOL   H43526535   4.414   5.491   3.523 -0.6637 -0.8797  1.6243
   51MOL   H43626536   3.972   5.182   3.778 -1.8552 -0.2016 -2.9719
   51MOL   H43726537   3.897   5.418   3.808 -1.1857 -2.5722 -0.1295
   51MOL   H43826538   4.017   5.605   3.709  1.0162  0.0401  0.0577
   51MOL   H43926539   4.213   5.557   3.556  0.6844  0.3166  0.9328
   51MOL   H44026540   4.529   5.104   3.459  0.6175 -1.3551  0.7831
   51MOL   H44126541   4.498   4.860   3.502 -2.0027 -0.8289 -1.3282
   51MOL   H44226542   4.312   4.783   3.645 -0.4659 -0.2570 -1.3853
   51MOL   H44326543   4.139   4.931   3.724 -0.9476 -1.2995 -0.7589
   51MOL   C44426544   4.579   5.371   3.588 -0.1356  0.6925  0.1256
   51MOL   C44526545   4.548   5.376   3.736  0.9929  0.0768 -0.4963
   51MOL   N44626546   4.659   5.328   3.819  0.0691  0.3963  0.0378
   51MOL   C44726547   4.664   5.201   3.884  0.3675 -0.2911 -0.3675
   51MOL   C44826548   4.772   5.194   3.971 -0.2804 -0.2189  0.2265
   51MOL   C44926549   4.794   5.078   4.048  0.0036 -0.1720 -0.1402
   51MOL   C45026550   4.707   4.964   4.038 -0.2878  0.5023 -0.6601
   51MOL   C45126551   4.607   4.971   3.943 -0.0134 -0.1855  0.1234
   51MOL   C45226552   4.577   5.093   3.869 -0.3887 -0.2437 -0.3663
   51MOL   C45326553   4.846   5.320   3.952 -0.3342  0.1706 -0.6765
   51MOL   C45426554   4.777   5.393   3.856  0.2636  0.3888  0.2041
   51MOL   C45526555   4.830   5.511   3.807  0.3968  0.3309  0.1487
   51MOL   C45626556   4.943   5.570   3.870  0.1249  0.0623 -0.7058
   51MOL   C45726557   5.000   5.506   3.979 -0.1892  0.2191 -0.0421
   51MOL   C45826558   4.962   5.378   4.016 -0.7344  0.0415  0.1093
   51MOL   H45926559   4.612   5.271   3.562  0.0834  1.6854 -3.7868
   51MOL   H46026560   4.661   5.436   3.557 -0.3767 -0.0021 -2.0596
   51MOL   H46126561   4.463   5.311   3.758  0.0376  1.5196  0.1827
   51MOL   H46226562   4.881   5.074   4.112 -0.9743 -0.4562  1.1789
   51MOL   H46326563   4.719   4.867   4.083  1.4369  0.0376 -2.0491
   51MOL   H46426564   4.554   4.878   3.928  0.0643 -0.0913 -0.7758
   51MOL   H46526565   4.496   5.093   3.797 -0.3223  0.5354 -0.4503
   51MOL   H46626566   4.788   5.567   3.725 -0.5363  0.6268  0.8288
   51MOL   H46726567   4.983   5.662   3.832  2.1440 -0.8747 -0.9053
   51MOL   H46826568   5.082   5.554   4.032  0.2972  1.8707 -2.2196
   51MOL   H46926569   5.001   5.332   4.106  0.0542  0.1376 -0.1829
   51MOL   C47026570   4.497   5.524   3.781 -0.1275  0.1629 -0.3486
   51MOL   C47126571   4.464   5.525   3.930  0.5700 -0.4611 -0.5485
   51MOL   N47226572   4.452   5.655   3.990 -0.4070  0.5050 -0.5439
   51MOL   C47326573   4.509   5.683   4.112 -0.0671  0.6068  0.6049
   51MOL   C47426574   4.458   5.809   4.158 -0.1967 -0.8783  0.7515
   51MOL   C47526575   4.489   5.857   4.288 -0.0151  0.6560 -0.0652
   51MOL   C47626576   4.574   5.778   4.376  0.9203  0.5566  0.6675
   51MOL   C47726577   4.624   5.654   4.331  0.7520 -1.0727 -0.9384
   51MOL   C47826578   4.593   5.610   4.202 -0.3272  0.0716 -0.2705
   51MOL   C47926579   4.372   5.864   4.055 -0.6458  0.0967  0.4705
   51MOL   C48026580   4.379   5.767   3.948 -0.2367 -0.9713  0.2109
   51MOL   C48126581   4.298   5.792   3.830  0.4467  0.7647  0.0496
   51MOL   C48226582   4.221   5.910   3.822 -0.1878  0.4185 -0.3292
   51MOL   C48326583   4.223   6.010   3.921 -0.6237  0.0467 -0.2557
   51MOL   C48426584   4.299   5.988   4.036 -0.3896 -0.0564 -0.0644
   51MOL   H48526585   4.567   5.605   3.758 -0.5419  0.2921 -1.1647
   51MOL   H48626586   4.409   5.553   3.723 -0.2823 -0.0380 -0.2135
   51MOL   H48726587   4.543   5.471   3.982  0.6263  0.4193  0.2921
   51MOL   H48826588   4.453   5.949   4.331  0.6930  0.3695  1.1494
   51MOL   H48926589   4.588   5.817   4.476 -2.1509 -0.6324  1.6079
   51MOL   H49026590   4.675   5.589   4.400 -0.1867  1.0379  1.8504
   51MOL   H49126591   4.631   5.514   4.171 -0.4018  0.9615 -3.3275
   51MOL   H49226592   4.306   5.724   3.746 -0.7078 -0.3525  0.8111
   51MOL   H49326593   4.157   5.924   3.736 -1.4554  1.0923  0.7062
   51MOL   H49426594   4.158   6.095   3.904  0.0184  0.1864 -2.0370
   51MOL   H49526595   4.306   6.068   4.107  1.4002  1.6310 -2.0438
   51MOL   C49626596   4.330   5.458   3.967  0.0947  0.2609  0.0034
   51MOL   C49726597   4.276   5.455   4.106  0.1896 -0.1756  0.8012
   51MOL   N49826598   4.164   5.354   4.111  0.0277  0.2717  0.3309
   51MOL   C49926599   4.023   5.379   4.094  0.5080 -0.6640  1.5024
   51MOL   C50026600   3.956   5.256   4.116 -0.0068  0.1875 -0.8472
   51MOL   C50126601   3.815   5.252   4.108 -0.1149  0.5348 -0.1718
   51MOL   C50226602   3.741   5.368   4.079 -0.4259 -0.3573  0.4677
   51MOL   C50326603   3.810   5.489   4.060  0.2200 -0.0131  0.1404
   51MOL   C50426604   3.952   5.497   4.069 -0.1186 -0.2590 -0.0128
   51MOL   C50526605   4.058   5.157   4.140 -0.4931  0.7256  0.1628
   51MOL   C50626606   4.183   5.221   4.137 -0.3673  0.9687 -0.0292
   51MOL   C50726607   4.298   5.140   4.165  0.0155 -0.8239  0.5411
   51MOL   C50826608   4.295   5.005   4.191  0.9097 -0.0205  0.2117
   51MOL   C50926609   4.172   4.941   4.191 -0.5575  0.1566  0.7825
   51MOL   C51026610   4.055   5.013   4.165  0.5451  0.2324 -0.5456
   51MOL   H51126611   4.249   5.501   3.908  0.0981 -0.6282 -0.6773
   51MOL   H51226612   4.322   5.356   3.927  0.6626  0.1155  0.2591
   51MOL   H51326613   4.245   5.558   4.123  1.0634 -0.1650  2.4239
   51MOL   H51426614   3.755   5.165   4.132 -0.6093  1.2687  1.3155
   51MOL   H51526615   3.634   5.375   4.088 -0.5621  0.1520 -1.4105
   51MOL   H51626616   3.752   5.580   4.054  0.4923  0.2470  1.3576
   51MOL   H51726617   4.003   5.591   4.050  1.0029 -1.0815 -1.1374
   51MOL   H51826618   4.394   5.190   4.156 -1.4148  2.1486  1.0394
   51MOL   H51926619   4.389   4.952   4.191  1.2220  0.4669 -1.6155
   51MOL   H52026620   4.170   4.836   4.215 -1.5982 -0.5557 -2.1092
   51MOL   H52126621   3.962   4.959   4.159  1.7774 -1.9547 -0.5145
   51MOL   H52226622   4.347   5.425   4.183  0.6338 -1.0229  0.0628
   52MOL     C126623   1.012   2.720   0.512  0.0037  0.2109  0.3895
   52MOL     C226624   0.884   2.781   0.570  0.5650  0.1214 -0.1365
   52MOL     N326625   0.895   2.930   0.560 -0.0399  0.3407 -0.0786
   52MOL     C426626   0.925   3.007   0.671  0.7968 -0.2566 -0.0112
   52MOL     C526627   0.943   3.141   0.635  0.1852 -0.0680  0.7112
   52MOL     C626628   0.981   3.228   0.741 -0.1673  0.8608  0.3486
   52MOL     C726629   0.999   3.191   0.875  0.2630 -0.1135 -0.1611
   52MOL     C826630   0.974   3.053   0.902 -0.6555 -0.2126 -0.0329
   52MOL     C926631   0.938   2.965   0.802 -0.9128 -0.0538  0.8292
   52MOL    C1026632   0.925   3.150   0.495 -0.1813  0.4094 -0.2706
   52MOL    C1126633   0.899   3.014   0.447  0.1511 -0.8640 -0.2004
   52MOL    C1226634   0.886   2.982   0.310 -0.1384  0.2712  0.2265
   52MOL    C1326635   0.881   3.090   0.217 -0.3486  0.1878 -0.0549
   52MOL    C1426636   0.911   3.224   0.259 -0.3265 -0.0772  0.0249
   52MOL    C1526637   0.933   3.253   0.397 -0.1862  0.1483  0.0434
   52MOL    H1626638   1.095   2.768   0.565  0.9740 -0.7323 -0.2449
   52MOL    H1726639   1.022   2.752   0.408 -0.8317 -1.8248 -0.3458
   52MOL    H1826640   0.866   2.742   0.670  2.3204 -1.4676 -0.4036
   52MOL    H1926641   1.003   3.330   0.715  2.2695 -0.1535 -1.8879
   52MOL    H2026642   1.031   3.260   0.951  3.0070 -0.4587 -0.9499
   52MOL    H2126643   0.977   3.015   1.003 -1.7936  1.7388  0.7808
   52MOL    H2226644   0.912   2.865   0.835  0.7356 -1.2924 -1.4657
   52MOL    H2326645   0.875   2.881   0.275  0.0345  0.3374 -0.0178
   52MOL    H2426646   0.866   3.076   0.111 -0.0882  0.5745 -0.1455
   52MOL    H2526647   0.915   3.309   0.192 -1.2966  0.4999  0.6929
   52MOL    H2626648   0.974   3.346   0.431 -1.0855  0.4357  0.3355
   52MOL    H2726649   1.018   2.613   0.529  1.0989  0.3792  1.1252
   52MOL    C2826650   0.762   2.712   0.495  0.8824 -0.5697  0.6054
   52MOL    C2926651   0.625   2.773   0.546  0.1772 -0.9354 -0.1705
   52MOL    N3026652   0.578   2.874   0.454 -0.1573  0.4379  0.5690
   52MOL    C3126653   0.561   3.014   0.481 -0.4828 -0.0356 -0.0446
   52MOL    C3226654   0.507   3.081   0.369 -0.2786  0.6553 -0.0267
   52MOL    C3326655   0.475   3.217   0.373 -0.1910  0.5950 -0.2312
   52MOL    C3426656   0.505   3.291   0.487  0.3637 -0.1002  1.3757
   52MOL    C3526657   0.552   3.227   0.600 -0.8774 -0.0384 -0.2110
   52MOL    C3626658   0.581   3.088   0.597 -0.1922 -0.3417  0.5816
   52MOL    C3726659   0.483   2.977   0.275  0.1061 -0.4787 -0.3946
   52MOL    C3826660   0.527   2.852   0.323 -1.0355 -0.4773  0.2235
   52MOL    C3926661   0.510   2.732   0.249 -0.4420  0.4023 -0.1644
   52MOL    C4026662   0.439   2.729   0.128 -0.0395  0.0828  0.4296
   52MOL    C4126663   0.397   2.857   0.078 -0.1410 -0.2254  0.2121
   52MOL    C4226664   0.415   2.977   0.148  0.0671 -0.0004 -0.1849
   52MOL    H4326665   0.768   2.692   0.388 -0.2459 -0.0203  0.4286
   52MOL    H4426666   0.769   2.609   0.529 -1.0097 -1.1731 -0.7532
   52MOL    H4526667   0.647   2.836   0.632 -1.0711  0.2384 -0.7009
   52MOL    H4626668   0.434   3.263   0.285 -2.1211  2.7464  1.7168
   52MOL    H4726669   0.482   3.396   0.501 -0.7969 -0.1084 -0.4158
   52MOL    H4826670   0.570   3.285   0.689  1.5649  1.5106 -1.6680
   52MOL    H4926671   0.624   3.056   0.690  1.4999  1.2321  0.3823
   52MOL    H5026672   0.562   2.645   0.287 -1.9564 -1.0435 -1.3030
   52MOL    H5126673   0.430   2.635   0.076  1.1579 -0.0752  0.5005
   52MOL    H5226674   0.344   2.861   8.211 -1.5997  0.9156  1.0637
   52MOL    H5326675   0.390   3.074   0.107  0.0074  0.2175  0.3697
   52MOL    C5426676   0.516   2.675   0.593 -0.4617  0.1098  0.8980
   52MOL    C5526677   0.558   2.580   0.705 -0.1997  0.4553  0.8270
   52MOL    N5626678   0.627   2.642   0.815 -0.1655 -0.3137 -0.1586
   52MOL    C5726679   0.745   2.584   0.864  0.2534  0.0157 -0.7650
   52MOL    C5826680   0.791   2.667   0.968 -0.1415  0.1838  0.7043
   52MOL    C5926681   0.916   2.636   1.027 -0.5565 -0.0114  0.5953
   52MOL    C6026682   0.989   2.517   0.996  0.9733 -0.1324 -0.1554
   52MOL    C6126683   0.934   2.432   0.899  0.5969  0.0842 -0.2006
   52MOL    C6226684   0.815   2.466   0.830  0.6309 -0.1080  0.5713
   52MOL    C6326685   0.693   2.772   0.992  0.0777 -0.3398 -0.0013
   52MOL    C6426686   0.598   2.758   0.885  0.0882  0.6990 -0.1386
   52MOL    C6526687   0.493   2.852   0.878 -0.0249 -0.3670  0.2906
   52MOL    C6626688   0.485   2.960   0.966  0.3516  0.4062 -0.0410
   52MOL    C6726689   0.571   2.970   1.074  0.0251 -0.2684 -0.1156
   52MOL    C6826690   0.676   2.875   1.089 -0.2977  0.1082  0.2265
   52MOL    H6926691   0.431   2.734   0.627 -0.6803  1.3005 -1.5985
   52MOL    H7026692   0.477   2.607   0.517  1.3792  1.2329 -1.1237
   52MOL    H7126693   0.625   2.506   0.660 -0.5351  0.8819 -0.3875
   52MOL    H7226694   0.948   2.696   1.110 -2.4909  0.9602  0.6788
   52MOL    H7326695   1.086   2.502   1.039  1.2416  1.4949 -0.1392
   52MOL    H7426696   0.987   2.342   0.875  0.2751 -0.2130  0.2023
   52MOL    H7526697   0.784   2.401   0.749  0.3756  0.5532  0.1406
   52MOL    H7626698   0.412   2.839   0.807 -0.0611  0.6943  0.1415
   52MOL    H7726699   0.403   3.031   0.965 -0.2308 -0.2661 -0.1294
   52MOL    H7826700   0.563   3.051   1.145  2.6901  0.8502 -1.0402
   52MOL    H7926701   0.746   2.882   1.172 -0.2824 -1.6090  0.3839
   52MOL    C8026702   0.441   2.488   0.747 -0.1487 -0.5169 -0.0266
   52MOL    C8126703   0.386   2.390   0.639 -0.9145 -0.0397  0.1598
   52MOL    N8226704   0.490   2.312   0.568 -0.0450 -0.4724 -0.0735
   52MOL    C8326705   0.518   2.320   0.430 -0.5090  0.3945  0.0342
   52MOL    C8426706   0.627   2.231   0.398 -0.7456 -0.3462 -0.2059
   52MOL    C8526707   0.678   2.228   0.266 -0.3746 -0.4640  0.5663
   52MOL    C8626708   0.611   2.297   0.166  0.2351 -0.0860 -0.3758
   52MOL    C8726709   0.492   2.363   0.191 -0.1715 -0.2254  0.2660
   52MOL    C8826710   0.449   2.380   0.326 -0.2290 -0.1856  0.4294
   52MOL    C8926711   0.670   2.171   0.520 -0.1339 -0.6572  0.3708
   52MOL    C9026712   0.590   2.229   0.623 -0.3024 -0.3846  0.6394
   52MOL    C9126713   0.620   2.195   0.760 -0.3034 -0.0543 -0.1038
   52MOL    C9226714   0.719   2.102   0.795 -0.1608  0.2719  0.0225
   52MOL    C9326715   0.798   2.054   0.694  0.6475 -0.5281 -0.0001
   52MOL    C9426716   0.776   2.081   0.554 -0.1783 -0.2638  0.7754
   52MOL    H9526717   0.473   2.437   0.838 -1.9807  0.3589  1.1438
   52MOL    H9626718   0.360   2.549   0.788  1.8449  0.1130  3.1269
   52MOL    H9726719   0.331   2.448   0.565 -2.9955 -0.5338  1.2758
   52MOL    H9826720   0.754   2.158   0.235 -0.1036  1.1067 -2.4598
   52MOL    H9926721   0.643   2.286   0.063 -1.5729 -1.9980 -0.7600
   52MOL   H10026722   0.435   2.424   0.122 -0.8339 -0.5741  0.5073
   52MOL   H10126723   0.368   2.450   0.340 -0.6111 -0.3601 -0.8680
   52MOL   H10226724   0.570   2.245   0.841 -0.7898  0.0153 -0.4456
   52MOL   H10326725   0.753   2.079   0.895  1.7890  0.8078 -0.4925
   52MOL   H10426726   0.883   1.989   0.709  0.6855 -0.2487  0.9839
   52MOL   H10526727   0.833   2.040   0.473 -1.4169  0.4110 -0.4650
   52MOL   C10626728   0.285   2.289   0.697  0.1233  0.2530  0.0800
   52MOL   C10726729   0.210   2.207   0.586 -0.2292 -0.3841 -0.1165
   52MOL   N10826730   0.264   2.071   0.564  0.2435 -0.1358 -0.5541
   52MOL   C10926731   0.300   2.009   0.441  0.6176 -0.1910 -0.4004
   52MOL   C11026732   0.341   1.876   0.453 -0.2176  0.2002 -0.6402
   52MOL   C11126733   0.381   1.802   0.332 -0.0893 -0.2277  0.5996
   52MOL   C11226734   0.378   1.865   0.206 -0.3963 -0.0836 -0.3236
   52MOL   C11326735   0.331   1.997   0.195 -0.3114  0.2575  0.2370
   52MOL   C11426736   0.284   2.062   0.311 -0.3513 -0.0945 -0.5058
   52MOL   C11526737   0.324   1.846   0.597 -0.2406 -0.4202 -0.3423
   52MOL   C11626738   0.278   1.967   0.661  0.2947  0.3660  0.2510
   52MOL   C11726739   0.251   1.960   0.801 -0.6340  0.6427  0.1409
   52MOL   C11826740   0.273   1.846   0.879 -0.0304 -0.1225  0.6716
   52MOL   C11926741   0.315   1.730   0.812  0.5044  0.0304 -0.0483
   52MOL   C12026742   0.340   1.733   0.676  0.3270  0.6388  0.0678
   52MOL   H12126743   0.339   2.230   0.771  0.3997 -0.5832 -0.7794
   52MOL   H12226744   0.210   2.338   0.759  1.2063  0.7415  1.0284
   52MOL   H12326745   0.221   2.267   0.495 -0.3329 -1.5176 -0.8835
   52MOL   H12426746   0.399   1.695   0.329  0.9846 -0.0634  0.9412
   52MOL   H12526747   0.408   1.807   0.120 -0.0877  0.7354 -0.7705
   52MOL   H12626748   0.319   2.048   0.101  0.4322 -0.8281 -0.4474
   52MOL   H12726749   0.235   2.159   0.303 -0.1079  0.0088 -0.7246
   52MOL   H12826750   0.220   2.047   0.857  0.9604 -1.1690  4.0143
   52MOL   H12926751   0.252   1.845   0.985  1.1344  1.3136  0.9340
   52MOL   H13026752   0.313   1.637   0.868  0.9865  0.7278  1.1676
   52MOL   H13126753   0.350   1.641   0.620  2.4179  0.4771  0.6386
   52MOL   C13226754   0.066   2.191   0.616 -0.0340  0.8402  0.0509
   52MOL   C13326755   8.205   2.314   0.631 -0.2452 -1.0283  0.6647
   52MOL   N13426756   0.015   2.424   0.547 -0.1335 -0.0408  0.0631
   52MOL   C13526757   0.043   2.554   0.587  0.8129 -0.8584 -0.3074
   52MOL   C13626758   0.112   2.621   0.481 -0.2246  0.3046  0.2256
   52MOL   C13726759   0.153   2.752   0.512 -0.4699 -0.0345 -0.0635
   52MOL   C13826760   0.130   2.815   0.637 -0.2860 -1.1709 -0.1234
   52MOL   C13926761   0.062   2.747   0.737 -0.0962 -1.0902  0.8482
   52MOL   C14026762   0.020   2.620   0.712  0.1643 -0.4664 -0.0332
   52MOL   C14126763   0.104   2.534   0.360 -0.0682  0.2582 -0.2156
   52MOL   C14226764   0.033   2.417   0.406  0.2689  0.5191  0.2479
   52MOL   C14326765   8.223   2.321   0.314  0.1351 -0.2036 -0.4303
   52MOL   C14426766   0.018   2.339   0.178 -0.0776 -0.2381 -0.7856
   52MOL   C14526767   0.101   2.446   0.131  0.7388 -1.4717 -0.9123
   52MOL   C14626768   0.135   2.543   0.228 -0.5886 -0.0555 -1.1082
   52MOL   H14726769   0.025   2.124   0.540  0.9132 -0.0515  0.3196
   52MOL   H14826770   0.055   2.142   0.712 -0.8483 -0.2579 -0.5869
   52MOL   H14926771   8.219   2.355   0.732  1.4454  2.1553 -0.7808
   52MOL   H15026772   0.185   2.818   0.434  2.2343 -2.2227 -0.8836
   52MOL   H15126773   0.158   2.918   0.654 -1.4967 -0.0609 -4.1778
   52MOL   H15226774   0.026   2.786   0.832  1.5945 -0.8663  1.4073
   52MOL   H15326775   8.197   2.564   0.789 -1.6876  0.6967 -0.3852
   52MOL   H15426776   8.156   2.240   0.340 -0.1021  0.3496  0.7405
   52MOL   H15526777   8.207   2.264   0.111 -0.7774 -0.6072  0.0296
   52MOL   H15626778   0.137   2.469   0.032 -1.0527 -1.4987 -1.5837
   52MOL   H15726779   0.194   2.625   0.188 -2.8402  2.1991  0.0181
   52MOL   C15826780   8.052   2.275   0.623  0.2232 -0.3083 -0.6522
   52MOL   C15926781   7.988   2.198   0.746  0.0361 -0.1957  0.5962
   52MOL   N16026782   7.991   2.275   0.872 -0.0187 -0.2309  0.0287
   52MOL   C16126783   8.062   2.247   0.993 -0.6576  0.2930  0.5101
   52MOL   C16226784   8.046   2.348   1.088 -0.2404 -0.1301  0.4305
   52MOL   C16326785   8.116   2.348   1.209 -0.0009  0.4070  0.7407
   52MOL   C16426786   8.205   2.238   1.242 -0.4429 -0.5600  0.2111
   52MOL   C16526787   0.009   2.150   1.134  0.7174 -0.6205  1.1351
   52MOL   C16626788   8.166   2.152   1.010 -1.0454 -0.7401  0.5560
   52MOL   C16726789   7.942   2.432   1.034 -0.4883  0.1004 -0.1181
   52MOL   C16826790   7.911   2.385   0.901 -0.5818  0.0554 -0.2739
   52MOL   C16926791   7.817   2.452   0.824  0.9974 -0.2234  0.2474
   52MOL   C17026792   7.762   2.571   0.873 -0.4008 -0.1053  0.5468
   52MOL   C17126793   7.786   2.618   1.005 -0.3563 -0.0332 -0.6702
   52MOL   C17226794   7.868   2.540   1.087  0.0186 -0.1857 -0.2250
   52MOL   H17326795   7.994   2.366   0.606  2.0756  0.9829 -0.1739
   52MOL   H17426796   8.029   2.216   0.535  1.3699 -0.8598 -0.5791
   52MOL   H17526797   8.040   2.108   0.778 -0.6642 -0.0103  2.3478
   52MOL   H17626798   8.086   2.433   1.269  0.8222  0.6079  0.8721
   52MOL   H17726799   0.037   2.226   1.331  0.0355  1.1418  0.1302
   52MOL   H17826800   0.080   2.071   1.150  1.7219 -0.0103 -0.2474
   52MOL   H17926801   8.187   2.070   0.943  2.2127 -1.1737  2.0024
   52MOL   H18026802   7.806   2.419   0.722 -0.2673  0.9636 -0.0171
   52MOL   H18126803   7.699   2.629   0.807 -0.5400 -3.7664 -2.7087
   52MOL   H18226804   7.730   2.704   1.039 -2.4058 -0.8755 -1.8060
   52MOL   H18326805   7.884   2.567   1.190 -2.9247  1.3971 -0.1119
   52MOL   C18426806   7.842   2.143   0.726 -1.0626 -0.2594  0.0839
   52MOL   C18526807   7.836   2.029   0.626 -0.2683  0.4723  0.2047
   52MOL   N18626808   7.949   1.928   0.648  0.1140  0.6329 -0.1453
   52MOL   C18726809   8.050   1.901   0.558 -0.3276 -0.0520 -0.8337
   52MOL   C18826810   8.145   1.809   0.610  0.0732 -0.1216  0.9043
   52MOL   C18926811   0.018   1.752   0.523  0.8672  0.2349 -0.2760
   52MOL   C19026812   0.024   1.798   0.389 -0.1244  0.0944 -0.1145
   52MOL   C19126813   8.164   1.897   0.343 -0.2012  0.1641  0.6906
   52MOL   C19226814   8.060   1.948   0.423  0.3189 -0.8025  0.2292
   52MOL   C19326815   8.108   1.801   0.749  0.5818 -0.2654 -0.1641
   52MOL   C19426816   7.979   1.860   0.767  0.6033  0.3505  0.0709
   52MOL   C19526817   7.904   1.848   0.887 -0.9992  0.7252  0.3288
   52MOL   C19626818   7.963   1.790   0.998 -0.4561  0.4053  0.1369
   52MOL   C19726819   8.087   1.730   0.984  0.5228 -0.2555 -0.6179
   52MOL   C19826820   8.156   1.732   0.860 -1.0505  0.0786 -0.1630
   52MOL   H19926821   7.808   2.101   0.821 -2.1442 -1.5297 -0.8519
   52MOL   H20026822   7.765   2.214   0.696 -1.5722  0.7330  3.4518
   52MOL   H20126823   7.844   2.081   0.530 -0.2040  0.4041  0.1734
   52MOL   H20226824   0.085   1.683   0.572 -0.8122  0.8335  3.0606
   52MOL   H20326825   0.091   1.749   0.321 -2.2841 -0.5357 -1.8367
   52MOL   H20426826   8.179   1.914   0.238 -0.4023 -0.3507  0.5813
   52MOL   H20526827   7.980   2.006   0.379 -0.4297 -4.2510 -3.1877
   52MOL   H20626828   7.808   1.896   0.878 -0.4376  1.3683 -2.9187
   52MOL   H20726829   7.910   1.774   1.091  0.7847 -1.2935  0.5716
   52MOL   H20826830   8.139   1.674   1.060 -0.3992 -1.8829 -1.1798
   52MOL   H20926831   0.020   1.677   0.842 -0.4519  0.7039  0.9314
   52MOL   C21026832   7.696   1.962   0.609 -0.1650  0.5329 -0.1118
   52MOL   C21126833   7.691   1.856   0.491  0.1804  0.1268 -0.2763
   52MOL   N21226834   7.734   1.724   0.522 -0.3911  0.1228 -0.3206
   52MOL   C21326835   7.821   1.648   0.442 -0.1428 -0.3183  0.2495
   52MOL   C21426836   7.840   1.522   0.510  1.3444  1.2595 -0.4295
   52MOL   C21526837   7.923   1.428   0.443 -0.1104 -0.7859  0.8727
   52MOL   C21626838   7.990   1.457   0.319  0.7411 -0.4980  0.6410
   52MOL   C21726839   7.966   1.577   0.254  0.3951  0.1879 -0.0337
   52MOL   C21826840   7.872   1.667   0.312  0.0920  0.2352  0.8055
   52MOL   C21926841   7.761   1.521   0.626  0.0430 -0.0715 -0.3968
   52MOL   C22026842   7.691   1.642   0.629 -0.1587  0.2435 -0.3770
   52MOL   C22126843   7.588   1.672   0.722  0.2758 -0.2750  0.3853
   52MOL   C22226844   7.556   1.579   0.826 -0.9275 -0.0649 -0.1545
   52MOL   C22326845   7.623   1.447   0.820 -0.3057  0.2665 -0.1400
   52MOL   C22426846   7.730   1.421   0.727  0.1006 -0.0461  0.1708
   52MOL   H22526847   7.673   1.905   0.699 -1.4411 -1.1446 -1.4840
   52MOL   H22626848   7.613   2.033   0.601 -1.0404 -0.6262 -1.5239
   52MOL   H22726849   7.765   1.891   0.419 -0.8966 -0.0411 -1.4938
   52MOL   H22826850   7.942   1.331   0.487 -2.1692 -0.9865  1.3542
   52MOL   H22926851   8.053   1.378   0.283 -0.5967 -1.1706 -0.2678
   52MOL   H23026852   8.026   1.602   0.168  1.4906 -1.1807  0.3236
   52MOL   H23126853   7.841   1.750   0.250  1.9441  0.4825  0.1730
   52MOL   H23226854   7.522   1.756   0.709  2.1312  0.8566 -2.2198
   52MOL   H23326855   7.468   1.598   0.886 -0.4369  0.0277  0.5437
   52MOL   H23426856   7.596   1.364   0.884 -0.1169  0.1342 -0.2328
   52MOL   H23526857   7.766   1.320   0.723  0.1914  0.0044 -0.2318
   52MOL   C23626858   7.561   1.857   0.413  0.3677  0.6356  0.4389
   52MOL   C23726859   7.522   1.994   0.338  0.1991 -0.6255  1.0644
   52MOL   N23826860   7.618   2.030   0.231  0.4535  0.1510 -0.1678
   52MOL   C23926861   7.704   2.140   0.232  0.4591 -0.0957  0.4635
   52MOL   C24026862   7.773   2.147   0.109  0.0086 -0.4398  0.3245
   52MOL   C24126863   7.857   2.257   0.084  0.7130 -0.0423  0.0006
   52MOL   C24226864   7.891   2.346   0.186 -0.5063 -0.3114  0.2091
   52MOL   C24326865   7.823   2.336   0.314 -0.0028 -0.2594 -0.4401
   52MOL   C24426866   7.729   2.236   0.334 -0.3960  0.0913  0.6246
   52MOL   C24526867   7.727   2.033   0.033  0.2389  0.3930  0.2008
   52MOL   C24626868   7.633   1.964   0.113  0.1185  0.1434  0.6873
   52MOL   C24726869   7.573   1.841   0.068  0.0124 -0.6200  0.2170
   52MOL   C24826870   7.609   1.791   8.170  0.2430  0.7867  0.4790
   52MOL   C24926871   7.696   1.859   8.085  0.0954  0.2407  0.6181
   52MOL   C25026872   7.752   1.980   8.129  0.3442 -0.1932  0.0462
   52MOL   H25126873   7.581   1.777   0.342 -1.6549 -0.3489  0.9313
   52MOL   H25226874   7.483   1.820   0.480 -1.5948  3.2781 -0.3303
   52MOL   H25326875   7.546   2.064   0.418  2.3734 -0.2832  0.1554
   52MOL   H25426876   7.908   2.273   8.217  2.7420  3.0359  1.5537
   52MOL   H25526877   7.960   2.427   0.166 -0.8777  0.1359  0.7488
   52MOL   H25626878   7.826   2.405   0.397 -2.0668  0.3393 -0.8510
   52MOL   H25726879   7.674   2.242   0.426 -0.4408 -1.3626  0.7096
   52MOL   H25826880   7.497   1.792   0.127 -0.0318  1.5370  1.9999
   52MOL   H25926881   7.579   1.695   8.129  0.4883 -0.2597  2.6758
   52MOL   H26026882   7.719   1.821   7.986  0.3936 -3.2932  1.9820
   52MOL   H26126883   7.812   2.025   8.051 -0.1119 -0.9375 -0.7368
   52MOL   C26226884   7.369   2.017   0.307  0.0732  0.3094 -0.0353
   52MOL   C26326885   7.276   2.074   0.413  0.0728 -0.2511  0.3970
   52MOL   N26426886   7.346   2.165   0.503  0.0450  0.2271 -0.3752
   52MOL   C26526887   7.380   2.137   0.633  0.4486 -0.2784 -0.3426
   52MOL   C26626888   7.455   2.248   0.688 -0.2076  0.5139 -0.1629
   52MOL   C26726889   7.493   2.248   0.821 -0.0259 -0.3575  0.0946
   52MOL   C26826890   7.466   2.138   0.897 -0.1811 -0.0979 -0.7563
   52MOL   C26926891   7.403   2.025   0.841 -0.3876  0.5555  0.5947
   52MOL   C27026892   7.350   2.027   0.709 -0.2766 -0.1004 -0.8011
   52MOL   C27126893   7.473   2.345   0.579  0.3217  0.4032  0.8163
   52MOL   C27226894   7.416   2.285   0.466  0.0714 -0.0522 -0.1021
   52MOL   C27326895   7.429   2.349   0.337 -0.1808 -0.7849  0.5046
   52MOL   C27426896   7.488   2.474   0.323 -0.1868 -0.0027  0.5343
   52MOL   C27526897   7.525   2.539   0.441 -0.0165  0.7742 -0.7380
   52MOL   C27626898   7.523   2.473   0.564 -0.3189  0.2818  0.2623
   52MOL   H27726899   7.374   2.083   0.220  0.9953 -0.8935 -0.8971
   52MOL   H27826900   7.319   1.927   0.272  1.0666 -0.7225  1.1493
   52MOL   H27926901   7.257   1.980   0.465 -0.3442  0.7098  2.0290
   52MOL   H28026902   7.542   2.334   0.864 -0.7325 -0.7444  1.7389
   52MOL   H28126903   7.501   2.121   0.997  0.9825 -0.1328 -1.1583
   52MOL   H28226904   7.385   1.931   0.892  0.1983 -0.7975 -1.6060
   52MOL   H28326905   7.300   1.946   0.657  0.6204  0.6607 -2.9217
   52MOL   H28426906   7.388   2.304   0.248 -3.2291 -1.6701  2.2586
   52MOL   H28526907   7.506   2.519   0.227 -2.9272 -0.4131 -0.2105
   52MOL   H28626908   7.573   2.635   0.430 -1.7887  1.6421 -1.2267
   52MOL   H28726909   7.580   2.514   0.646 -2.0667  1.4776  0.9140
   52MOL   C28826910   7.146   2.146   0.351 -0.2069 -0.2066 -0.4075
   52MOL   C28926911   7.060   2.232   0.449 -0.5907 -0.6599 -0.0079
   52MOL   N29026912   6.963   2.310   0.376 -0.3129 -0.5351 -0.8764
   52MOL   C29126913   6.996   2.429   0.310  0.5951 -0.3801 -0.5151
   52MOL   C29226914   6.880   2.479   0.241 -0.0657  0.1297  0.2145
   52MOL   C29326915   6.890   2.593   0.164 -0.3712  0.0282  0.4048
   52MOL   C29426916   7.015   2.660   0.158 -0.0563 -0.2980  0.0892
   52MOL   C29526917   7.128   2.612   0.225 -0.0347  0.2645  0.2862
   52MOL   C29626918   7.118   2.494   0.302 -0.8336  0.0575  0.7092
   52MOL   C29726919   6.776   2.390   0.268 -0.9366 -0.1742  0.6595
   52MOL   C29826920   6.829   2.291   0.349  0.2095  0.0886 -0.8339
   52MOL   C29926921   6.740   2.186   0.397 -0.8069 -0.6236  0.6643
   52MOL   C30026922   6.605   2.192   0.377 -1.0386 -0.6421 -0.7671
   52MOL   C30126923   6.550   2.292   0.298 -0.5677  0.3224  0.7631
   52MOL   C30226924   6.638   2.374   0.235 -0.3073  0.2505  1.1718
   52MOL   H30326925   7.182   2.214   0.274 -0.6771 -1.1941 -1.5032
   52MOL   H30426926   7.087   2.080   0.288 -0.2747 -0.5072 -0.0331
   52MOL   H30526927   7.131   2.302   0.493 -2.0496  1.3730 -0.8346
   52MOL   H30626928   6.794   2.617   0.120  0.3983  1.5752 -0.4503
   52MOL   H30726929   7.025   2.745   0.091  1.4327 -0.3231  0.2629
   52MOL   H30826930   7.222   2.665   0.219  0.0833 -0.0055 -0.2803
   52MOL   H30926931   7.200   2.461   0.364 -2.2405  1.2589  3.2832
   52MOL   H31026932   6.768   2.104   0.461  3.2299 -0.7400 -1.1326
   52MOL   H31126933   6.537   2.120   0.421 -0.2810  0.7063  2.7504
   52MOL   H31226934   6.446   2.290   0.269 -0.3797  1.5357 -0.0369
   52MOL   H31326935   6.603   2.448   0.165  0.9325 -0.7235 -0.5130
   52MOL   C31426936   7.008   2.153   0.569  0.2088 -0.2630  0.7612
   52MOL   C31526937   6.931   2.232   0.678  0.0322  0.3013 -0.5558
   52MOL   N31626938   6.850   2.130   0.748 -0.4831 -0.8950 -0.1004
   52MOL   C31726939   6.714   2.140   0.773  0.6542  0.3951  0.2396
   52MOL   C31826940   6.674   2.038   0.863 -0.1322  0.4807 -0.0482
   52MOL   C31926941   6.536   2.033   0.897  0.1209  0.2037  0.5887
   52MOL   C32026942   6.444   2.125   0.849 -0.4377  0.2490  1.1181
   52MOL   C32126943   6.483   2.222   0.752 -0.9696 -0.2024 -0.2335
   52MOL   C32226944   6.618   2.228   0.717  0.2603  0.2621  0.5979
   52MOL   C32326945   6.787   1.951   0.874  0.4866 -0.4663 -0.5858
   52MOL   C32426946   6.891   2.015   0.813 -0.0260 -0.1828 -0.1401
   52MOL   C32526947   7.022   1.956   0.836  0.0713  0.2140 -0.2897
   52MOL   C32626948   7.045   1.829   0.889 -0.0396  0.0773 -0.2507
   52MOL   C32726949   6.936   1.768   0.957  0.2280  0.0343  0.3137
   52MOL   C32826950   6.811   1.832   0.952 -0.7401  0.0141  0.0414
   52MOL   H32926951   6.957   2.061   0.541  2.4180 -0.7775 -1.7827
   52MOL   H33026952   7.092   2.103   0.618  0.9786 -0.6671 -0.9104
   52MOL   H33126953   6.862   2.296   0.623 -2.2850  1.9456  3.9860
   52MOL   H33226954   6.501   1.945   0.949 -0.4271 -2.5197 -4.1248
   52MOL   H33326955   6.342   2.109   0.881 -0.3494  2.0369  2.3538
   52MOL   H33426956   6.423   2.304   0.715 -0.3606 -0.4215 -1.7485
   52MOL   H33526957   6.635   2.309   0.648 -3.4933  2.3941  2.0523
   52MOL   H33626958   7.104   2.015   0.800 -0.0797 -0.3112 -1.5310
   52MOL   H33726959   7.142   1.784   0.878  1.0306  2.3157 -0.3121
   52MOL   H33826960   6.952   1.668   0.995 -0.6633  0.1964  1.1198
   52MOL   H33926961   6.733   1.773   0.998 -0.3235  0.2876  1.1081
   52MOL   C34026962   7.017   2.321   0.774 -0.6753  0.2648  0.5078
   52MOL   C34126963   6.942   2.444   0.825 -0.2280  0.4092  0.1656
   52MOL   N34226964   6.987   2.483   0.958  0.0043 -0.2660  0.0467
   52MOL   C34326965   6.919   2.493   1.078 -0.0539  0.6099  0.7540
   52MOL   C34426966   7.006   2.543   1.175  0.9126 -0.2594 -0.3643
   52MOL   C34526967   6.953   2.561   1.307 -0.2531 -0.0079 -0.4030
   52MOL   C34626968   6.822   2.533   1.333  0.4395  0.3746  0.1685
   52MOL   C34726969   6.736   2.482   1.241 -0.1600 -0.1113 -0.2877
   52MOL   C34826970   6.785   2.461   1.109 -0.1687 -0.1281 -0.0813
   52MOL   C34926971   7.138   2.563   1.114 -0.0639  0.2400 -0.3651
   52MOL   C35026972   7.119   2.522   0.982 -0.0758  0.0298  0.2448
   52MOL   C35126973   7.227   2.532   0.899 -0.0090  0.1099  0.1212
   52MOL   C35226974   7.352   2.573   0.940 -0.3488  0.3677 -0.1360
   52MOL   C35326975   7.369   2.609   1.072 -0.4606 -0.2923  0.1032
   52MOL   C35426976   7.261   2.608   1.160  0.1691  0.0040  0.1904
   52MOL   H35526977   7.063   2.259   0.852  2.2922  0.6576 -0.8839
   52MOL   H35626978   7.095   2.354   0.706 -1.3705  0.5906 -0.1414
   52MOL   H35726979   6.840   2.410   0.843  0.0494  0.6464  2.3335
   52MOL   H35826980   7.017   2.599   1.386  0.1474  0.4597 -0.9496
   52MOL   H35926981   6.780   2.546   1.432 -1.0878  0.2932 -0.4628
   52MOL   H36026982   6.638   2.464   1.280  0.9723 -0.5295  2.4669
   52MOL   H36126983   6.715   2.428   1.034  0.0377 -0.6193 -0.0616
   52MOL   H36226984   7.222   2.506   0.794  1.3050 -0.0087  0.0783
   52MOL   H36326985   7.438   2.585   0.876  0.7807  1.3047  1.5071
   52MOL   H36426986   7.458   2.657   1.109  0.4793 -1.8246 -0.1170
   52MOL   H36526987   7.267   2.641   1.262 -0.4175  0.2158  0.1581
   52MOL   C36626988   6.929   2.556   0.719 -1.1583  0.1209  0.4331
   52MOL   C36726989   6.917   2.706   0.748 -0.3737 -0.4374 -0.6859
   52MOL   N36826990   6.951   2.783   0.625 -0.1834  0.4034 -0.6221
   52MOL   C36926991   7.073   2.830   0.574  0.5769  0.8439  0.5744
   52MOL   C37026992   7.066   2.883   0.440  0.3796 -0.9276  0.2742
   52MOL   C37126993   7.188   2.911   0.373  0.7731  0.6917  0.2705
   52MOL   C37226994   7.315   2.894   0.432 -0.3518 -0.9371  0.3924
   52MOL   C37326995   7.324   2.854   0.564  0.8595 -0.4677  0.0028
   52MOL   C37426996   7.201   2.827   0.634 -0.2649  0.7202 -0.7096
   52MOL   C37526997   6.928   2.884   0.415  0.7847  0.0927 -0.5013
   52MOL   C37626998   6.865   2.811   0.519 -0.3996  0.2742 -0.0794
   52MOL   C37726999   6.731   2.767   0.496  0.2035  0.6530 -0.2308
   52MOL   C37827000   6.662   2.820   0.385 -0.1790 -0.3617  0.4243
   52MOL   C37927001   6.722   2.900   0.288  0.8238  0.1813  0.3781
   52MOL   C38027002   6.855   2.938   0.308  0.1720 -0.2118 -0.2123
   52MOL   H38127003   7.026   2.553   0.668 -1.5672  0.2998 -0.3581
   52MOL   H38227004   6.852   2.534   0.645  0.6712 -1.3570 -1.0889
   52MOL   H38327005   7.003   2.720   0.814 -0.4974  1.8318 -0.9736
   52MOL   H38427006   7.178   2.955   0.275  1.8526 -0.5230 -0.3942
   52MOL   H38527007   7.406   2.911   0.377 -0.0935  1.8137  1.6128
   52MOL   H38627008   7.421   2.831   0.604  1.6416  1.9042 -0.4953
   52MOL   H38727009   7.203   2.774   0.728 -0.7502  2.7056  0.4408
   52MOL   H38827010   6.681   2.695   0.558  1.0378  1.1478  1.0282
   52MOL   H38927011   6.564   2.779   0.368  0.2141 -1.6623  1.2339
   52MOL   H39027012   6.664   2.938   0.205  0.9214 -2.6220 -1.0262
   52MOL   H39127013   6.909   2.987   0.229 -0.3186 -1.4156 -1.3014
   52MOL   C39227014   6.784   2.758   0.819  0.4824 -0.4920 -0.0054
   52MOL   C39327015   6.774   2.908   0.870  0.3674 -0.6796 -0.8346
   52MOL   N39427016   6.636   2.940   0.903  0.0141 -0.7575  0.2436
   52MOL   C39527017   6.558   3.034   0.830 -0.4760  0.2060  1.0630
   52MOL   C39627018   6.425   3.022   0.876 -0.0451  0.4076 -0.2034
   52MOL   C39727019   6.317   3.083   0.813 -0.2674 -1.0995  0.0982
   52MOL   C39827020   6.343   3.157   0.695 -0.2183  0.3075  0.1793
   52MOL   C39927021   6.473   3.163   0.640  0.0479 -0.1485 -0.4279
   52MOL   C40027022   6.585   3.111   0.711 -0.4932  0.1076  0.0867
   52MOL   C40127023   6.426   2.933   0.990  0.2785 -0.4353 -0.1900
   52MOL   C40227024   6.562   2.877   1.000  1.0529  0.4503 -0.3709
   52MOL   C40327025   6.584   2.781   1.103  0.3990  0.0417 -0.1919
   52MOL   C40427026   6.479   2.737   1.183 -0.1534  0.3111 -0.1546
   52MOL   C40527027   6.353   2.788   1.174  0.0476 -1.0252  0.2542
   52MOL   C40627028   6.326   2.886   1.074 -0.3904 -0.0045  0.8136
   52MOL   H40727029   6.692   2.738   0.765 -0.7703 -0.2273  1.9990
   52MOL   H40827030   6.764   2.700   0.909  1.3467 -0.4448  0.2257
   52MOL   H40927031   6.810   2.970   0.788  1.4648  0.4140  0.4399
   52MOL   H41027032   6.215   3.083   0.850 -0.3869  1.1764 -0.1505
   52MOL   H41127033   6.260   3.200   0.642 -0.6539 -0.1133  0.5193
   52MOL   H41227034   6.485   3.209   0.542  0.2290  0.7568  0.0120
   52MOL   H41327035   6.683   3.107   0.664 -0.7486 -1.0014 -0.3818
   52MOL   H41427036   6.680   2.736   1.125  1.1942  2.0217  0.5076
   52MOL   H41527037   6.508   2.653   1.246  1.1309  0.2972 -0.7513
   52MOL   H41627038   6.281   2.756   1.248  1.8225  1.9266  3.3998
   52MOL   H41727039   6.222   2.913   1.061 -0.4551 -1.4081 -1.9522
   52MOL   C41827040   6.869   2.944   0.991  0.2095 -0.3129 -0.2648
   52MOL   C41927041   6.820   3.057   1.094 -0.3705  0.1941 -0.0178
   52MOL   N42027042   6.886   3.040   1.221 -0.0353  0.2907 -0.5137
   52MOL   C42127043   6.820   3.005   1.343 -0.6301 -0.9202  1.2463
   52MOL   C42227044   6.916   3.002   1.447  0.8183  0.5136  0.0416
   52MOL   C42327045   6.864   2.973   1.578 -0.0718  0.4306 -0.2899
   52MOL   C42427046   6.732   2.956   1.603 -0.6511  0.6412  0.4655
   52MOL   C42527047   6.640   2.950   1.500  0.1862 -0.8102 -0.9485
   52MOL   C42627048   6.683   2.973   1.370  0.1229 -0.7399  0.6577
   52MOL   C42727049   7.044   3.042   1.392  0.0491  0.3632  0.4584
   52MOL   C42827050   7.029   3.053   1.253  0.3193  0.3803  1.6218
   52MOL   C42927051   7.136   3.091   1.169 -0.1479  0.1167  0.7712
   52MOL   C43027052   7.266   3.104   1.222  0.0994  0.2669  0.6043
   52MOL   C43127053   7.282   3.092   1.364  0.0264  0.7237  0.6931
   52MOL   C43227054   7.173   3.058   1.443 -0.0691  0.0058  0.5000
   52MOL   H43327055   6.878   2.851   1.049  1.4623 -1.7035 -2.6335
   52MOL   H43427056   6.969   2.964   0.954 -0.4006  2.0656 -0.6435
   52MOL   H43527057   6.716   3.036   1.117  0.5481 -3.1584  1.3708
   52MOL   H43627058   6.932   2.960   1.661  1.0820  2.4529 -0.8838
   52MOL   H43727059   6.709   2.942   1.707  2.4916  2.1839  1.4379
   52MOL   H43827060   6.538   2.927   1.528  0.7561 -2.9071 -0.5165
   52MOL   H43927061   6.609   2.962   1.293  1.2986  1.0756 -0.7682
   52MOL   H44027062   7.127   3.125   1.067 -2.0647 -2.7393 -0.0704
   52MOL   H44127063   7.357   3.126   1.167  0.8366  2.1844  2.5404
   52MOL   H44227064   7.374   3.091   1.421  0.2748 -1.4915  0.2915
   52MOL   H44327065   7.186   3.042   1.549 -1.2732  3.3874  1.2103
   52MOL   C44427066   6.821   3.203   1.025 -0.6863 -0.2849  0.7373
   52MOL   C44527067   6.784   3.314   1.120 -0.7875  1.3911  0.5067
   52MOL   N44627068   6.826   3.448   1.070 -0.3114 -0.2291 -0.4114
   52MOL   C44727069   6.951   3.508   1.106 -0.1265 -0.0168 -0.9201
   52MOL   C44827070   6.961   3.633   1.045 -0.6444  0.3926 -0.2915
   52MOL   C44927071   7.071   3.721   1.075 -0.7599 -0.4617 -0.2319
   52MOL   C45027072   7.177   3.668   1.158 -0.4578 -0.1902 -0.6327
   52MOL   C45127073   7.174   3.539   1.207  1.1593 -0.4386 -0.0119
   52MOL   C45227074   7.056   3.460   1.187  0.2470 -0.4350 -0.0289
   52MOL   C45327075   6.842   3.653   0.971 -0.3935  0.4128 -0.3007
   52MOL   C45427076   6.764   3.531   0.978 -0.4630 -0.4179 -0.3764
   52MOL   C45527077   6.644   3.521   0.902 -0.2622  0.5311  0.1187
   52MOL   C45627078   6.594   3.636   0.836 -0.3259 -0.5616  0.3862
   52MOL   C45727079   6.669   3.756   0.833 -0.4761  0.2196  0.7891
   52MOL   C45827080   6.795   3.759   0.889  0.4612 -0.3065  0.1808
   52MOL   H45927081   6.918   3.219   0.979 -0.7786  0.5513  0.8242
   52MOL   H46027082   6.745   3.204   0.947 -1.4207  0.8020  1.4512
   52MOL   H46127083   6.847   3.291   1.206 -0.2200 -0.0583 -0.2642
   52MOL   H46227084   7.073   3.820   1.032  0.6225 -0.4231 -0.0858
   52MOL   H46327085   7.265   3.730   1.167 -0.3712 -0.4375  0.2099
   52MOL   H46427086   7.251   3.491   1.265  0.4286 -0.5440  0.8932
   52MOL   H46527087   7.049   3.366   1.239  0.6513 -0.6399 -0.3499
   52MOL   H46627088   6.589   3.428   0.898  2.8426 -1.3495 -0.1120
   52MOL   H46727089   6.503   3.632   0.777 -1.0447 -0.3812  1.4634
   52MOL   H46827090   6.627   3.842   0.784 -2.1562 -0.3612  1.1771
   52MOL   H46927091   6.846   3.854   0.883 -1.2303  0.6896  1.0273
   52MOL   C47027092   6.640   3.300   1.175  0.1470 -0.0712 -0.1516
   52MOL   C47127093   6.578   3.424   1.242  0.0112 -0.8000  0.2622
   52MOL   N47227094   6.432   3.422   1.233  0.6201 -1.2059  0.7322
   52MOL   C47327095   6.348   3.517   1.174 -0.1600  0.4939  0.3341
   52MOL   C47427096   6.212   3.474   1.178 -0.3598 -0.2163 -0.1571
   52MOL   C47527097   6.109   3.553   1.124 -0.4160 -0.4931 -0.6874
   52MOL   C47627098   6.143   3.676   1.068  0.1331  0.5691  0.6185
   52MOL   C47727099   6.274   3.716   1.051 -0.6316  0.0853 -0.1940
   52MOL   C47827100   6.377   3.638   1.112 -0.1014  0.7560  0.4935
   52MOL   C47927101   6.211   3.351   1.248 -0.9067 -0.5380 -0.0013
   52MOL   C48027102   6.346   3.325   1.284  0.1424  0.0102  0.5221
   52MOL   C48127103   6.379   3.202   1.345 -0.1081 -0.0137  0.7145
   52MOL   C48227104   6.280   3.104   1.379  0.0174 -0.1980  0.7100
   52MOL   C48327105   6.148   3.135   1.354  0.1485 -0.4497 -0.1965
   52MOL   C48427106   6.118   3.254   1.279 -0.0746 -0.1016  0.3788
   52MOL   H48527107   6.568   3.271   1.098  0.4468 -0.4708 -0.2821
   52MOL   H48627108   6.638   3.210   1.237 -1.0902 -0.4921 -0.7779
   52MOL   H48727109   6.616   3.506   1.181 -0.7763 -0.1538  0.6248
   52MOL   H48827110   6.008   3.516   1.135 -0.3032  0.0789  2.9036
   52MOL   H48927111   6.062   3.735   1.030 -0.2463  1.5799  2.9420
   52MOL   H49027112   6.299   3.807   0.998  1.8609  0.7626  2.0637
   52MOL   H49127113   6.481   3.659   1.091 -0.2887 -1.0912 -2.4994
   52MOL   H49227114   6.477   3.172   1.380 -0.7395 -2.3379  0.6148
   52MOL   H49327115   6.301   3.014   1.436 -0.0038 -0.1996  0.7152
   52MOL   H49427116   6.075   3.061   1.383  0.9154 -0.9886  0.3866
   52MOL   H49527117   6.017   3.276   1.249  0.5359  1.8891 -0.3116
   52MOL   C49627118   6.633   3.453   1.392  0.2137 -0.2837 -0.1946
   52MOL   C49727119   6.785   3.421   1.415  0.1567  0.0997 -0.9959
   52MOL   N49827120   6.826   3.454   1.549 -0.3754 -1.0165  0.3520
   52MOL   C49927121   6.904   3.564   1.581  0.1256  0.2664 -0.3848
   52MOL   C50027122   6.919   3.573   1.723 -0.0149 -0.1268  0.3007
   52MOL   C50127123   6.999   3.675   1.782  0.0658 -0.4848 -0.4969
   52MOL   C50227124   7.061   3.771   1.696  0.1350 -0.0804 -0.3749
   52MOL   C50327125   7.043   3.768   1.555  0.0581  0.6021 -0.9286
   52MOL   C50427126   6.972   3.662   1.502 -0.5163  0.4386  0.0957
   52MOL   C50527127   6.847   3.455   1.782  1.1475 -0.1242  0.6764
   52MOL   C50627128   6.791   3.389   1.666 -0.3211  0.2416 -0.4320
   52MOL   C50727129   6.706   3.274   1.684  0.2355  0.4302 -0.3021
   52MOL   C50827130   6.677   3.235   1.818 -0.2429 -0.6246 -0.0014
   52MOL   C50927131   6.739   3.297   1.930  0.0804  0.0084  0.1513
   52MOL   C51027132   6.823   3.409   1.912 -0.3390 -0.6926  0.0135
   52MOL   H51127133   6.603   3.550   1.434 -0.0771 -1.1172  1.6010
   52MOL   H51227134   6.583   3.373   1.446  0.3948 -0.1702  0.1434
   52MOL   H51327135   6.850   3.465   1.339  1.3769 -1.3584 -0.7939
   52MOL   H51427136   7.021   3.681   1.888 -0.0035  1.1974 -0.5734
   52MOL   H51527137   7.114   3.856   1.736  2.4948 -0.9736 -1.5011
   52MOL   H51627138   7.085   3.844   1.491  1.7670 -0.1721 -0.7384
   52MOL   H51727139   6.981   3.668   1.394  1.1435  2.3555  0.3000
   52MOL   H51827140   6.661   3.215   1.606  3.7976 -1.1031 -1.2584
   52MOL   H51927141   6.615   3.149   1.837  0.2392 -0.7914  0.8388
   52MOL   H52027142   6.725   3.268   2.033  0.5444  1.3207  0.5981
   52MOL   H52127143   6.863   3.462   1.997 -1.5723 -0.8667  0.7007
   52MOL   H52227144   6.794   3.313   1.413 -1.5646 -0.1060  0.8766
   53MOL     C127145   5.225   7.253   5.090 -0.4448  0.4516  0.2236
   53MOL     C227146   5.074   7.274   5.063  0.4592  0.1810 -0.1043
   53MOL     N327147   5.066   7.324   4.928  0.3490 -0.2467  0.4446
   53MOL     C427148   5.039   7.459   4.885 -0.4187 -0.1988  0.3864
   53MOL     C527149   5.029   7.461   4.742 -0.8792 -0.5934  0.0954
   53MOL     C627150   4.987   7.587   4.680 -0.0272  0.1846  0.1526
   53MOL     C727151   4.967   7.699   4.763  0.0104 -0.1274 -0.0056
   53MOL     C827152   4.988   7.691   4.902 -0.1118 -0.8050  0.3319
   53MOL     C927153   5.021   7.573   4.963 -0.6047 -0.8881  0.4845
   53MOL    C1027154   5.046   7.330   4.696  0.5210  0.2462  0.9578
   53MOL    C1127155   5.091   7.251   4.809 -0.2460  0.2970  0.1114
   53MOL    C1227156   5.133   7.118   4.793 -0.3121 -0.1287 -0.0095
   53MOL    C1327157   5.135   7.062   4.667  0.6272  0.1255  0.8760
   53MOL    C1427158   5.083   7.127   4.557  0.6045  0.2758  0.3122
   53MOL    C1527159   5.038   7.259   4.572 -0.3882 -0.0007 -0.1671
   53MOL    H1627160   5.238   7.211   5.190 -3.2360 -0.3786  0.2803
   53MOL    H1727161   5.262   7.354   5.079  1.2111 -0.2012 -0.2896
   53MOL    H1827162   5.037   7.355   5.125 -1.1342  0.9551 -1.9948
   53MOL    H1927163   4.962   7.598   4.576  0.1541  3.4138  0.4141
   53MOL    H2027164   4.944   7.797   4.725 -0.6510 -1.0235 -1.9677
   53MOL    H2127165   4.968   7.776   4.965 -1.0320 -0.5796 -0.2523
   53MOL    H2227166   5.025   7.568   5.071  0.4921  3.6949  0.7355
   53MOL    H2327167   5.187   7.068   4.872  2.2447  1.5697 -0.6243
   53MOL    H2427168   5.158   6.959   4.643 -2.2872 -0.7406  1.5939
   53MOL    H2527169   5.070   7.073   4.465 -0.2224  0.5183  0.2895
   53MOL    H2627170   4.990   7.309   4.489  0.6693 -0.9187 -1.3484
   53MOL    H2727171   5.281   7.184   5.027  0.8981  2.2958 -0.6484
   53MOL    C2827172   5.004   7.142   5.090  0.7423  0.7913  0.3682
   53MOL    C2927173   4.970   7.100   5.235  0.4645 -0.3464 -0.3916
   53MOL    N3027174   4.926   7.209   5.323  0.1250 -0.2114 -0.2131
   53MOL    C3127175   5.007   7.277   5.415 -0.8810 -0.0756  0.2755
   53MOL    C3227176   4.931   7.378   5.485  0.1194  0.3123  0.0423
   53MOL    C3327177   4.994   7.445   5.593  0.0128  0.4762 -0.4359
   53MOL    C3427178   5.128   7.434   5.629  0.2375 -0.3707 -0.0701
   53MOL    C3527179   5.198   7.334   5.561  0.5954  0.5680  0.5810
   53MOL    C3627180   5.141   7.256   5.461  0.6358 -0.1040 -0.1555
   53MOL    C3727181   4.799   7.369   5.430 -0.5572  0.7475  0.2815
   53MOL    C3827182   4.803   7.273   5.328 -0.0157  0.8604  0.0767
   53MOL    C3927183   4.692   7.260   5.244 -0.5770 -0.2704 -0.3754
   53MOL    C4027184   4.576   7.336   5.261  0.2816 -0.0337 -0.3562
   53MOL    C4127185   4.567   7.419   5.373 -0.0071 -0.2305 -0.3507
   53MOL    C4227186   4.679   7.429   5.460  0.9927  0.1710  0.0421
   53MOL    H4327187   4.905   7.158   5.047  1.1311  0.2191 -0.7548
   53MOL    H4427188   5.040   7.060   5.028 -0.5677  1.0049 -0.7105
   53MOL    H4527189   5.069   7.065   5.265  1.4958  2.3177 -0.5127
   53MOL    H4627190   4.937   7.511   5.656 -1.5863 -2.8160  1.6756
   53MOL    H4727191   5.172   7.494   5.707 -0.0558 -0.0492 -0.1491
   53MOL    H4827192   5.304   7.315   5.575  0.7072  0.3893 -0.4806
   53MOL    H4927193   5.199   7.172   5.425  0.8373 -0.1957  0.3741
   53MOL    H5027194   4.710   7.195   5.160  0.4001 -0.1238 -0.2806
   53MOL    H5127195   4.496   7.335   5.188  1.2657 -1.3191 -1.4208
   53MOL    H5227196   4.488   7.491   5.384  1.4395  1.4807 -0.8454
   53MOL    H5327197   4.685   7.515   5.525 -2.1716  1.5595 -1.3717
   53MOL    C5427198   4.867   6.979   5.242 -0.0981  0.1713 -0.1059
   53MOL    C5527199   4.906   6.852   5.169 -0.4240 -0.5282 -0.3266
   53MOL    N5627200   5.033   6.798   5.232  0.4696  0.1514  0.0817
   53MOL    C5727201   5.152   6.773   5.165  0.1251 -0.1775 -0.1899
   53MOL    C5827202   5.244   6.708   5.255 -0.3992 -0.1578  0.9952
   53MOL    C5927203   5.370   6.677   5.201  0.4762 -0.3613 -0.2147
   53MOL    C6027204   5.400   6.695   5.065 -0.5036 -0.0130  0.3480
   53MOL    C6127205   5.302   6.743   4.977 -0.6704 -0.0983 -0.0673
   53MOL    C6227206   5.180   6.791   5.027  0.4030 -0.6216  0.0267
   53MOL    C6327207   5.176   6.688   5.376  0.1978  0.0561 -0.4486
   53MOL    C6427208   5.047   6.740   5.359  0.0692 -0.8928 -0.1716
   53MOL    C6527209   4.954   6.733   5.466 -0.1652  0.7436  0.2170
   53MOL    C6627210   4.993   6.685   5.589  0.5007 -0.2497 -0.1691
   53MOL    C6727211   5.124   6.636   5.606  0.5094 -0.1433  0.5674
   53MOL    C6827212   5.209   6.625   5.499 -0.2679  1.4772 -0.3764
   53MOL    H6927213   4.833   6.954   5.343 -3.8608  0.3470 -1.2545
   53MOL    H7027214   4.775   7.014   5.195 -0.2304 -2.2204 -1.6901
   53MOL    H7127215   4.923   6.887   5.067  2.5377  1.8026  0.8927
   53MOL    H7227216   5.450   6.641   5.265 -0.9161 -2.0402  0.6358
   53MOL    H7327217   5.502   6.675   5.036  1.5613  0.7556  6.3845
   53MOL    H7427218   5.326   6.756   4.873 -0.2117 -1.4982 -0.1550
   53MOL    H7527219   5.108   6.846   4.968  0.3169 -0.7212  0.0414
   53MOL    H7627220   4.849   6.759   5.458 -0.4340 -0.9403 -2.7176
   53MOL    H7727221   4.913   6.689   5.661 -1.4098  0.9358 -2.3010
   53MOL    H7827222   5.150   6.591   5.701 -0.2674  0.7127  1.1871
   53MOL    H7927223   5.307   6.583   5.516 -0.8157  0.1554 -0.4128
   53MOL    C8027224   4.786   6.749   5.160 -0.8867  0.0638  0.0230
   53MOL    C8127225   4.665   6.801   5.083 -0.2918 -0.1213  0.0642
   53MOL    N8227226   4.699   6.888   4.967 -0.0714  0.1312  0.4692
   53MOL    C8327227   4.649   7.017   4.944  0.6541  0.1844  0.0173
   53MOL    C8427228   4.705   7.070   4.823  0.4659 -0.7881  0.1802
   53MOL    C8527229   4.652   7.188   4.771  0.3867 -0.2262  0.5892
   53MOL    C8627230   4.538   7.248   4.827 -0.1379  0.6715 -1.0457
   53MOL    C8727231   4.492   7.203   4.953  0.5061  0.0940 -0.2110
   53MOL    C8827232   4.543   7.090   5.010  0.1691 -0.1052  0.5077
   53MOL    C8927233   4.776   6.964   4.763  0.4815 -0.3929  0.6373
   53MOL    C9027234   4.782   6.853   4.858 -0.2624 -0.6226  0.8590
   53MOL    C9127235   4.853   6.733   4.824 -0.1724 -1.0262  0.8186
   53MOL    C9227236   4.920   6.721   4.701  0.3340  0.2229 -0.3179
   53MOL    C9327237   4.908   6.828   4.603  0.1266  0.2434  0.3844
   53MOL    C9427238   4.835   6.944   4.635 -0.1006  0.6281 -0.3850
   53MOL    H9527239   4.838   6.670   5.105  1.2150 -1.0453  3.3790
   53MOL    H9627240   4.765   6.701   5.256  1.2606  0.5022  0.7376
   53MOL    H9727241   4.606   6.859   5.155  0.2050  1.1167 -0.5036
   53MOL    H9827242   4.690   7.221   4.675 -0.6931 -0.7696 -0.0281
   53MOL    H9927243   4.496   7.331   4.772  1.0382  0.4462 -2.3118
   53MOL   H10027244   4.415   7.255   5.007  1.7530  0.3029  1.4064
   53MOL   H10127245   4.507   7.051   5.104  0.5653  0.3525  0.8472
   53MOL   H10227246   4.860   6.654   4.898  0.2011 -0.7465  1.0824
   53MOL   H10327247   4.978   6.637   4.667  0.1196 -1.1274  2.5151
   53MOL   H10427248   4.955   6.826   4.506 -0.2123  0.1439  0.2230
   53MOL   H10527249   4.823   7.018   4.557  0.8577  0.7751 -0.4090
   53MOL   C10627250   4.570   6.679   5.040  0.5173 -0.2508  0.5388
   53MOL   C10727251   4.446   6.711   4.955  0.3647  0.3585  0.5285
   53MOL   N10827252   4.473   6.710   4.807 -0.6271  0.1051 -0.0880
   53MOL   C10927253   4.454   6.813   4.717 -0.4375  0.1852  0.3179
   53MOL   C11027254   4.513   6.777   4.593  0.7239  0.0670 -0.2678
   53MOL   C11127255   4.496   6.865   4.482 -0.3533  0.4179  0.2951
   53MOL   C11227256   4.434   6.988   4.494  0.9419  0.8195 -0.2779
   53MOL   C11327257   4.383   7.025   4.614  0.0225 -0.4001 -0.3017
   53MOL   C11427258   4.400   6.945   4.727 -0.2856 -0.1964  0.0122
   53MOL   C11527259   4.573   6.649   4.608 -0.0405  0.2337 -0.1340
   53MOL   C11627260   4.541   6.603   4.736  0.0335 -0.0966 -0.3664
   53MOL   C11727261   4.569   6.468   4.768  0.9444 -0.1672 -0.0858
   53MOL   C11827262   4.651   6.392   4.681  0.4453  0.3865 -0.1658
   53MOL   C11927263   4.696   6.445   4.561  0.8636  0.0595 -0.6106
   53MOL   C12027264   4.649   6.568   4.519  0.5688  0.2217  0.5274
   53MOL   H12127265   4.640   6.624   4.977 -1.2425 -0.2165 -1.4766
   53MOL   H12227266   4.556   6.621   5.131 -1.9157 -0.1196  0.2630
   53MOL   H12327267   4.428   6.817   4.969  1.2323  0.8564 -1.9346
   53MOL   H12427268   4.540   6.843   4.385  1.0400  1.3577  0.6915
   53MOL   H12527269   4.431   7.053   4.408 -0.6774 -2.1540 -2.5391
   53MOL   H12627270   4.340   7.122   4.633 -0.2582 -0.9151  1.8357
   53MOL   H12727271   4.354   6.968   4.823  1.4479  1.4512  0.4818
   53MOL   H12827272   4.545   6.424   4.864  0.1460 -0.0841 -0.2447
   53MOL   H12927273   4.677   6.290   4.705 -1.6311 -0.0351  0.4509
   53MOL   H13027274   4.757   6.393   4.489  2.3724  0.7334  0.1688
   53MOL   H13127275   4.669   6.607   4.420  0.4543  1.1009  0.8424
   53MOL   C13227276   4.316   6.636   4.993  0.2057  0.6890 -0.7493
   53MOL   C13327277   4.270   6.663   5.136 -0.3522  0.0816  0.0319
   53MOL   N13427278   4.285   6.801   5.184  0.2344 -0.1336  0.4559
   53MOL   C13527279   4.365   6.839   5.289 -0.0927 -0.1531  0.3691
   53MOL   C13627280   4.355   6.974   5.309 -0.6353 -0.9397 -0.3875
   53MOL   C13727281   4.439   7.038   5.401  0.7469 -0.2245 -0.6716
   53MOL   C13827282   4.513   6.960   5.495 -0.3627 -0.6666 -0.2787
   53MOL   C13927283   4.508   6.819   5.487  0.6054 -0.0680  0.7087
   53MOL   C14027284   4.440   6.763   5.379 -0.2764 -0.3130  0.2801
   53MOL   C14127285   4.252   7.025   5.225  0.4207  0.7655 -0.0665
   53MOL   C14227286   4.214   6.913   5.143 -0.3427 -1.0564 -0.0804
   53MOL   C14327287   4.123   6.927   5.036 -0.0023 -0.0940 -0.6874
   53MOL   C14427288   4.063   7.053   5.023  0.4254  0.1054  0.5713
   53MOL   C14527289   4.107   7.165   5.090  0.1282 -0.2114 -0.3174
   53MOL   C14627290   4.196   7.151   5.194  0.2908  0.2929  0.5076
   53MOL   H14727291   4.230   6.672   4.938 -1.1822 -2.6413 -0.8617
   53MOL   H14827292   4.340   6.531   4.974  0.0349  0.4942  0.0624
   53MOL   H14927293   4.346   6.618   5.200  0.2955  0.3715 -0.5320
   53MOL   H15027294   4.431   7.146   5.406 -1.5525 -0.3986 -0.1729
   53MOL   H15127295   4.574   6.998   5.575 -0.6189 -0.8197 -0.0108
   53MOL   H15227296   4.565   6.756   5.553 -1.0118 -0.7240  1.5205
   53MOL   H15327297   4.444   6.655   5.373  3.4295 -0.2180  0.2659
   53MOL   H15427298   4.099   6.844   4.973 -0.4310  0.8458 -1.7679
   53MOL   H15527299   3.991   7.064   4.943  0.6739 -0.4479  0.2719
   53MOL   H15627300   4.065   7.264   5.074 -2.0004 -0.8401  1.1954
   53MOL   H15727301   4.235   7.239   5.245 -0.2675  2.0435 -2.0082
   53MOL   C15827302   4.135   6.605   5.170  0.2258  0.3666  0.0869
   53MOL   C15927303   4.134   6.451   5.177  0.2389  0.2895  0.5167
   53MOL   N16027304   4.224   6.395   5.283 -0.2364 -0.0038  0.0979
   53MOL   C16127305   4.352   6.335   5.261 -0.6650  0.0519 -0.1530
   53MOL   C16227306   4.408   6.299   5.386 -0.2611  0.0426 -0.3494
   53MOL   C16327307   4.533   6.226   5.388 -0.3213  0.3329  0.2530
   53MOL   C16427308   4.599   6.195   5.274  0.3218 -0.1624 -0.2407
   53MOL   C16527309   4.539   6.229   5.153 -0.0898 -0.0869 -0.0824
   53MOL   C16627310   4.421   6.303   5.142 -0.3352 -0.4542  0.5363
   53MOL   C16727311   4.325   6.355   5.487 -0.5759  0.2831  0.0628
   53MOL   C16827312   4.210   6.414   5.423  0.1148 -0.0278 -0.4504
   53MOL   C16927313   4.103   6.467   5.498 -0.2008  0.0480  0.0412
   53MOL   C17027314   4.121   6.472   5.636 -0.1693 -0.1161 -0.9687
   53MOL   C17127315   4.239   6.433   5.703 -0.3832  0.3302 -0.4206
   53MOL   C17227316   4.329   6.358   5.629  0.1693 -0.1777  0.3916
   53MOL   H17327317   4.105   6.639   5.269  3.1702  1.4047  0.6646
   53MOL   H17427318   4.059   6.648   5.105  1.9023  3.0838 -0.1133
   53MOL   H17527319   4.183   6.416   5.086 -1.3628 -0.1127 -0.1931
   53MOL   H17627320   4.578   6.202   5.483  0.2389  1.0150  0.1664
   53MOL   H17727321   4.690   6.138   5.288  0.9282  1.1253  1.2403
   53MOL   H17827322   4.597   6.208   5.064 -0.5113  0.0673 -0.3945
   53MOL   H17927323   4.384   6.326   5.043  0.2890  1.3760  0.7048
   53MOL   H18027324   4.008   6.502   5.458  0.4277 -0.3507 -1.8757
   53MOL   H18127325   4.045   6.520   5.695 -0.7031 -0.4911 -1.3498
   53MOL   H18227326   4.247   6.429   5.811  1.2990 -0.7227 -0.5632
   53MOL   H18327327   4.410   6.303   5.675  0.2468 -1.1748 -0.9120
   53MOL   C18427328   4.000   6.379   5.179 -0.1242 -0.3265 -0.1614
   53MOL   C18527329   3.891   6.390   5.063  0.2631  0.3995 -0.6031
   53MOL   N18627330   3.960   6.418   4.932  0.2132 -0.7507 -0.4287
   53MOL   C18727331   3.946   6.539   4.856  1.4115  0.3368 -0.0491
   53MOL   C18827332   4.050   6.550   4.762  0.0255 -0.3521 -1.2247
   53MOL   C18927333   4.056   6.674   4.696  0.4510 -0.2514 -0.0682
   53MOL   C19027334   3.958   6.772   4.704 -0.1295 -0.1805 -0.4836
   53MOL   C19127335   3.844   6.750   4.784 -0.3020  0.4072 -0.1473
   53MOL   C19227336   3.840   6.633   4.854 -0.4986 -0.3589 -0.9435
   53MOL   C19327337   4.122   6.432   4.766  0.2289  0.2236  0.3437
   53MOL   C19427338   4.063   6.349   4.869  0.2410  0.3217  0.2028
   53MOL   C19527339   4.118   6.219   4.896 -0.3328 -0.2540  0.6473
   53MOL   C19627340   4.236   6.170   4.826 -0.1758  0.8945 -0.0007
   53MOL   C19727341   4.289   6.259   4.735 -0.2977 -0.2319  0.2418
   53MOL   C19827342   4.237   6.387   4.699  0.3375  0.1371 -0.3677
   53MOL   H19927343   4.030   6.274   5.188 -0.6479 -0.4856 -0.2081
   53MOL   H20027344   3.954   6.394   5.277  1.8266 -2.3113  1.0972
   53MOL   H20127345   3.830   6.477   5.088 -0.6711 -0.7819  1.3955
   53MOL   H20227346   4.128   6.699   4.620  0.3031 -2.1084 -0.8313
   53MOL   H20327347   3.966   6.856   4.637  1.2132  1.8704  2.1691
   53MOL   H20427348   3.766   6.823   4.802  0.3267  1.3172 -1.0806
   53MOL   H20527349   3.762   6.621   4.929  1.6118  1.5741  1.6822
   53MOL   H20627350   4.070   6.163   4.974 -2.0739  0.0595 -0.1726
   53MOL   H20727351   4.285   6.077   4.850 -1.4195  0.5929  1.4603
   53MOL   H20827352   4.387   6.235   4.697 -0.6397 -0.0760 -0.7555
   53MOL   H20927353   4.291   6.441   4.623 -1.7367 -1.0398 -2.7800
   53MOL   C21027354   3.794   6.266   5.057  0.9251  0.7423 -0.7543
   53MOL   C21127355   3.713   6.232   5.181  0.2530  0.2773 -0.4608
   53MOL   N21227356   3.608   6.335   5.218  0.0898  0.5852 -0.2053
   53MOL   C21327357   3.597   6.393   5.347  0.3279 -0.4943 -1.2562
   53MOL   C21427358   3.477   6.465   5.352 -0.0270 -0.1485  0.1332
   53MOL   C21527359   3.442   6.524   5.475 -0.1909  0.6364  0.1433
   53MOL   C21627360   3.518   6.521   5.583  0.0470  0.0670  0.2051
   53MOL   C21727361   3.646   6.464   5.580  0.9234  0.4207 -0.2947
   53MOL   C21827362   3.684   6.394   5.466 -0.1542 -0.1696 -0.1040
   53MOL   C21927363   3.408   6.460   5.224  0.2787 -0.2927 -1.0843
   53MOL   C22027364   3.494   6.375   5.152 -0.1212  0.1913  0.4074
   53MOL   C22127365   3.463   6.337   5.022  0.0560 -0.2802 -0.6276
   53MOL   C22227366   3.347   6.383   4.955  0.1986 -0.2109  1.1191
   53MOL   C22327367   3.255   6.455   5.033  0.0701  1.0743  0.5080
   53MOL   C22427368   3.287   6.504   5.161 -0.9931 -0.1979  0.1066
   53MOL   H22527369   3.719   6.271   4.979 -1.7242 -0.0202  1.6658
   53MOL   H22627370   3.853   6.175   5.040  1.9417  0.5291  3.1757
   53MOL   H22727371   3.786   6.225   5.261  0.2361 -0.3681 -0.4992
   53MOL   H22827372   3.345   6.573   5.472 -1.0850 -1.1522 -0.6040
   53MOL   H22927373   3.498   6.575   5.675  0.2340  0.5741 -0.0496
   53MOL   H23027374   3.711   6.460   5.665 -1.9627  0.9126  2.0192
   53MOL   H23127375   3.781   6.347   5.461 -0.9463 -1.8366 -0.1919
   53MOL   H23227376   3.522   6.271   4.960  0.5420  0.9513 -1.4953
   53MOL   H23327377   3.319   6.364   4.852 -1.0778  0.9089  1.2448
   53MOL   H23427378   3.164   6.481   4.982  0.3972 -0.0522 -0.7037
   53MOL   H23527379   3.205   6.553   5.210 -0.3071  1.9296 -0.7969
   53MOL   C23627380   3.653   6.087   5.176 -0.1605 -0.4323  0.1449
   53MOL   C23727381   3.747   5.969   5.180 -0.3784 -0.4423  0.0496
   53MOL   N23827382   3.885   5.990   5.240  0.9171  0.4188  0.3355
   53MOL   C23927383   4.005   5.949   5.186  0.4961 -0.0127  0.2211
   53MOL   C24027384   4.110   5.978   5.270 -0.3025 -0.4292  0.5522
   53MOL   C24127385   4.241   5.946   5.231 -0.1547  0.1569  0.2823
   53MOL   C24227386   4.267   5.906   5.099 -0.2073  0.8970  0.3110
   53MOL   C24327387   4.161   5.883   5.014 -0.3484  0.6914 -0.2413
   53MOL   C24427388   4.029   5.897   5.058  0.0841  0.8388  0.5840
   53MOL   C24527389   4.055   6.031   5.390  0.1890 -0.4402 -0.5681
   53MOL   C24627390   3.912   6.035   5.370 -0.2585  0.0566 -0.0706
   53MOL   C24727391   3.821   6.078   5.472  0.5763 -0.7548 -0.1943
   53MOL   C24827392   3.883   6.124   5.594  0.0583  0.8126  0.5289
   53MOL   C24927393   4.022   6.123   5.611 -0.1495  0.0882 -0.5286
   53MOL   C25027394   4.106   6.076   5.506  0.3616 -0.2010  0.1413
   53MOL   H25127395   3.597   6.092   5.269  1.8516  0.3124  1.3508
   53MOL   H25227396   3.565   6.078   5.112 -0.0640 -0.9407  0.0804
   53MOL   H25327397   3.755   5.936   5.076 -0.6757  2.2078 -0.8414
   53MOL   H25427398   4.330   5.962   5.290  1.5340  1.0089 -2.3923
   53MOL   H25527399   4.362   5.874   5.059 -1.5477  1.3107 -3.3621
   53MOL   H25627400   4.172   5.846   4.913 -0.0504 -1.2615  0.4892
   53MOL   H25727401   3.948   5.878   4.989 -0.5720  2.7771  0.7761
   53MOL   H25827402   3.713   6.081   5.463  0.5061  2.0567  1.1358
   53MOL   H25927403   3.827   6.147   5.683  2.0771 -2.2762  2.7034
   53MOL   H26027404   4.072   6.156   5.701  0.0513 -1.6789  0.0403
   53MOL   H26127405   4.213   6.076   5.517  0.5370 -1.7406 -1.4063
   53MOL   C26227406   3.681   5.843   5.243 -0.2274  0.1659 -0.1695
   53MOL   C26327407   3.540   5.802   5.202 -0.2565  0.8910  0.4097
   53MOL   N26427408   3.511   5.812   5.061 -1.5495  0.3569  0.2975
   53MOL   C26527409   3.402   5.879   5.000  0.1146  0.1427 -0.0365
   53MOL   C26627410   3.417   5.876   4.861  0.7705  0.4363  0.3630
   53MOL   C26727411   3.323   5.947   4.778  0.9290  0.2776 -0.2097
   53MOL   C26827412   3.217   6.021   4.834 -0.8159  0.4739 -0.2007
   53MOL   C26927413   3.204   6.019   4.975  0.2840  0.1736 -0.0945
   53MOL   C27027414   3.296   5.958   5.056  0.4114  0.1883 -0.6839
   53MOL   C27127415   3.533   5.799   4.833 -0.2962  0.6565 -0.3233
   53MOL   C27227416   3.587   5.754   4.958 -0.2789 -0.3542  0.0495
   53MOL   C27327417   3.696   5.670   4.962 -0.3878 -0.2099  0.0378
   53MOL   C27427418   3.754   5.627   4.837 -0.0041 -0.1479 -0.4512
   53MOL   C27527419   3.698   5.670   4.711  0.8587  0.4984 -0.5687
   53MOL   C27627420   3.587   5.756   4.711 -0.2555  0.0023 -0.0345
   53MOL   H27727421   3.757   5.766   5.227 -2.6999 -2.4708  0.3993
   53MOL   H27827422   3.677   5.875   5.347 -1.0079  1.3696 -0.5607
   53MOL   H27927423   3.479   5.883   5.242 -0.1683  0.6832  0.9730
   53MOL   H28027424   3.335   5.939   4.671 -1.8244 -2.9272 -0.3350
   53MOL   H28127425   3.145   6.058   4.763 -0.1998  0.2661 -0.9458
   53MOL   H28227426   3.126   6.080   5.018  1.8367  2.1172  0.0552
   53MOL   H28327427   3.284   5.978   5.162  0.3664  0.9204 -0.8206
   53MOL   H28427428   3.747   5.639   5.053  1.5875 -3.2341 -1.9975
   53MOL   H28527429   3.844   5.569   4.845  1.4053  1.9346 -1.0366
   53MOL   H28627430   3.744   5.639   4.618  0.0622 -1.3124 -0.3715
   53MOL   H28727431   3.542   5.776   4.615 -0.1670  3.1672  0.5332
   53MOL   C28827432   3.490   5.670   5.260  0.1284 -0.3876  0.0018
   53MOL   C28927433   3.431   5.676   5.401  0.3321 -0.3720  0.2359
   53MOL   N29027434   3.322   5.776   5.408  0.3007  0.4405  0.7243
   53MOL   C29127435   3.339   5.902   5.466  0.3875 -0.3628  0.0110
   53MOL   C29227436   3.218   5.976   5.452  0.6369 -0.7788  0.2975
   53MOL   C29327437   3.205   6.107   5.505  0.1099 -0.8851 -0.0478
   53MOL   C29427438   3.323   6.166   5.565  0.7864 -0.2353 -0.8878
   53MOL   C29527439   3.438   6.086   5.594  0.3533  0.4982  0.3031
   53MOL   C29627440   3.447   5.954   5.543  0.0476 -0.0969  0.7336
   53MOL   C29727441   3.128   5.892   5.378 -0.6417  0.4443  0.6051
   53MOL   C29827442   3.197   5.774   5.348 -0.5438  0.0057  0.3767
   53MOL   C29927443   3.141   5.674   5.265 -0.0247  0.2979 -0.0440
   53MOL   C30027444   3.010   5.698   5.216  0.1155 -0.0860  0.0582
   53MOL   C30127445   2.942   5.819   5.250 -1.0393  0.5036  0.1967
   53MOL   C30227446   2.998   5.916   5.325 -0.4385 -0.1371 -0.3137
   53MOL   H30327447   3.411   5.628   5.198 -0.7320  0.7078  0.3404
   53MOL   H30427448   3.572   5.599   5.245  1.3624  0.7270  1.2931
   53MOL   H30527449   3.515   5.709   5.463 -0.9695  1.8690  0.8720
   53MOL   H30627450   3.114   6.162   5.490  0.4830 -0.4978 -0.9633
   53MOL   H30727451   3.311   6.268   5.597 -0.9814  0.2112 -2.8592
   53MOL   H30827452   3.519   6.128   5.652  1.2145  0.3427 -0.7921
   53MOL   H30927453   3.532   5.889   5.559 -1.7491 -1.8711  3.4437
   53MOL   H31027454   3.193   5.581   5.247  0.4169  0.0244  2.4249
   53MOL   H31127455   2.955   5.637   5.146  0.6996 -0.2095 -0.2898
   53MOL   H31227456   2.845   5.852   5.216 -1.5820 -0.2966  0.9405
   53MOL   H31327457   2.958   6.015   5.337 -0.0712  0.0166 -0.3557
   53MOL   C31427458   3.381   5.541   5.445 -0.1162 -0.4555  0.3796
   53MOL   C31527459   3.478   5.439   5.518 -0.5203  0.5855  0.0293
   53MOL   N31627460   3.613   5.445   5.457  0.6989  0.6816 -0.1930
   53MOL   C31727461   3.646   5.363   5.349 -0.0412 -0.1207  0.0957
   53MOL   C31827462   3.786   5.386   5.323  0.3887 -0.0118  0.2936
   53MOL   C31927463   3.847   5.305   5.232  0.1390 -0.6454  0.6443
   53MOL   C32027464   3.775   5.222   5.152  0.0544  0.6789 -0.2741
   53MOL   C32127465   3.642   5.193   5.184  0.0806 -1.1175 -0.4022
   53MOL   C32227466   3.576   5.264   5.284 -0.0076  0.5370  0.3667
   53MOL   C32327467   3.827   5.499   5.398  0.2423 -0.2519 -0.2464
   53MOL   C32427468   3.721   5.527   5.485  0.0813 -0.3779  0.2181
   53MOL   C32527469   3.737   5.634   5.574 -0.0987 -0.0129  0.0445
   53MOL   C32627470   3.855   5.705   5.589  0.3977 -0.4385 -0.2892
   53MOL   C32727471   3.950   5.695   5.484 -0.0187  0.4592 -0.2237
   53MOL   C32827472   3.938   5.584   5.395 -0.4948  1.3014  0.5960
   53MOL   H32927473   3.296   5.563   5.510  0.1603 -1.3712  1.0606
   53MOL   H33027474   3.344   5.482   5.361  1.1121 -1.4774  0.5412
   53MOL   H33127475   3.442   5.337   5.502  0.6385  0.5586 -2.8013
   53MOL   H33227476   3.951   5.321   5.208 -0.6778  1.8853 -1.3478
   53MOL   H33327477   3.822   5.160   5.077  0.7702  0.4131  0.3921
   53MOL   H33427478   3.586   5.129   5.117  0.2331 -1.0398 -0.6043
   53MOL   H33527479   3.471   5.244   5.303 -0.3350  2.0040  0.1703
   53MOL   H33627480   3.655   5.644   5.644  0.1503 -1.6942  0.6099
   53MOL   H33727481   3.852   5.793   5.651 -0.2587 -0.9915  0.4793
   53MOL   H33827482   4.035   5.762   5.479 -0.5188  1.1158  0.0796
   53MOL   H33927483   4.005   5.551   5.316  0.8173  1.6845  1.5251
   53MOL   C34027484   3.475   5.443   5.673 -0.3443  0.0266 -0.2985
   53MOL   C34127485   3.591   5.370   5.743 -0.0726  0.0957  0.3167
   53MOL   N34227486   3.593   5.392   5.888  0.0192  0.5239  0.3916
   53MOL   C34327487   3.686   5.481   5.956 -0.1271 -0.5639  0.4572
   53MOL   C34427488   3.651   5.476   6.095  0.4256 -0.2741 -0.1504
   53MOL   C34527489   3.727   5.555   6.183  0.0977 -0.1876  0.0023
   53MOL   C34627490   3.833   5.636   6.141  0.3589  0.6281  0.3547
   53MOL   C34727491   3.855   5.643   6.003  0.1703  0.3300 -0.1321
   53MOL   C34827492   3.788   5.560   5.910 -0.5512  0.2758  0.4258
   53MOL   C34927493   3.546   5.383   6.112 -0.6816  0.0624  0.5280
   53MOL   C35027494   3.509   5.335   5.982 -0.3986  0.5193 -0.2611
   53MOL   C35127495   3.401   5.255   5.971  0.4524  0.6868 -0.5931
   53MOL   C35227496   3.333   5.204   6.082 -0.7286  0.0427  0.1618
   53MOL   C35327497   3.366   5.244   6.210 -0.3336 -0.0498  0.2537
   53MOL   C35427498   3.477   5.335   6.228  0.2259  1.0414  0.0231
   53MOL   H35527499   3.470   5.548   5.701  0.3021  0.0532 -0.2740
   53MOL   H35627500   3.377   5.411   5.709  0.3919 -1.5350  0.3543
   53MOL   H35727501   3.687   5.412   5.714 -0.8747  3.2368  2.0539
   53MOL   H35827502   3.712   5.558   6.290  0.1108  0.5374 -0.0113
   53MOL   H35927503   3.894   5.691   6.211  0.8968 -0.3235  0.6368
   53MOL   H36027504   3.925   5.716   5.966 -1.6180  1.2389 -1.8415
   53MOL   H36127505   3.814   5.552   5.806  0.0564 -0.9905  0.6627
   53MOL   H36227506   3.372   5.208   5.878 -0.4041 -0.8487  0.4477
   53MOL   H36327507   3.258   5.128   6.066  0.3759 -1.0480  0.1215
   53MOL   H36427508   3.316   5.200   6.295  0.6183 -0.7839  0.4344
   53MOL   H36527509   3.495   5.370   6.329  0.0375 -1.9595  1.1422
   53MOL   C36627510   3.609   5.228   5.703  0.2325 -0.3647  0.3760
   53MOL   C36727511   3.709   5.151   5.790 -0.3311  0.9050 -0.8227
   53MOL   N36827512   3.708   5.006   5.768 -0.1741 -0.1028  0.3791
   53MOL   C36927513   3.660   4.907   5.862 -0.4635  0.4211 -0.0003
   53MOL   C37027514   3.687   4.775   5.804 -1.3508 -0.0432 -0.2614
   53MOL   C37127515   3.663   4.655   5.886 -0.2402 -0.1265  0.5647
   53MOL   C37227516   3.618   4.674   6.015 -1.0429  0.1180  0.3588
   53MOL   C37327517   3.580   4.800   6.063  1.1228 -0.9704  0.5279
   53MOL   C37427518   3.608   4.918   5.991  0.2052  0.4147 -0.0106
   53MOL   C37527519   3.735   4.796   5.672  0.2668  0.7419  0.0656
   53MOL   C37627520   3.745   4.935   5.652 -0.2074  0.4787  0.3030
   53MOL   C37727521   3.793   4.982   5.531 -0.2020 -0.1160  0.5187
   53MOL   C37827522   3.823   4.899   5.423  0.4583  0.2420  0.1528
   53MOL   C37927523   3.802   4.761   5.438 -0.0629 -0.5741 -0.6403
   53MOL   C38027524   3.767   4.707   5.568  0.3192 -0.2160  0.4319
   53MOL   H38127525   3.519   5.166   5.710  2.2618 -3.4789  0.1573
   53MOL   H38227526   3.640   5.226   5.599 -1.2049 -0.2736 -0.0584
   53MOL   H38327527   3.672   5.170   5.891  0.6575 -0.1108 -0.2590
   53MOL   H38427528   3.670   4.560   5.837  0.6406  0.3899 -0.3344
   53MOL   H38527529   3.604   4.595   6.087 -0.3273 -1.1909 -0.9117
   53MOL   H38627530   3.520   4.807   6.153  0.7605  1.7329  0.1162
   53MOL   H38727531   3.579   5.011   6.036  2.5994  1.2737 -0.1549
   53MOL   H38827532   3.806   5.088   5.511  0.5358 -0.3409 -0.1973
   53MOL   H38927533   3.856   4.939   5.329  0.0114  0.0571 -0.0808
   53MOL   H39027534   3.830   4.700   5.353  1.0590  1.0465 -1.4678
   53MOL   H39127535   3.756   4.600   5.575 -2.0351 -0.0934 -0.8170
   53MOL   C39227536   3.860   5.188   5.779  0.3685  0.1952 -0.1132
   53MOL   C39327537   3.956   5.133   5.892  0.4390  0.1125 -0.4094
   53MOL   N39427538   4.098   5.166   5.881  0.5732 -0.0264  0.3645
   53MOL   C39527539   4.197   5.080   5.831 -0.3511  0.2867 -0.3902
   53MOL   C39627540   4.315   5.146   5.816  0.6441  0.0252 -0.2462
   53MOL   C39727541   4.430   5.067   5.774 -0.5082  0.0907 -0.3701
   53MOL   C39827542   4.422   4.934   5.725  0.4735  0.6263  0.3057
   53MOL   C39927543   4.291   4.872   5.742 -0.0342  0.3864 -0.4913
   53MOL   C40027544   4.178   4.945   5.788 -0.4307  0.3429 -0.2722
   53MOL   C40127545   4.296   5.275   5.863 -0.1974  0.2627 -0.7536
   53MOL   C40227546   4.159   5.295   5.896  0.1647  0.5699 -0.1074
   53MOL   C40327547   4.115   5.420   5.940  0.2601  0.5207  0.3420
   53MOL   C40427548   4.206   5.520   5.964  0.1429  0.3875 -0.3577
   53MOL   C40527549   4.341   5.500   5.928 -0.1360 -0.2146  0.4093
   53MOL   C40627550   4.389   5.378   5.882 -0.0226  0.1205  0.1790
   53MOL   H40727551   3.901   5.169   5.680  0.6203  2.2774 -0.4292
   53MOL   H40827552   3.867   5.296   5.793 -0.8522  0.3310 -0.5244
   53MOL   H40927553   3.943   5.027   5.871  1.5209 -0.1028 -0.0342
   53MOL   H41027554   4.530   5.107   5.777 -1.0669  1.5097 -0.3394
   53MOL   H41127555   4.506   4.879   5.684  0.4863  0.2179  0.8676
   53MOL   H41227556   4.266   4.774   5.704 -0.7277 -0.1822  1.4102
   53MOL   H41327557   4.088   4.886   5.783 -0.0072 -0.3819  0.4592
   53MOL   H41427558   4.011   5.443   5.962 -0.8171 -1.3907 -2.5264
   53MOL   H41527559   4.166   5.612   6.003 -1.1233 -1.2485  2.3284
   53MOL   H41627560   4.405   5.585   5.950  1.1868 -1.3560  1.0277
   53MOL   H41727561   4.494   5.365   5.858 -0.1645 -1.7437  0.5497
   53MOL   C41827562   3.897   5.157   6.044 -0.2211 -0.8578  0.4054
   53MOL   C41927563   3.991   5.137   6.165 -0.7471  0.8120 -0.1773
   53MOL   N42027564   3.931   5.174   6.293  0.6455 -0.0006 -0.2794
   53MOL   C42127565   3.954   5.290   6.364 -0.0748  0.0501  0.1022
   53MOL   C42227566   3.881   5.296   6.492 -0.7168  0.1791  0.7759
   53MOL   C42327567   3.904   5.401   6.583 -0.1845 -0.7282  0.0332
   53MOL   C42427568   3.986   5.502   6.540 -0.5554 -0.1087  0.4312
   53MOL   C42527569   4.057   5.508   6.420 -0.2392  0.1429 -0.3698
   53MOL   C42627570   4.040   5.401   6.327  0.1644  0.3704  0.5655
   53MOL   C42727571   3.804   5.181   6.493  0.2830 -0.3252  0.3010
   53MOL   C42827572   3.832   5.105   6.371  0.1291 -0.0439 -0.2954
   53MOL   C42927573   3.764   4.989   6.349 -0.6887 -0.0044 -0.2807
   53MOL   C43027574   3.666   4.945   6.440  0.6367 -0.3092  0.1990
   53MOL   C43127575   3.643   5.009   6.565 -0.1822  0.2128  0.1778
   53MOL   C43227576   3.714   5.126   6.590  0.2684 -0.2120 -0.4638
   53MOL   H43327577   3.864   5.260   6.057 -0.7309 -0.9822  0.0961
   53MOL   H43427578   3.804   5.103   6.060 -1.2448  1.2122  1.6545
   53MOL   H43527579   4.072   5.207   6.148 -2.0465  2.4451  0.2366
   53MOL   H43627580   3.862   5.402   6.682  1.3304  1.7988  0.6785
   53MOL   H43727581   4.011   5.580   6.610 -1.4943  0.2146  0.4163
   53MOL   H43827582   4.125   5.586   6.390 -2.2398  2.0296 -0.1317
   53MOL   H43927583   4.097   5.414   6.236 -0.4891 -0.3173  0.0445
   53MOL   H44027584   3.792   4.932   6.263  0.9308  0.5358 -0.1162
   53MOL   H44127585   3.617   4.849   6.433 -1.5390  0.8997 -1.7840
   53MOL   H44227586   3.575   4.962   6.634  0.4994 -3.6135 -1.6128
   53MOL   H44327587   3.686   5.184   6.676  1.8781  1.5969 -1.1069
   53MOL   C44427588   4.054   4.996   6.167  0.2574 -0.6808 -0.8329
   53MOL   C44527589   4.168   4.987   6.276  0.2653 -0.4644 -0.4020
   53MOL   N44627590   4.207   4.837   6.282 -0.4538 -0.6487 -0.4610
   53MOL   C44727591   4.164   4.749   6.382 -0.1607  0.8054 -0.2239
   53MOL   C44827592   4.229   4.622   6.367  0.4979  0.1929  0.6396
   53MOL   C44927593   4.216   4.521   6.463  0.1010  0.1722 -0.0465
   53MOL   C45027594   4.125   4.542   6.569  1.0036 -0.2440  0.0999
   53MOL   C45127595   4.055   4.667   6.585 -0.1298 -0.5244  0.2508
   53MOL   C45227596   4.084   4.775   6.493 -0.3450  0.1046 -0.4939
   53MOL   C45327597   4.300   4.632   6.240 -0.2921 -0.0157  0.6114
   53MOL   C45427598   4.290   4.772   6.192 -0.3790  0.0683 -0.1450
   53MOL   C45527599   4.360   4.812   6.076 -0.6874 -0.1985 -0.8641
   53MOL   C45627600   4.441   4.720   6.009  0.4049  0.4270 -0.2508
   53MOL   C45727601   4.450   4.586   6.053  0.0467  0.1275 -0.1235
   53MOL   C45827602   4.381   4.539   6.168  0.5047 -0.2651 -0.5234
   53MOL   H45927603   3.982   4.915   6.171 -0.0821 -0.3140  1.0681
   53MOL   H46027604   4.099   4.977   6.069  0.4784  1.2376 -1.1249
   53MOL   H46127605   4.119   5.005   6.372  0.3916 -0.2524 -0.3782
   53MOL   H46227606   4.269   4.427   6.466 -1.6651 -0.8096  1.5459
   53MOL   H46327607   4.105   4.463   6.639  1.5253  1.2061  1.9510
   53MOL   H46427608   3.973   4.679   6.654  0.0402  0.8908  0.2188
   53MOL   H46527609   4.031   4.866   6.514 -1.3478 -0.8839  1.4558
   53MOL   H46627610   4.368   4.912   6.036 -0.9185  1.3028  2.6886
   53MOL   H46727611   4.492   4.764   5.925 -0.0676 -0.5065 -1.0448
   53MOL   H46827612   4.515   4.514   6.005  0.3789  0.1942  0.2274
   53MOL   H46927613   4.391   4.435   6.192 -0.3919 -0.4937 -1.1351
   53MOL   C47027614   4.286   5.089   6.284  0.1284  0.3877 -0.3841
   53MOL   C47127615   4.412   5.050   6.358  0.3098  0.7246  0.7888
   53MOL   N47227616   4.529   5.126   6.306 -0.4462 -0.2972 -0.1575
   53MOL   C47327617   4.651   5.071   6.276 -0.2104 -0.4230  0.0281
   53MOL   C47427618   4.741   5.174   6.230  0.1198 -0.0492 -0.3229
   53MOL   C47527619   4.872   5.132   6.183  0.0563 -0.0627  0.5663
   53MOL   C47627620   4.912   4.996   6.181 -0.1646  0.8573  0.2683
   53MOL   C47727621   4.821   4.900   6.228  0.8392  0.2906  0.3760
   53MOL   C47827622   4.693   4.935   6.276  0.0200 -0.0541  0.8200
   53MOL   C47927623   4.663   5.297   6.240 -0.0102  1.1080  0.5691
   53MOL   C48027624   4.534   5.264   6.281  0.0109  1.2230 -0.0877
   53MOL   C48127625   4.428   5.361   6.279 -0.1647  0.3695 -0.1655
   53MOL   C48227626   4.458   5.492   6.238  0.8342  0.0794 -0.6365
   53MOL   C48327627   4.590   5.529   6.213  0.0580 -0.0314 -0.4798
   53MOL   C48427628   4.691   5.431   6.217 -0.2087  0.4591  0.3484
   53MOL   H48527629   4.313   5.111   6.181  0.4068 -1.7717 -0.7802
   53MOL   H48627630   4.245   5.182   6.324 -1.1315  0.7693 -2.4719
   53MOL   H48727631   4.435   4.950   6.320  0.2527  0.8851  0.3256
   53MOL   H48827632   4.930   5.199   6.122 -0.0961 -1.7588 -1.5191
   53MOL   H48927633   5.012   4.969   6.149 -0.9780  1.0983 -2.6487
   53MOL   H49027634   4.854   4.797   6.235  0.6161  0.1686 -0.3363
   53MOL   H49127635   4.626   4.855   6.306  0.3519 -0.2062  1.1575
   53MOL   H49227636   4.322   5.345   6.289 -0.2903 -0.4828 -2.4587
   53MOL   H49327637   4.375   5.561   6.231 -0.6478 -1.3506  1.8676
   53MOL   H49427638   4.616   5.633   6.200  1.2845  0.1155  2.7575
   53MOL   H49527639   4.795   5.443   6.187 -0.0661 -0.2067  0.5729
   53MOL   C49627640   4.408   5.050   6.510 -0.0514  0.0137 -0.2848
   53MOL   C49727641   4.440   5.180   6.589  0.4945  0.7984  0.3498
   53MOL   N49827642   4.422   5.173   6.730 -0.2589  0.2778 -0.9057
   53MOL   C49927643   4.302   5.196   6.794  0.5777  0.2032 -0.1704
   53MOL   C50027644   4.324   5.173   6.933  0.2004  0.0031 -0.6150
   53MOL   C50127645   4.215   5.176   7.017  0.5848 -0.2402 -0.8214
   53MOL   C50227646   4.090   5.207   6.968 -0.7726  0.3959  0.3143
   53MOL   C50327647   4.065   5.229   6.833  0.1217 -0.4169  0.5249
   53MOL   C50427648   4.178   5.233   6.747 -0.0261 -0.4749  0.6749
   53MOL   C50527649   4.460   5.134   6.952  0.3148 -0.1405  0.5430
   53MOL   C50627650   4.522   5.144   6.826  0.3026 -1.3230  0.5506
   53MOL   C50727651   4.658   5.125   6.804 -0.1644  0.2403 -0.0476
   53MOL   C50827652   4.740   5.089   6.912 -0.3358  0.2895 -0.5238
   53MOL   C50927653   4.681   5.071   7.038 -0.2569  0.0309 -0.1830
   53MOL   C51027654   4.540   5.093   7.056 -0.6611  1.4970  0.2591
   53MOL   H51127655   4.310   5.018   6.546  0.1754 -0.5599 -0.1736
   53MOL   H51227656   4.467   4.964   6.541 -0.5458  0.5817  2.3274
   53MOL   H51327657   4.365   5.247   6.548 -1.2568 -1.5826 -0.5007
   53MOL   H51427658   4.229   5.170   7.124 -0.9205 -1.5289 -0.6841
   53MOL   H51527659   4.011   5.217   7.041 -0.6734  0.9596  0.3469
   53MOL   H51627660   3.964   5.247   6.800  0.2034 -0.4568  0.2532
   53MOL   H51727661   4.152   5.237   6.642 -0.1004  2.4724  0.7637
   53MOL   H51827662   4.713   5.149   6.714  0.6407 -1.0320  0.0815
   53MOL   H51927663   4.847   5.086   6.898 -0.3892 -1.1235 -0.7013
   53MOL   H52027664   4.741   5.039   7.122 -0.9950 -0.7830  0.0392
   53MOL   H52127665   4.494   5.066   7.150 -0.6429 -3.9043 -1.0904
   53MOL   H52227666   4.538   5.222   6.568  0.6116  0.8781  1.0623
   54MOL     C127667   1.629   1.604   7.626  0.5986 -0.6363 -0.2679
   54MOL     C227668   1.512   1.512   7.650  0.0626  0.3716  0.3221
   54MOL     N327669   1.385   1.544   7.578 -0.1341  0.5791  0.7952
   54MOL     C427670   1.257   1.523   7.630  0.7062  0.0818  0.5758
   54MOL     C527671   1.165   1.550   7.523 -0.0919 -0.5589 -0.9042
   54MOL     C627672   1.031   1.524   7.547  0.1326 -0.2394 -0.5554
   54MOL     C727673   0.985   1.483   7.673  0.5263  0.3749  0.2208
   54MOL     C827674   1.075   1.460   7.778  0.1725  0.1732 -0.8935
   54MOL     C927675   1.212   1.469   7.757 -0.2075 -0.1946 -0.5479
   54MOL    C1027676   1.236   1.608   7.411 -0.0409  0.6197 -0.1075
   54MOL    C1127677   1.373   1.602   7.445 -0.0369 -0.1637 -0.4610
   54MOL    C1227678   1.467   1.644   7.345  0.0916 -0.5276  0.3295
   54MOL    C1327679   1.419   1.682   7.218 -0.3160 -1.0415 -0.0954
   54MOL    C1427680   1.278   1.693   7.186 -0.2483 -0.0948  0.0112
   54MOL    C1527681   1.191   1.645   7.283  0.5223  0.0174  0.3192
   54MOL    H1627682   1.682   1.588   7.532 -0.4445  0.6562 -1.0932
   54MOL    H1727683   1.702   1.571   7.700  0.0906 -1.4509 -0.1350
   54MOL    H1827684   1.473   1.543   7.748  2.7092 -1.6045  2.0599
   54MOL    H1927685   0.957   1.539   7.469 -2.2699  1.5082  1.9639
   54MOL    H2027686   0.879   1.469   7.689  0.8083  1.1633  3.0544
   54MOL    H2127687   1.044   1.447   7.881  0.7565  0.6280 -0.6575
   54MOL    H2227688   1.271   1.435   7.841 -1.5205 -1.2889 -0.0598
   54MOL    H2327689   1.573   1.634   7.363  0.1268 -1.0951 -0.2050
   54MOL    H2427690   1.490   1.707   7.140  0.6397 -0.0152  1.0788
   54MOL    H2527691   1.250   1.737   7.091 -1.6340 -2.2684 -0.6219
   54MOL    H2627692   1.086   1.658   7.262  0.3956 -2.4395 -0.8383
   54MOL    H2727693   1.608   1.711   7.620 -1.3215 -1.1112 -3.3071
   54MOL    C2827694   1.542   1.364   7.662 -0.2041  0.0751 -0.4269
   54MOL    C2927695   1.567   1.273   7.538  0.7875 -0.3164  0.2487
   54MOL    N3027696   1.682   1.316   7.457  0.1062  0.0499 -0.0268
   54MOL    C3127697   1.675   1.377   7.333  0.7113 -0.4904 -0.4024
   54MOL    C3227698   1.806   1.410   7.287  0.1439  0.2895 -0.6919
   54MOL    C3327699   1.821   1.458   7.163  0.3999 -0.4634  0.0051
   54MOL    C3427700   1.712   1.468   7.072 -0.5672 -0.1580  0.7079
   54MOL    C3527701   1.583   1.434   7.113  1.2378 -1.5807  0.5421
   54MOL    C3627702   1.567   1.390   7.247  0.0027 -0.0178  0.2433
   54MOL    C3727703   1.893   1.370   7.395  0.4172 -0.2645 -0.1086
   54MOL    C3827704   1.814   1.314   7.496  0.2893  0.0157 -0.4067
   54MOL    C3927705   1.876   1.260   7.616  0.2953 -0.4794  0.7278
   54MOL    C4027706   2.015   1.258   7.619 -0.2639  0.0290 -0.0264
   54MOL    C4127707   2.092   1.324   7.520  0.0877 -0.4086 -0.4297
   54MOL    C4227708   2.028   1.372   7.407 -0.0083 -0.0205 -0.1596
   54MOL    H4327709   1.620   1.361   7.737 -2.2219  0.8624  1.7690
   54MOL    H4427710   1.458   1.316   7.714 -0.8863 -0.7009 -2.1955
   54MOL    H4527711   1.475   1.289   7.482 -0.6503  2.2090  3.1568
   54MOL    H4627712   1.915   1.491   7.121  0.6396 -0.7513  0.3243
   54MOL    H4727713   1.732   1.504   6.972 -0.7011 -0.5873  0.5264
   54MOL    H4827714   1.501   1.428   7.043  0.2605 -1.8230  1.6998
   54MOL    H4927715   1.468   1.371   7.288  0.0399 -0.5136  0.1061
   54MOL    H5027716   1.811   1.223   7.694 -0.2410 -0.2656  0.3858
   54MOL    H5127717   2.063   1.225   7.709  1.7875  1.2744 -0.6377
   54MOL    H5227718   2.200   1.331   7.529  0.2686 -3.0880 -0.0686
   54MOL    H5327719   2.097   1.406   7.331 -1.3666 -0.3086 -1.5579
   54MOL    C5427720   1.568   1.124   7.577  0.0391  0.2158 -0.1848
   54MOL    C5527721   1.488   1.029   7.486  0.7035 -0.1408  0.3557
   54MOL    N5627722   1.526   1.042   7.341 -0.1954 -0.5487 -0.2136
   54MOL    C5727723   1.431   1.040   7.240 -0.2621 -0.3561 -0.0151
   54MOL    C5827724   1.498   1.050   7.111 -0.3286 -0.2451 -0.4457
   54MOL    C5927725   1.422   1.061   6.992  0.1079 -0.6062  0.1705
   54MOL    C6027726   1.279   1.052   6.993  0.2152  0.0426 -0.1789
   54MOL    C6127727   1.214   1.037   7.117  0.5910 -0.6310 -0.4376
   54MOL    C6227728   1.293   1.031   7.238  0.6915  0.2697  0.5551
   54MOL    C6327729   1.635   1.052   7.144  0.5827  0.4013 -0.1076
   54MOL    C6427730   1.653   1.026   7.280 -0.2572 -0.6691  0.5911
   54MOL    C6527731   1.783   0.998   7.329 -0.5082  0.0037  0.2544
   54MOL    C6627732   1.896   0.997   7.249  0.1774 -0.0301  0.0325
   54MOL    C6727733   1.878   1.025   7.114 -0.5155  0.2866 -0.1624
   54MOL    C6827734   1.750   1.061   7.061  0.0699 -0.6816 -0.1750
   54MOL    H6927735   1.663   1.075   7.597 -0.5577 -1.4655 -1.3717
   54MOL    H7027736   1.512   1.115   7.670  0.3433  0.6353  0.0426
   54MOL    H7127737   1.390   1.077   7.489  1.6472  2.0355 -1.9377
   54MOL    H7227738   1.483   1.078   6.905 -0.0955  0.4729  0.2352
   54MOL    H7327739   1.223   1.069   6.903 -0.5582  0.6424  0.4042
   54MOL    H7427740   1.108   1.037   7.135  1.1155  1.8272  3.1829
   54MOL    H7527741   1.234   1.018   7.327 -0.7201 -0.7599 -0.5037
   54MOL    H7627742   1.789   0.965   7.431  0.6950 -2.2117 -0.4966
   54MOL    H7727743   1.990   0.991   7.301  0.8725  2.7397 -0.7802
   54MOL    H7827744   1.969   1.031   7.055  0.3376 -3.0558  0.7125
   54MOL    H7927745   1.741   1.088   6.956  3.3072  0.4488 -0.2271
   54MOL    C8027746   1.495   0.878   7.529  0.3182  0.3532  0.1644
   54MOL    C8127747   1.450   0.848   7.671  0.2487 -0.2931 -0.2712
   54MOL    N8227748   1.335   0.928   7.720 -1.0126 -0.1837 -0.3603
   54MOL    C8327749   1.335   0.999   7.844  0.7442 -0.1156 -0.1723
   54MOL    C8427750   1.216   1.079   7.858  0.4477  1.3702  0.0826
   54MOL    C8527751   1.192   1.157   7.972 -0.0010 -0.8211 -0.6637
   54MOL    C8627752   1.283   1.159   8.079  0.5421  0.1157 -0.9197
   54MOL    C8727753   1.404   1.087   8.067 -0.6910  0.7606  0.0279
   54MOL    C8827754   1.434   1.009   7.952  0.6173  0.2100  0.7721
   54MOL    C8927755   1.142   1.039   7.740 -0.1592 -0.6104  0.4204
   54MOL    C9027756   1.217   0.946   7.662  0.9917  0.8517  0.6103
   54MOL    C9127757   1.165   0.882   7.544  0.0358  0.4560 -0.5168
   54MOL    C9227758   1.037   0.915   7.502 -0.7655 -0.4353  0.4870
   54MOL    C9327759   0.960   1.011   7.574  0.2872 -0.0824 -0.0196
   54MOL    C9427760   1.008   1.067   7.691 -0.8031 -0.9531  0.6538
   54MOL    H9527761   1.432   0.819   7.462 -0.3028 -0.2523  1.2744
   54MOL    H9627762   1.596   0.842   7.512  1.7304  3.3350  1.9084
   54MOL    H9727763   1.537   0.889   7.722  1.0266 -0.1149 -1.7135
   54MOL    H9827764   1.105   1.220   7.975 -1.2530 -2.5433  0.7429
   54MOL    H9927765   1.270   1.224   8.164 -1.1622 -0.1608 -0.9506
   54MOL   H10027766   1.477   1.087   8.147  2.0411 -1.0468 -2.3360
   54MOL   H10127767   1.530   0.959   7.956 -0.1272 -1.5552 -2.0702
   54MOL   H10227768   1.217   0.814   7.479  1.4940  0.2576  0.8406
   54MOL   H10327769   1.003   0.876   7.407 -1.7831 -0.0656  0.6924
   54MOL   H10427770   0.855   1.025   7.552 -0.4311  0.1167  3.3754
   54MOL   H10527771   0.944   1.130   7.750  0.8307  0.3044  1.1081
   54MOL   C10627772   1.446   0.702   7.716  0.6209  0.8149 -0.2125
   54MOL   C10727773   1.589   0.640   7.716  0.3607  0.2034 -0.0511
   54MOL   N10827774   1.666   0.705   7.825 -0.2757 -0.3925 -0.7445
   54MOL   C10927775   1.779   0.783   7.798 -0.0046 -0.6650 -0.5691
   54MOL   C11027776   1.821   0.834   7.925 -0.1875 -0.1336 -0.1840
   54MOL   C11127777   1.932   0.923   7.923  0.1005 -0.4962  0.0976
   54MOL   C11227778   2.001   0.953   7.801  0.3071  0.0185  0.0122
   54MOL   C11327779   1.951   0.913   7.674 -0.2264  0.3930 -0.1838
   54MOL   C11427780   1.846   0.822   7.681  0.0751 -0.0491  0.2402
   54MOL   C11527781   1.740   0.778   8.030 -0.8345  0.1786 -0.6111
   54MOL   C11627782   1.641   0.705   7.958 -0.0668 -0.5414 -0.2328
   54MOL   C11727783   1.546   0.639   8.031  0.6340 -0.3785 -0.2602
   54MOL   C11827784   1.536   0.642   8.170 -0.4982 -0.1348  0.1661
   54MOL   C11927785   1.624   0.730   0.007  0.4996 -0.5122 -0.1000
   54MOL   C12027786   1.738   0.784   8.172 -0.4088  0.2200  0.7258
   54MOL   H12127787   1.412   0.703   7.819  0.1900  1.5217 -0.3618
   54MOL   H12227788   1.373   0.639   7.664  2.2221 -0.2989 -1.1604
   54MOL   H12327789   1.633   0.664   7.620 -0.9994  0.9968 -0.4896
   54MOL   H12427790   1.967   0.950   8.021  0.1208  0.7670 -0.2538
   54MOL   H12527791   2.091   1.013   7.797  0.5670 -0.1998  2.2325
   54MOL   H12627792   2.008   0.941   7.586  1.7972  0.2004  1.0337
   54MOL   H12727793   1.817   0.767   7.592  0.0838 -0.0074  0.2116
   54MOL   H12827794   1.460   0.591   7.986  0.0422  0.5467 -0.1234
   54MOL   H12927795   1.446   0.599   8.210 -0.6460  0.4386  0.4494
   54MOL   H13027796   1.611   0.757   0.111  0.1603 -2.5671  0.4109
   54MOL   H13127797   1.802   0.840   0.010 -1.1770  0.2656  1.4505
   54MOL   C13227798   1.596   0.487   7.719 -0.7347 -0.4720  0.2439
   54MOL   C13327799   1.508   0.396   7.629 -0.4941 -0.4200 -0.2713
   54MOL   N13427800   1.460   0.466   7.505 -0.1244  0.0949 -0.4497
   54MOL   C13527801   1.333   0.484   7.462 -0.0817 -0.4927 -0.1790
   54MOL   C13627802   1.331   0.549   7.336  0.5732  0.7658  0.3459
   54MOL   C13727803   1.210   0.580   7.272 -0.2758 -0.7001  0.1277
   54MOL   C13827804   1.088   0.555   7.338  0.0887 -0.0284 -0.0427
   54MOL   C13927805   1.088   0.491   7.460  0.3559 -0.2207  0.3611
   54MOL   C14027806   1.213   0.459   7.528  0.0781  0.0054 -0.3835
   54MOL   C14127807   1.463   0.576   7.300  0.1664 -0.1615  0.4818
   54MOL   C14227808   1.543   0.520   7.399 -0.7075  0.4651 -1.0768
   54MOL   C14327809   1.686   0.526   7.384  0.1706 -0.0500 -0.2600
   54MOL   C14427810   1.746   0.583   7.271  0.3011 -0.0255  0.2749
   54MOL   C14527811   1.662   0.647   7.177  0.2614 -0.5672 -0.0081
   54MOL   C14627812   1.518   0.651   7.191 -0.2772  0.5239  0.3996
   54MOL   H14727813   1.702   0.461   7.715  0.3050  3.4255  0.0174
   54MOL   H14827814   1.574   0.455   7.821 -1.3774  0.3856  0.3799
   54MOL   H14927815   1.417   0.376   7.686 -0.2376  1.5981  0.8810
   54MOL   H15027816   1.202   0.623   7.173  0.7054 -0.4051  0.1756
   54MOL   H15127817   0.999   0.589   7.287 -0.4928  1.1562  1.7010
   54MOL   H15227818   0.991   0.486   7.508  1.5765  0.4917  3.0211
   54MOL   H15327819   1.207   0.415   7.626  1.9181 -0.6918 -0.5710
   54MOL   H15427820   1.749   0.478   7.457 -1.3660 -2.9234 -0.7088
   54MOL   H15527821   1.854   0.587   7.262  0.2912  0.4671  0.3510
   54MOL   H15627822   1.706   0.697   7.092  0.9730  2.0053  1.7798
   54MOL   H15727823   1.452   0.688   7.114 -2.7956  0.6691  2.5495
   54MOL   C15827824   1.583   0.261   7.591  0.1800  0.3225 -0.2720
   54MOL   C15927825   1.588   0.175   7.722  0.1715  0.7325 -0.0458
   54MOL   N16027826   1.454   0.141   7.762 -0.1314 -0.4819 -0.1127
   54MOL   C16127827   1.400   0.177   7.885  0.7128 -0.2275 -0.5141
   54MOL   C16227828   1.260   0.161   7.878 -0.0570  0.2325 -0.0059
   54MOL   C16327829   1.183   0.210   7.988 -0.3042  0.2160  0.1575
   54MOL   C16427830   1.243   0.270   8.100  0.6162 -0.4402  0.3484
   54MOL   C16527831   1.383   0.285   8.104 -0.7541  0.0992 -0.4564
   54MOL   C16627832   1.459   0.240   7.996 -0.5639 -0.1211  0.0532
   54MOL   C16727833   1.239   0.077   7.758 -0.0318  0.7639 -0.2503
   54MOL   C16827834   1.367   0.065   7.690 -0.4307  0.1338 -0.7785
   54MOL   C16927835   1.378   8.223   7.568 -0.3871  0.2215 -0.3919
   54MOL   C17027836   1.260   8.159   7.517 -0.1702 -0.2369  0.2775
   54MOL   C17127837   1.138   8.166   7.584 -0.2066  0.1130 -0.1165
   54MOL   C17227838   1.125   0.022   7.700 -0.2739  0.6080  0.6705
   54MOL   H17327839   1.528   0.210   7.511  1.2715  2.4008 -2.4311
   54MOL   H17427840   1.679   0.289   7.548 -0.3427  2.6575 -0.0066
   54MOL   H17527841   1.633   0.244   7.792  1.6477  0.5781 -0.8348
   54MOL   H17627842   1.075   0.208   7.992 -0.3577  2.8330  1.3143
   54MOL   H17727843   1.190   0.308   8.186 -0.8488 -0.2592 -0.6360
   54MOL   H17827844   1.432   0.325   8.192  0.5613 -0.9069 -0.7093
   54MOL   H17927845   1.563   0.268   8.001 -1.1018  1.3504  4.5641
   54MOL   H18027846   1.474   0.002   7.517 -0.9887  0.2134 -1.5397
   54MOL   H18127847   1.263   8.120   7.417  0.9675 -1.5349  0.7971
   54MOL   H18227848   1.049   8.117   7.548 -0.5845 -1.1496  2.4338
   54MOL   H18327849   1.031   0.030   7.754 -1.1526  2.6253 -1.0910
   54MOL   C18427850   1.676   0.052   7.723 -0.3574  0.6199  0.6547
   54MOL   C18527851   1.822   0.072   7.690  0.7015  0.3143  0.1588
   54MOL   N18627852   1.877   0.198   7.741 -0.4255 -0.5723 -0.0526
   54MOL   C18727853   1.949   0.294   7.660 -0.5132  0.6212  0.2738
   54MOL   C18827854   1.970   0.407   7.746 -0.5053  0.0924  0.1020
   54MOL   C18927855   2.018   0.533   7.696  0.1790  0.3872 -0.5692
   54MOL   C19027856   2.044   0.540   7.555  0.6518 -0.6520  0.1222
   54MOL   C19127857   2.033   0.425   7.471 -0.1627 -0.2954  0.1123
   54MOL   C19227858   1.984   0.300   7.525 -0.0489  0.3923 -0.3521
   54MOL   C19327859   1.923   0.367   7.877 -0.2128 -0.1761 -0.4575
   54MOL   C19427860   1.879   0.233   7.873 -0.1745  0.7432 -0.4787
   54MOL   C19527861   1.834   0.163   7.987 -0.0661  0.3044 -0.0151
   54MOL   C19627862   1.817   0.232   8.108  0.1675  0.6707  0.9564
   54MOL   C19727863   1.869   0.363   8.121  0.0029 -0.1599 -0.6138
   54MOL   C19827864   1.918   0.429   8.003 -0.0506 -0.2275 -0.0890
   54MOL   H19927865   1.670   0.005   7.822 -0.2488  0.7481  0.7216
   54MOL   H20027866   1.631   8.201   7.662  1.1856  2.6605 -3.2126
   54MOL   H20127867   1.831   0.068   7.582 -1.2150 -1.6689  0.0403
   54MOL   H20227868   2.028   0.616   7.766 -0.4756  0.2043 -0.2600
   54MOL   H20327869   2.071   0.637   7.517 -0.9493 -0.4476 -0.5549
   54MOL   H20427870   2.056   0.438   7.366 -2.3192 -0.4764 -0.3990
   54MOL   H20527871   1.976   0.214   7.461 -0.2295  0.0761  0.0939
   54MOL   H20627872   1.781   0.070   7.983 -2.8079  1.8902 -2.0401
   54MOL   H20727873   1.761   0.198   8.194 -0.6325 -1.9959 -0.5668
   54MOL   H20827874   1.852   0.421   8.210  0.5557  1.2752 -1.4191
   54MOL   H20927875   1.937   0.535   8.015 -0.1330 -0.0563 -1.4108
   54MOL   C21027876   1.912   8.184   7.733 -0.0554  0.3556  0.2741
   54MOL   C21127877   1.867   8.047   7.677  0.1578  0.1050 -0.4199
   54MOL   N21227878   1.834   8.055   7.538 -0.7751 -0.1857 -0.4898
   54MOL   C21327879   1.716   8.018   7.484  0.6321  0.1146  0.2882
   54MOL   C21427880   1.717   8.041   7.345  0.1291 -0.0143 -0.3660
   54MOL   C21527881   1.599   8.003   7.268  0.7147  0.0999  0.0373
   54MOL   C21627882   1.484   7.949   7.334 -0.3549 -0.1640 -0.0042
   54MOL   C21727883   1.489   7.914   7.474 -0.7351 -0.1318  0.4409
   54MOL   C21827884   1.608   7.951   7.549  0.0732  0.0790  0.2229
   54MOL   C21927885   1.840   8.101   7.314  0.2486  0.7380 -1.0007
   54MOL   C22027886   1.913   8.111   7.433  0.2747 -0.0194 -0.7580
   54MOL   C22127887   2.046   8.166   7.424 -0.2154 -0.2657  0.0873
   54MOL   C22227888   2.102   8.202   7.303 -0.3184  0.2608 -0.5139
   54MOL   C22327889   2.026   8.192   7.187  0.2166  1.0439  0.4895
   54MOL   C22427890   1.893   8.145   7.188  0.5013 -0.1769 -0.1540
   54MOL   H22527891   2.011   8.218   7.703  0.6253 -1.5410  0.2561
   54MOL   H22627892   1.915   8.186   7.842  2.3920  0.0936  0.2376
   54MOL   H22727893   1.778   8.018   7.732  1.2355  0.0570  1.3300
   54MOL   H22827894   1.589   8.033   7.165 -0.0520  0.4049  0.2006
   54MOL   H22927895   1.401   7.921   7.272  1.6667 -0.6940 -2.5555
   54MOL   H23027896   1.399   7.876   7.519  0.7091 -3.1748  0.8418
   54MOL   H23127897   1.601   7.945   7.657  1.1219  1.8228  0.4060
   54MOL   H23227898   2.100   8.168   7.518 -0.6367 -3.4253  0.4580
   54MOL   H23327899   2.202   0.012   7.287  0.0926 -0.9118 -0.7850
   54MOL   H23427900   2.068   8.213   7.090  2.2724 -1.3139  0.8105
   54MOL   H23527901   1.837   8.140   7.096  1.6713  1.1665 -0.9635
   54MOL   C23627902   1.978   7.936   7.691  0.1436  0.4883  0.0305
   54MOL   C23727903   1.998   7.885   7.837 -0.2451  0.4742 -0.0084
   54MOL   N23827904   1.867   7.838   7.886 -0.5519 -0.8177 -0.6464
   54MOL   C23927905   1.793   7.899   7.992  0.2036  0.3979  0.0680
   54MOL   C24027906   1.665   7.823   8.005 -0.5527 -0.0208  0.3049
   54MOL   C24127907   1.574   7.868   8.100  0.2875  0.0447  0.0766
   54MOL   C24227908   1.605   7.973   8.182  0.2447 -0.6608  0.3599
   54MOL   C24327909   1.728   8.036   8.177  0.3540  0.0192  0.5109
   54MOL   C24427910   1.825   8.001   8.085  0.0373 -0.1935 -0.0786
   54MOL   C24527911   1.673   7.710   7.910  0.1247  0.4657 -0.5313
   54MOL   C24627912   1.796   7.730   7.837 -0.0082  0.0861  0.4306
   54MOL   C24727913   1.830   7.637   7.742 -0.5334  0.1592 -0.2018
   54MOL   C24827914   1.749   7.519   7.721  0.0997 -1.1152 -0.2372
   54MOL   C24927915   1.634   7.499   7.795 -0.5180  0.1350 -0.2581
   54MOL   C25027916   1.592   7.597   7.891  0.0456  0.0185  0.2896
   54MOL   H25127917   1.966   7.850   7.626 -2.1528  0.5354  0.3299
   54MOL   H25227918   2.074   7.983   7.671  1.3708 -1.4514  1.2694
   54MOL   H25327919   2.020   7.976   7.892 -2.4591  0.3549  1.1327
   54MOL   H25427920   1.481   7.820   8.124 -0.3013  1.6780  1.0650
   54MOL   H25527921   1.545   7.995   0.041 -0.8500 -0.9528 -0.3196
   54MOL   H25627922   1.760   8.110   0.022  0.1717  0.6444 -0.0404
   54MOL   H25727923   1.919   8.050   8.068  0.2392 -1.3180 -2.4258
   54MOL   H25827924   1.920   7.650   7.684 -0.3314  0.4494  0.1706
   54MOL   H25927925   1.770   7.445   7.646 -0.2238  0.2216 -1.6625
   54MOL   H26027926   1.580   7.409   7.769  0.6375 -0.7764  0.4624
   54MOL   H26127927   1.500   7.587   7.947  0.2753 -2.2831  0.2732
   54MOL   C26227928   2.120   7.785   7.858 -0.2437 -0.5832 -0.5711
   54MOL   C26327929   2.143   7.750   8.010 -0.1713 -0.1219 -0.5901
   54MOL   N26427930   2.234   7.634   8.011  0.1711 -0.1975 -0.0678
   54MOL   C26527931   2.195   7.509   8.062 -0.1194 -0.2517  0.1161
   54MOL   C26627932   2.307   7.425   8.077 -0.6605  0.3323 -1.1468
   54MOL   C26727933   2.284   7.297   8.126 -0.2378 -0.3831  0.4612
   54MOL   C26827934   2.163   7.239   8.155  0.4155 -0.6826 -0.6910
   54MOL   C26927935   2.050   7.327   8.147 -0.2132  0.7229  0.4809
   54MOL   C27027936   2.066   7.459   8.090  0.4187 -0.4361 -0.2638
   54MOL   C27127937   2.421   7.503   8.032  1.2042  0.0896  0.0703
   54MOL   C27227938   2.369   7.633   7.994 -0.7593 -0.3923 -0.2300
   54MOL   C27327939   2.461   7.734   7.960  0.3509 -0.0182 -0.3397
   54MOL   C27427940   2.599   7.711   7.955 -0.2721  0.6714 -0.2364
   54MOL   C27527941   2.644   7.582   7.978 -0.1418  0.4437 -0.7786
   54MOL   C27627942   2.559   7.480   8.014 -0.5754  0.3065 -0.1202
   54MOL   H27727943   2.100   7.690   7.808 -2.8749 -0.1298 -0.4735
   54MOL   H27827944   2.214   7.816   7.811 -0.7616 -0.1199 -1.3237
   54MOL   H27927945   2.054   7.715   8.064 -0.1120  0.7976  0.1297
   54MOL   H28027946   2.375   7.241   8.144  0.7405  1.0708  0.1517
   54MOL   H28127947   2.154   7.138   8.192 -1.3729 -0.9536 -1.7976
   54MOL   H28227948   1.947   7.298   8.162 -0.0565 -0.3903 -0.5854
   54MOL   H28327949   1.981   7.518   8.059  1.3120 -0.0425 -2.0242
   54MOL   H28427950   2.426   7.834   7.940 -0.8834 -0.8116 -2.2425
   54MOL   H28527951   2.666   7.792   7.933  0.5391  0.1396  0.2515
   54MOL   H28627952   2.750   7.571   7.965 -0.1677 -0.4535 -0.2372
   54MOL   H28727953   2.599   7.386   8.049 -3.6865 -0.9772  0.2054
   54MOL   C28827954   2.188   7.866   8.102 -0.0575 -0.2781  0.4662
   54MOL   C28927955   2.248   7.831   0.013 -0.1467  0.0313  0.1315
   54MOL   N29027956   2.293   7.964   0.065  0.1294  0.5989  0.0288
   54MOL   C29127957   2.429   7.999   0.067  0.4069 -0.1590 -0.2179
   54MOL   C29227958   2.440   8.142   0.072 -0.4874  0.2707  0.4680
   54MOL   C29327959   2.570   8.199   0.062  0.3385 -0.9701 -0.0045
   54MOL   C29427960   2.686   8.131   0.034  0.0526  0.9263  1.0996
   54MOL   C29527961   2.677   7.991   0.035 -0.4044  0.6644 -0.0931
   54MOL   C29627962   2.550   7.927   0.044 -0.3756 -0.2127  0.3130
   54MOL   C29727963   2.308   8.192   0.095 -0.2500 -0.5268 -0.5754
   54MOL   C29827964   2.224   8.078   0.096  0.7501  0.0975 -0.0794
   54MOL   C29927965   2.081   8.100   0.106  0.8181 -0.0744  0.2922
   54MOL   C30027966   2.033   0.006   0.119 -0.1867 -0.0014  0.0508
   54MOL   C30127967   2.118   0.119   0.129  0.5005 -0.1622 -0.1526
   54MOL   C30227968   2.254   0.096   0.106 -0.1574 -0.5034 -0.1003
   54MOL   H30327969   2.263   7.920   8.044  0.2066 -1.5322 -0.3618
   54MOL   H30427970   2.103   7.927   8.132  1.9890  2.6410  0.5045
   54MOL   H30527971   2.336   7.767   0.007 -2.2105 -2.8167 -1.1812
   54MOL   H30627972   2.574   0.078   0.082  1.0142 -1.1661  0.9268
   54MOL   H30727973   2.780   8.184   0.032  0.3989  0.2934 -0.0583
   54MOL   H30827974   2.757   7.919   0.024 -1.0436 -0.0312 -0.2514
   54MOL   H30927975   2.546   7.820   0.029 -1.4254 -0.0071 -0.9943
   54MOL   H31027976   2.011   8.021   0.081  1.0134  0.7483 -3.2045
   54MOL   H31127977   1.927   0.008   0.138 -0.3381 -2.0519 -0.5390
   54MOL   H31227978   2.075   0.213   0.161  0.8038 -0.6210  1.6553
   54MOL   H31327979   2.324   0.177   0.093 -1.1037  0.4645  0.8519
   54MOL   C31427980   2.152   7.762   0.107  0.7565 -0.1563 -0.9711
   54MOL   C31527981   2.208   7.637   0.179  0.5308  0.1026  0.5511
   54MOL   N31627982   2.318   7.675   0.264 -0.4775  0.2130 -0.0129
   54MOL   C31727983   2.453   7.646   0.242  0.2012  0.3424 -0.1111
   54MOL   C31827984   2.529   7.706   0.344  0.4281  0.0913  0.2554
   54MOL   C31927985   2.671   7.704   0.333  0.2969 -0.1572 -0.2547
   54MOL   C32027986   2.737   7.614   0.248  0.8039 -0.4433  0.1260
   54MOL   C32127987   2.658   7.549   0.145  0.2941  1.0622  0.0496
   54MOL   C32227988   2.520   7.568   0.145  0.0800 -0.5002  0.2618
   54MOL   C32327989   2.434   7.760   0.439  0.3247 -0.4802 -0.3308
   54MOL   C32427990   2.303   7.739   0.386 -0.8196 -0.4587 -0.5446
   54MOL   C32527991   2.190   7.777   0.453  0.1093 -0.0581  0.4666
   54MOL   C32627992   2.202   7.834   0.577  0.4268  0.0141 -0.7177
   54MOL   C32727993   2.324   7.866   0.633  0.2200 -0.6476 -0.2775
   54MOL   C32827994   2.444   7.825   0.566 -1.0640 -0.3455  0.1086
   54MOL   H32927995   2.107   7.839   0.170 -1.1824 -4.1625  2.7225
   54MOL   H33027996   2.071   7.722   0.046 -0.5945  1.1605 -0.0583
   54MOL   H33127997   2.253   7.569   0.106  0.8597 -0.3990  1.2213
   54MOL   H33227998   2.737   7.760   0.398  0.1472  0.4950 -0.6612
   54MOL   H33327999   2.844   7.611   0.259  0.8065 -2.5020 -0.3497
   54MOL   H33428000   2.709   7.493   0.068 -2.6718  0.7784 -1.7899
   54MOL   H33528001   2.475   7.525   0.057  1.4602 -2.4633  0.4886
   54MOL   H33628002   2.095   7.757   0.405  0.8033  0.9964 -1.4128
   54MOL   H33728003   2.116   7.867   0.635  1.5227  0.1847  0.8394
   54MOL   H33828004   2.332   7.921   0.726 -0.4907  0.9025 -1.1249
   54MOL   H33928005   2.535   7.836   0.622 -0.5938  2.7243 -1.1555
   54MOL   C34028006   2.103   7.546   0.235  0.2451 -0.1160 -0.7181
   54MOL   C34128007   2.147   7.446   0.343  0.0490  0.1712  0.0504
   54MOL   N34228008   2.038   7.377   0.414 -0.1955 -0.5592  0.3201
   54MOL   C34328009   1.998   7.400   0.545  0.5138  0.4640 -0.6182
   54MOL   C34428010   1.890   7.318   0.577  0.2398 -0.2676 -0.4161
   54MOL   C34528011   1.833   7.321   0.708 -0.2305 -0.5590 -0.1324
   54MOL   C34628012   1.885   7.399   0.812  0.0327  0.7306 -0.0331
   54MOL   C34728013   1.998   7.474   0.771 -0.4937 -0.1331 -0.0745
   54MOL   C34828014   2.050   7.487   0.640  0.7951 -0.0717 -0.3138
   54MOL   C34928015   1.849   7.255   0.458 -0.1009  0.0566  0.6577
   54MOL   C35028016   1.946   7.285   0.361  0.3005 -0.3183  0.0698
   54MOL   C35128017   1.939   7.233   0.231 -0.2442  0.1906  0.4032
   54MOL   C35228018   1.841   7.143   0.196 -0.2604  0.3956  0.3830
   54MOL   C35328019   1.746   7.109   0.295  0.5581  0.1591 -0.2165
   54MOL   C35428020   1.749   7.163   0.425 -0.2047 -0.3128  0.0615
   54MOL   H35528021   2.020   7.599   0.282  1.2072 -0.2406  1.2100
   54MOL   H35628022   2.050   7.502   0.152  2.6668  0.4651 -2.6340
   54MOL   H35728023   2.198   7.498   0.424  1.4137 -1.1236  0.0452
   54MOL   H35828024   1.740   7.270   0.722 -1.9730  2.4004 -0.5218
   54MOL   H35928025   1.860   7.393   0.917 -0.1815  0.6007 -0.0923
   54MOL   H36028026   2.054   7.518   0.852  0.2741 -1.4405  0.1197
   54MOL   H36128027   2.125   7.561   0.615  0.9345  0.2665  1.0594
   54MOL   H36228028   2.017   7.257   0.161 -2.2543  0.4588 -1.7968
   54MOL   H36328029   1.852   7.093   0.101 -1.3242 -0.0311  0.4814
   54MOL   H36428030   1.689   7.018   0.281  3.3056 -1.6126 -0.4109
   54MOL   H36528031   1.683   7.126   0.502 -0.2164  0.6971  0.5477
   54MOL   C36628032   2.263   7.353   0.298  0.4473 -0.5585  1.1326
   54MOL   C36728033   2.283   7.226   0.380  0.0887  0.5311 -0.0238
   54MOL   N36828034   2.370   7.130   0.314  0.1666 -0.5151  0.5366
   54MOL   C36928035   2.326   7.001   0.263 -0.2386 -0.1494  0.2398
   54MOL   C37028036   2.444   6.934   0.208 -0.1754  0.5800  0.1026
   54MOL   C37128037   2.434   6.801   0.156 -0.1250  0.3103 -0.3254
   54MOL   C37228038   2.314   6.733   0.166  0.2095 -0.8268  0.1401
   54MOL   C37328039   2.200   6.802   0.213  1.0779  0.6824  0.2004
   54MOL   C37428040   2.204   6.936   0.253  0.6387 -0.8188  0.9231
   54MOL   C37528041   2.556   7.026   0.214 -0.7093  0.4456  0.1624
   54MOL   C37628042   2.506   7.142   0.287  0.3631  0.7273  0.6049
   54MOL   C37728043   2.591   7.252   0.307 -0.5060  0.0890  0.2963
   54MOL   C37828044   2.734   7.238   0.277 -0.4738 -0.1548 -0.0689
   54MOL   C37928045   2.786   7.120   0.223 -0.7677  0.2562 -0.0927
   54MOL   C38028046   2.694   7.020   0.184  0.4693 -0.3004  0.1206
   54MOL   H38128047   2.250   7.323   0.195  0.6568 -0.3604  1.0480
   54MOL   H38228048   2.356   7.407   0.318  0.3319 -0.3251  1.0496
   54MOL   H38328049   2.186   7.176   0.379 -0.6951  2.0058  0.6278
   54MOL   H38428050   2.519   6.739   0.134 -0.4285 -1.1772  2.4209
   54MOL   H38528051   2.308   6.631   0.132 -0.5017 -0.8682  0.3914
   54MOL   H38628052   2.105   6.751   0.202  1.3186  0.1669  0.4958
   54MOL   H38728053   2.117   6.994   0.279  0.2400 -0.6958 -0.6895
   54MOL   H38828054   2.553   7.339   0.357  0.6613  2.0619 -2.1330
   54MOL   H38928055   2.803   7.321   0.293 -0.7915 -0.0635  0.8790
   54MOL   H39028056   2.893   7.108   0.217 -0.6960  0.5262  0.5634
   54MOL   H39128057   2.736   6.922   0.165  0.4932 -0.4266  0.8113
   54MOL   C39228058   2.322   7.241   0.534  0.6034 -0.0549  0.4151
   54MOL   C39328059   2.319   7.105   0.605 -0.0259 -0.5408 -0.2333
   54MOL   N39428060   2.389   7.103   0.732  0.0078  0.4302 -0.0320
   54MOL   C39528061   2.502   7.030   0.764 -0.2309 -0.6549  0.1352
   54MOL   C39628062   2.524   7.036   0.904  0.2734 -0.2525  0.5469
   54MOL   C39728063   2.626   6.958   0.960  0.3188 -0.5680  0.4117
   54MOL   C39828064   2.689   6.863   0.876 -0.3361  0.3486  0.3232
   54MOL   C39928065   2.664   6.852   0.735  0.6989 -0.1374  0.3987
   54MOL   C40028066   2.568   6.941   0.679 -0.4250  0.0633 -0.2622
   54MOL   C40128067   2.424   7.128   0.954 -0.2919  0.0908 -0.2082
   54MOL   C40228068   2.344   7.171   0.849  0.3834  0.4084 -0.0018
   54MOL   C40328069   2.235   7.256   0.874  0.4366  0.4599 -0.2879
   54MOL   C40428070   2.200   7.282   1.011  0.7193 -0.2571  0.4720
   54MOL   C40528071   2.279   7.240   1.115  0.0477 -0.3275 -0.4836
   54MOL   C40628072   2.398   7.164   1.083 -0.4792 -0.5664 -0.3445
   54MOL   H40728073   2.418   7.291   0.543 -0.4099  1.9369  0.4235
   54MOL   H40828074   2.262   7.309   0.595  1.9910  0.9217  0.7071
   54MOL   H40928075   2.376   7.033   0.546 -1.1956 -1.9076  0.2535
   54MOL   H41028076   2.649   6.974   1.065  0.1825 -0.9790  0.5086
   54MOL   H41128077   2.767   6.796   0.908  1.7898  1.9428 -1.3293
   54MOL   H41228078   2.714   6.776   0.678 -0.2159 -1.4116  1.2727
   54MOL   H41328079   2.552   6.933   0.573  3.4065 -2.1814 -0.7911
   54MOL   H41428080   2.167   7.287   0.796 -0.9390 -1.4283  0.1455
   54MOL   H41528081   2.114   7.344   1.032  0.5740 -1.0642  2.4205
   54MOL   H41628082   2.256   7.267   1.217 -2.1639  0.1440 -1.0918
   54MOL   H41728083   2.467   7.136   1.161 -1.0691 -0.2516  0.2989
   54MOL   C41828084   2.174   7.046   0.615 -0.4719  0.3098  0.3894
   54MOL   C41928085   2.157   6.912   0.688  0.2047 -0.2614  0.3983
   54MOL   N42028086   2.018   6.899   0.722  0.0284  0.9291 -0.0105
   54MOL   C42128087   1.967   6.919   0.844  0.4557  0.1258  0.2243
   54MOL   C42228088   1.827   6.891   0.842  0.0771  0.3745 -0.4450
   54MOL   C42328089   1.749   6.906   0.960  0.3024 -0.1699 -0.3089
   54MOL   C42428090   1.804   6.952   1.080  0.3876  0.2622 -0.1306
   54MOL   C42528091   1.938   6.987   1.072  0.4468 -0.3312 -0.5797
   54MOL   C42628092   2.025   6.966   0.965  0.5759 -0.8947 -0.2682
   54MOL   C42728093   1.788   6.863   0.708 -0.0218 -0.0875  0.0566
   54MOL   C42828094   1.910   6.866   0.637 -0.4512  0.7437  0.0341
   54MOL   C42928095   1.912   6.829   0.500  0.2055 -0.4941 -1.3823
   54MOL   C43028096   1.796   6.784   0.437 -0.1505  0.2016 -0.3582
   54MOL   C43128097   1.670   6.787   0.508  0.7694 -0.2820 -0.3162
   54MOL   C43228098   1.663   6.826   0.645  0.2868 -0.3115  0.4647
   54MOL   H43328099   2.112   7.118   0.669 -0.4659  1.6225 -1.2950
   54MOL   H43428100   2.126   7.034   0.518  0.6300 -1.3674  0.0442
   54MOL   H43528101   2.214   6.911   0.781 -1.8235 -2.4374  1.6922
   54MOL   H43628102   1.643   6.886   0.954  0.2318  0.5167 -1.5322
   54MOL   H43728103   1.743   6.961   1.169  1.1162  1.3639  0.2738
   54MOL   H43828104   1.982   7.040   1.155  0.0557  1.5280 -1.5271
   54MOL   H43928105   2.132   6.980   0.965  0.5797 -0.9246 -0.1283
   54MOL   H44028106   2.000   6.815   0.439  0.7192 -1.8196 -0.3805
   54MOL   H44128107   1.798   6.744   0.336 -0.8010 -0.4122 -0.1384
   54MOL   H44228108   1.590   6.754   0.443 -0.3864  1.9508 -0.0621
   54MOL   H44328109   1.574   6.818   0.706  0.8445 -1.9018  1.1004
   54MOL   C44428110   2.222   6.799   0.601  1.2253 -1.1409 -0.4711
   54MOL   C44528111   2.211   6.659   0.659  0.1282 -0.1212 -0.1138
   54MOL   N44628112   2.232   6.556   0.554  0.1968 -0.0514 -0.1955
   54MOL   C44728113   2.133   6.493   0.477 -1.2067  0.3677  0.9864
   54MOL   C44828114   2.197   6.403   0.385  0.0072 -0.4009 -0.2559
   54MOL   C44928115   2.112   6.339   0.295  0.0034  0.1832  0.4586
   54MOL   C45028116   1.977   6.357   0.295 -0.7425 -0.4866  0.2007
   54MOL   C45128117   1.920   6.440   0.385 -0.7877  0.4622 -0.8966
   54MOL   C45228118   1.993   6.508   0.480  0.0643  0.1529  0.0798
   54MOL   C45328119   2.338   6.417   0.399  0.1777  0.5152  0.2699
   54MOL   C45428120   2.357   6.512   0.504 -0.5429 -0.0967 -0.0530
   54MOL   C45528121   2.490   6.551   0.541  0.4768  0.2112  0.4649
   54MOL   C45628122   2.597   6.479   0.492  0.1384 -0.0214  0.3663
   54MOL   C45728123   2.578   6.382   0.391  0.3386 -0.6857  0.2082
   54MOL   C45828124   2.449   6.352   0.337  0.2881  0.1700  0.4571
   54MOL   H45928125   2.182   6.787   0.500  2.1893 -3.1444 -0.6310
   54MOL   H46028126   2.330   6.805   0.586  1.3398  3.1449  1.2833
   54MOL   H46128127   2.107   6.647   0.690 -0.0104  0.3480 -0.3941
   54MOL   H46228128   2.175   6.280   0.230  1.4387 -1.2286  3.0374
   54MOL   H46328129   1.913   6.303   0.227  0.4023  0.6855 -1.8839
   54MOL   H46428130   1.812   6.443   0.390 -0.7168  0.4459  0.7529
   54MOL   H46528131   1.948   6.577   0.550 -1.9376 -0.4647 -0.5723
   54MOL   H46628132   2.497   6.626   0.618 -1.5230 -1.3601  2.2720
   54MOL   H46728133   2.693   6.499   0.538 -0.0613  0.7750  0.4453
   54MOL   H46828134   2.666   6.328   0.360  0.0316  0.0671 -2.0910
   54MOL   H46928135   2.439   6.275   0.263 -2.5636  0.0916  0.8666
   54MOL   C47028136   2.306   6.639   0.788  0.0854  0.2288  0.3448
   54MOL   C47128137   2.235   6.654   0.931  0.1211 -0.1463 -0.1268
   54MOL   N47228138   2.179   6.530   0.982 -0.3170 -0.0896  0.2974
   54MOL   C47328139   2.050   6.489   0.981 -0.5284 -0.2688 -0.1143
   54MOL   C47428140   2.035   6.365   1.043 -0.6428  0.2180 -0.0452
   54MOL   C47528141   1.905   6.308   1.066 -0.5110 -0.1158 -0.5953
   54MOL   C47628142   1.789   6.374   1.025  0.0536 -0.3357 -0.2372
   54MOL   C47728143   1.802   6.494   0.955  0.4282 -0.6901 -0.2718
   54MOL   C47828144   1.932   6.559   0.936 -0.0953 -0.3307 -0.3354
   54MOL   C47928145   2.169   6.322   1.078 -0.2859  0.2329  0.3409
   54MOL   C48028146   2.251   6.426   1.037  0.0724 -0.0473  0.0291
   54MOL   C48128147   2.390   6.411   1.047 -0.1599 -0.6327  0.7953
   54MOL   C48228148   2.448   6.297   1.107 -0.0890 -0.3311 -1.0490
   54MOL   C48328149   2.360   6.203   1.175  0.3354 -0.6159  0.7876
   54MOL   C48428150   2.225   6.208   1.145 -0.0368  0.4494 -0.1909
   54MOL   H48528151   2.360   6.544   0.780 -0.4733 -0.0680  0.1306
   54MOL   H48628152   2.391   6.708   0.786  1.1147 -1.0287 -0.2439
   54MOL   H48728153   2.153   6.725   0.917 -0.0074 -0.0208  1.2468
   54MOL   H48828154   1.890   6.216   1.120 -0.7070  1.1660  1.6432
   54MOL   H48928155   1.690   6.331   1.023  0.1336 -0.5030 -1.0162
   54MOL   H49028156   1.723   6.548   0.905  1.4135 -0.5255 -1.6646
   54MOL   H49128157   1.942   6.657   0.891  0.1507  0.4972  1.4645
   54MOL   H49228158   2.451   6.477   0.987 -0.5000 -1.6599 -0.7011
   54MOL   H49328159   2.556   6.294   1.116 -0.0414 -0.4788 -1.6464
   54MOL   H49428160   2.420   6.119   1.208 -0.5379 -1.1822  0.9361
   54MOL   H49528161   2.159   6.129   1.177 -1.2872  2.1847  1.6892
   54MOL   C49628162   2.338   6.725   1.028 -0.7010 -0.0037  0.4649
   54MOL   C49728163   2.301   6.734   1.176  0.8934  0.1419  0.8196
   54MOL   N49828164   2.375   6.825   1.257 -0.4507  0.2153 -0.3902
   54MOL   C49928165   2.507   6.818   1.291  0.0334 -0.3219 -0.3628
   54MOL   C50028166   2.546   6.930   1.370  0.4586  0.0205  0.7378
   54MOL   C50128167   2.684   6.950   1.392 -0.4215  0.7705 -0.8741
   54MOL   C50228168   2.783   6.860   1.352 -0.4413 -0.2505 -0.0296
   54MOL   C50328169   2.746   6.745   1.274 -0.0833 -0.7126  0.4369
   54MOL   C50428170   2.607   6.728   1.246 -0.3092 -1.2813  0.2147
   54MOL   C50528171   2.426   7.004   1.403 -0.6324  0.1310  0.1043
   54MOL   C50628172   2.323   6.932   1.334  0.3887 -0.7564 -0.0250
   54MOL   C50728173   2.193   6.978   1.348 -0.3944  0.6088 -0.0449
   54MOL   C50828174   2.155   7.090   1.424 -0.3064 -0.2953 -0.1891
   54MOL   C50928175   2.260   7.157   1.493  0.2066  0.4791  0.1578
   54MOL   C51028176   2.390   7.122   1.477  0.5624 -0.1366 -0.4908
   54MOL   H51128177   2.442   6.697   1.017 -0.5495  0.8535 -0.2900
   54MOL   H51228178   2.342   6.825   0.987  2.7190  0.1586  1.0485
   54MOL   H51328179   2.312   6.631   1.208 -1.2227 -0.8720 -1.5464
   54MOL   H51428180   2.717   7.041   1.439 -1.5605  1.5259 -1.5071
   54MOL   H51528181   2.886   6.887   1.367 -0.4291  0.7980 -1.9009
   54MOL   H51628182   2.808   6.658   1.263 -0.3145 -0.8543  0.2299
   54MOL   H51728183   2.567   6.648   1.185 -0.1994 -0.5766 -0.8015
   54MOL   H51828184   2.115   6.922   1.299 -1.0841  1.2967  0.2477
   54MOL   H51928185   2.053   7.121   1.437  0.2673  1.5258  0.0040
   54MOL   H52028186   2.238   7.249   1.546  0.7133  0.1315  0.9844
   54MOL   H52128187   2.457   7.186   1.532 -0.9623  1.7844 -0.7674
   54MOL   H52228188   2.193   6.753   1.183  0.2941 -2.3709 -0.9248
   55MOL     C128189   1.532   1.601   1.651 -0.0468 -0.3757  0.4307
   55MOL     C228190   1.466   1.696   1.746  0.3698 -0.2861  0.6712
   55MOL     N328191   1.525   1.675   1.879  0.6935 -0.1623  0.6767
   55MOL     C428192   1.444   1.656   1.992  0.1760 -0.9985 -0.0062
   55MOL     C528193   1.533   1.644   2.103 -0.7311 -0.4702 -0.0816
   55MOL     C628194   1.471   1.627   2.230  0.7929  0.3788 -0.7420
   55MOL     C728195   1.332   1.638   2.248  0.6337 -0.4761 -0.5517
   55MOL     C828196   1.248   1.639   2.138  0.0046  0.0343  0.3629
   55MOL     C928197   1.303   1.648   2.008  0.2227  0.1426  0.3788
   55MOL    C1028198   1.668   1.650   2.057  0.3266 -0.2262 -0.4135
   55MOL    C1128199   1.659   1.673   1.919 -0.1897  0.5163  0.4853
   55MOL    C1228200   1.780   1.699   1.845 -0.7645 -0.5823 -0.3896
   55MOL    C1328201   1.903   1.701   1.915  0.0995  0.0012 -0.1224
   55MOL    C1428202   1.916   1.664   2.051 -0.6177 -0.0458 -0.3079
   55MOL    C1528203   1.792   1.639   2.121 -0.0921 -0.1494  0.3196
   55MOL    H1628204   1.485   1.607   1.552  0.7514  0.3963  0.0900
   55MOL    H1728205   1.541   1.493   1.667  0.8522 -0.2507  0.7606
   55MOL    H1828206   1.361   1.669   1.758  0.0409  1.4340  1.7902
   55MOL    H1928207   1.531   1.616   2.319 -1.7301  0.0890  0.9365
   55MOL    H2028208   1.291   1.646   2.347 -1.2610 -1.1080 -1.2601
   55MOL    H2128209   1.143   1.661   2.156  0.6804  2.8461  1.0842
   55MOL    H2228210   1.230   1.637   1.929  1.5176  0.5677 -0.8939
   55MOL    H2328211   1.781   1.734   1.743 -1.2718 -0.0462 -0.2189
   55MOL    H2428212   1.993   1.736   1.865 -1.4319  0.9620 -2.2680
   55MOL    H2528213   2.008   1.674   2.107 -0.0075 -1.0371 -1.1073
   55MOL    H2628214   1.789   1.614   2.226 -0.7298 -0.9511  0.1181
   55MOL    H2728215   1.635   1.626   1.624 -0.7345  1.4589 -0.5754
   55MOL    C2828216   1.476   1.846   1.711 -0.0639  0.5816 -0.2674
   55MOL    C2928217   1.386   1.886   1.583 -1.0162 -0.0329  0.6427
   55MOL    N3028218   1.257   1.814   1.578  0.0615  0.5843  0.4869
   55MOL    C3128219   1.213   1.724   1.479  0.3850  1.0079  0.3690
   55MOL    C3228220   1.079   1.686   1.508 -0.4767  0.1982  0.1786
   55MOL    C3328221   1.016   1.596   1.428  0.4539  1.0587  0.2134
   55MOL    C3428222   1.083   1.529   1.322 -0.3537  0.4732 -0.1344
   55MOL    C3528223   1.220   1.564   1.296 -0.2765 -0.7838 -0.4163
   55MOL    C3628224   1.282   1.666   1.374  0.1984  0.0958 -0.0254
   55MOL    C3728225   1.042   1.745   1.627  0.5425  0.0393 -0.4852
   55MOL    C3828226   1.152   1.826   1.671  0.3849 -0.5192  0.1673
   55MOL    C3928227   1.146   1.901   1.792 -0.4565  0.2092  0.5398
   55MOL    C4028228   1.025   1.902   1.866 -0.2286  0.4163  0.0507
   55MOL    C4128229   0.921   1.814   1.830 -0.0093 -0.1955 -1.0451
   55MOL    C4228230   0.932   1.739   1.713  0.4183  0.9240  0.6842
   55MOL    H4328231   1.445   1.900   1.801  2.3543 -0.6512  1.3317
   55MOL    H4428232   1.581   1.872   1.699  0.6364 -0.6316  2.7335
   55MOL    H4528233   1.444   1.844   1.501 -0.0269  0.8492  0.8850
   55MOL    H4628234   0.917   1.558   1.447 -0.3078  2.3544 -1.0476
   55MOL    H4728235   1.035   1.444   1.277  1.3576  0.6983 -2.5109
   55MOL    H4828236   1.285   1.498   1.241  0.3296  0.6165 -1.4033
   55MOL    H4928237   1.388   1.685   1.359 -0.0863  2.1590  0.4039
   55MOL    H5028238   1.230   1.959   1.827 -0.6636  1.2074 -0.6002
   55MOL    H5128239   1.009   1.952   1.960 -1.9651 -2.0386  1.1217
   55MOL    H5228240   0.831   1.818   1.890  0.5624  1.9052 -0.2906
   55MOL    H5328241   0.845   1.679   1.692 -0.3104  2.2645 -0.2114
   55MOL    C5428242   1.374   2.030   1.543 -0.2248 -0.3232  0.0770
   55MOL    C5528243   1.497   2.114   1.511 -0.0472  0.1692  0.3749
   55MOL    N5628244   1.601   2.045   1.427 -0.4480 -0.2760  0.1530
   55MOL    C5728245   1.733   2.012   1.468 -0.3326 -0.3237  0.1152
   55MOL    C5828246   1.794   1.934   1.367 -0.7001 -0.5079 -0.2812
   55MOL    C5928247   1.922   1.880   1.384  0.0685  0.8342 -0.6434
   55MOL    C6028248   2.001   1.914   1.498  0.0796  0.3490  0.6481
   55MOL    C6128249   1.939   1.983   1.597 -0.6038 -0.3448  0.0518
   55MOL    C6228250   1.807   2.032   1.588 -0.3930 -0.5978  0.6650
   55MOL    C6328251   1.698   1.927   1.261 -0.1332 -0.0332 -0.1996
   55MOL    C6428252   1.584   1.996   1.299  0.1436 -0.0967  0.3044
   55MOL    C6528253   1.477   2.000   1.210 -0.0330 -0.1366  1.4400
   55MOL    C6628254   1.475   1.928   1.090 -0.1677 -0.5205  0.5871
   55MOL    C6728255   1.593   1.858   1.058  0.7562 -0.3160 -0.4993
   55MOL    C6828256   1.703   1.853   1.145  0.0558 -0.0129  0.1618
   55MOL    H6928257   1.309   2.035   1.456  1.3374 -2.7069 -1.2698
   55MOL    H7028258   1.334   2.092   1.624  2.5389 -0.4220  1.5925
   55MOL    H7128259   1.552   2.123   1.604 -0.0765 -0.0395  0.4130
   55MOL    H7228260   1.963   1.828   1.299 -0.4915 -0.7678  0.0492
   55MOL    H7328261   2.097   1.869   1.515 -0.7133 -1.3622  0.7194
   55MOL    H7428262   1.996   2.003   1.687  0.6356  0.8169 -0.9796
   55MOL    H7528263   1.771   2.079   1.678 -0.5631 -2.2155  1.4616
   55MOL    H7628264   1.390   2.057   1.238 -0.9768  0.6386 -2.7753
   55MOL    H7728265   1.395   1.914   1.019  0.4036  0.6422 -0.3014
   55MOL    H7828266   1.588   1.793   0.971 -1.0775 -0.6083 -0.2151
   55MOL    H7928267   1.795   1.805   1.116 -1.3733 -2.0465 -1.2390
   55MOL    C8028268   1.471   2.256   1.453  0.0751 -0.6257 -0.2245
   55MOL    C8128269   1.376   2.341   1.544 -0.0215  0.1016 -0.3166
   55MOL    N8228270   1.425   2.369   1.678 -0.3940  0.3856  0.4988
   55MOL    C8328271   1.354   2.345   1.796 -0.8183 -0.2965  0.9123
   55MOL    C8428272   1.415   2.418   1.898 -0.5243 -0.0159  0.2681
   55MOL    C8528273   1.351   2.435   2.025  0.0748 -0.1993  0.3319
   55MOL    C8628274   1.226   2.371   2.046  0.3189  0.3198 -0.5842
   55MOL    C8728275   1.168   2.300   1.942  0.9325 -0.5551 -0.1443
   55MOL    C8828276   1.233   2.285   1.820  0.3886 -0.2971 -0.5799
   55MOL    C8928277   1.539   2.467   1.852  0.1832  0.3163 -0.2334
   55MOL    C9028278   1.551   2.426   1.714 -0.4314 -0.8200  0.1954
   55MOL    C9128279   1.672   2.453   1.648 -0.5701  0.4715  0.0733
   55MOL    C9228280   1.783   2.511   1.709  0.4475 -0.3344 -0.6025
   55MOL    C9328281   1.772   2.559   1.841  0.6591 -0.4918 -0.1001
   55MOL    C9428282   1.652   2.536   1.912 -0.1161  0.0259 -0.1448
   55MOL    H9528283   1.562   2.314   1.438 -0.1115  0.0316  1.1120
   55MOL    H9628284   1.432   2.254   1.352 -0.2269  2.6381 -0.2324
   55MOL    H9728285   1.291   2.277   1.563  1.5012 -2.1405 -0.9033
   55MOL    H9828286   1.387   2.488   2.111 -3.0574 -0.7240  2.0104
   55MOL    H9928287   1.164   2.382   2.134  2.4380 -1.5650  1.2232
   55MOL   H10028288   1.075   2.250   1.967  0.7367  0.3549  0.9784
   55MOL   H10128289   1.181   2.227   1.746 -2.4852  2.0369 -0.4752
   55MOL   H10228290   1.689   2.449   1.541 -1.3242 -0.5779 -0.0235
   55MOL   H10328291   1.874   2.528   1.654  0.0074 -0.2124 -1.3051
   55MOL   H10428292   1.850   2.615   1.891  0.2337  0.9893 -1.0542
   55MOL   H10528293   1.652   2.555   2.019 -1.7119 -2.0634  0.2659
   55MOL   C10628294   1.336   2.476   1.484  0.4109  0.3708  0.3279
   55MOL   C10728295   1.224   2.484   1.379  0.1705  0.4052  0.0291
   55MOL   N10828296   1.156   2.356   1.358  0.0938  0.1793  0.1332
   55MOL   C10928297   1.169   2.278   1.246 -0.2314  0.0071 -0.6017
   55MOL   C11028298   1.095   2.163   1.268 -0.7475 -0.2006 -0.1780
   55MOL   C11128299   1.104   2.059   1.178 -0.2233 -0.0651 -0.3648
   55MOL   C11228300   1.173   2.076   1.057 -0.3685 -0.3266 -0.4524
   55MOL   C11328301   1.253   2.195   1.037 -0.8097  0.1645  0.3885
   55MOL   C11428302   1.248   2.301   1.127 -0.1267 -0.0747 -0.4107
   55MOL   C11528303   1.020   2.179   1.388  0.0064 -0.4668 -1.0105
   55MOL   C11628304   1.067   2.300   1.444 -0.2516  0.3632  0.1131
   55MOL   C11728305   1.025   2.347   1.569  0.8961 -0.1304  0.2682
   55MOL   C11828306   0.942   2.261   1.649 -0.2952 -0.6104 -0.1325
   55MOL   C11928307   0.887   2.147   1.592 -0.0033 -0.0660 -0.1397
   55MOL   C12028308   0.926   2.104   1.460  0.7491  0.3095  0.6839
   55MOL   H12128309   1.290   2.522   1.572 -1.3780 -1.9123  0.6299
   55MOL   H12228310   1.421   2.540   1.457  0.8830  0.6093  2.3194
   55MOL   H12328311   1.277   2.507   1.287 -1.3805 -0.4009 -1.0942
   55MOL   H12428312   1.052   1.966   1.194  0.0259 -0.0794  0.4305
   55MOL   H12528313   1.192   1.996   0.988 -0.3726  1.3646 -2.4554
   55MOL   H12628314   1.313   2.204   0.948 -1.6996 -1.3914 -0.3772
   55MOL   H12728315   1.293   2.396   1.103  0.4249  0.0485  1.0595
   55MOL   H12828316   1.054   2.440   1.615 -1.3701 -0.3095  2.1784
   55MOL   H12928317   0.918   2.289   1.751 -0.1740  1.4053 -0.6493
   55MOL   H13028318   0.824   2.079   1.648 -0.7716  0.0827 -0.8192
   55MOL   H13128319   0.888   2.009   1.425  1.9507  1.0417 -2.8754
   55MOL   C13228320   1.118   2.603   1.383 -0.2453  0.1226 -0.6842
   55MOL   C13328321   1.172   2.739   1.425  0.4274  0.6898 -0.3269
   55MOL   N13428322   1.302   2.781   1.361  0.1207 -0.0718 -0.0061
   55MOL   C13528323   1.421   2.802   1.423 -0.2379 -0.3136 -0.2696
   55MOL   C13628324   1.515   2.864   1.342  0.0633 -0.3580 -0.1079
   55MOL   C13728325   1.633   2.912   1.405 -0.3316 -0.8860  0.1619
   55MOL   C13828326   1.662   2.896   1.537  0.5196  0.6449 -0.1139
   55MOL   C13928327   1.572   2.831   1.621  0.1270  0.4191  0.0553
   55MOL   C14028328   1.444   2.785   1.566 -0.4842  0.3925 -0.4393
   55MOL   C14128329   1.455   2.867   1.208 -0.6536  0.1998 -0.0672
   55MOL   C14228330   1.323   2.806   1.223 -0.2879  0.0450  0.2437
   55MOL   C14328331   1.238   2.791   1.109 -0.4751  0.0730 -0.0681
   55MOL   C14428332   1.296   2.818   0.978 -0.3146 -0.6579 -0.1437
   55MOL   C14528333   1.417   2.890   0.964  0.5813  1.0372  0.2920
   55MOL   C14628334   1.497   2.912   1.078 -0.1895  0.2054 -0.4397
   55MOL   H14728335   1.078   2.620   1.283  0.1798 -1.9240 -1.2294
   55MOL   H14828336   1.039   2.581   1.454  0.3718 -1.1970 -0.3998
   55MOL   H14928337   1.193   2.732   1.532 -2.6067 -0.7627  0.2501
   55MOL   H15028338   1.706   2.954   1.338  1.5681 -2.7580  1.0069
   55MOL   H15128339   1.756   2.934   1.575  0.8824 -0.1688 -0.1985
   55MOL   H15228340   1.594   2.809   1.724 -1.7343 -0.9026  0.1980
   55MOL   H15328341   1.367   2.746   1.630 -0.5080  0.5716 -0.3588
   55MOL   H15428342   1.138   2.762   1.136  0.2422 -1.0213  1.4730
   55MOL   H15528343   1.232   2.812   0.891 -0.0147 -1.8534 -0.2880
   55MOL   H15628344   1.447   2.931   0.869  1.2318  0.3882  0.2128
   55MOL   H15728345   1.584   2.974   1.063 -0.3848  0.5372 -0.2361
   55MOL   C15828346   1.069   2.863   1.421 -0.8462  0.3007 -0.3726
   55MOL   C15928347   1.122   3.002   1.475 -0.1998  1.1511  0.6333
   55MOL   N16028348   1.074   3.108   1.394  0.3227  0.2170 -0.1154
   55MOL   C16128349   1.147   3.193   1.317  0.3279 -0.2456 -0.4680
   55MOL   C16228350   1.062   3.288   1.258 -0.7077 -0.1930 -0.3967
   55MOL   C16328351   1.120   3.388   1.177  0.7366 -0.1017  0.1340
   55MOL   C16428352   1.259   3.394   1.144  0.0646  0.1061  0.8141
   55MOL   C16528353   1.341   3.300   1.204  0.1568 -0.4246  0.1090
   55MOL   C16628354   1.284   3.203   1.293 -0.2004 -1.0850 -0.3279
   55MOL   C16728355   0.932   3.259   1.299 -0.8290  0.4901  0.2469
   55MOL   C16828356   0.942   3.141   1.372  0.2183  0.2900 -0.2596
   55MOL   C16928357   0.820   3.081   1.411  0.1705 -0.1486  0.5591
   55MOL   C17028358   0.693   3.137   1.387 -0.2740 -0.0607  0.3934
   55MOL   C17128359   0.689   3.261   1.313 -0.2700  0.5726 -0.2885
   55MOL   C17228360   0.807   3.320   1.269  0.2488 -1.0909  0.4946
   55MOL   H17328361   1.041   2.879   1.317 -0.4715  2.2069 -0.2008
   55MOL   H17428362   0.989   2.820   1.481  0.8386 -3.9385 -0.9770
   55MOL   H17528363   1.230   3.006   1.466 -0.2378 -0.0066 -0.4712
   55MOL   H17628364   1.059   3.453   1.115  0.7753 -0.9197 -0.7709
   55MOL   H17728365   1.299   3.468   1.076 -0.1042  0.5730  1.2230
   55MOL   H17828366   1.447   3.287   1.190  0.3496  1.2613 -0.0361
   55MOL   H17928367   1.344   3.124   1.337 -0.1376 -0.4473  0.7408
   55MOL   H18028368   0.816   2.993   1.474 -0.5380  1.0062  2.1864
   55MOL   H18128369   0.598   3.096   1.418  0.0801 -0.2343  1.2700
   55MOL   H18228370   0.598   3.314   1.291 -1.2970 -1.1254 -0.2732
   55MOL   H18328371   0.801   3.407   1.207 -1.3534 -0.1644  1.9075
   55MOL   C18428372   1.098   3.014   1.624  0.5566 -0.3378  0.2623
   55MOL   C18528373   1.161   3.143   1.694 -0.2817  0.1318  0.0405
   55MOL   N18628374   1.106   3.148   1.834 -0.5621  0.0360 -0.0819
   55MOL   C18728375   1.026   3.251   1.876  0.0990  0.0362 -0.0846
   55MOL   C18828376   0.981   3.217   2.011 -0.7051 -0.6468 -0.1290
   55MOL   C18928377   0.895   3.311   2.073  0.3981  0.3223  0.6829
   55MOL   C19028378   0.853   3.432   2.010  0.1326  0.0121 -0.0022
   55MOL   C19128379   0.896   3.456   1.882  0.1028 -0.0358 -0.8532
   55MOL   C19228380   0.981   3.364   1.809  0.1426  0.3219 -0.5278
   55MOL   C19328381   1.045   3.088   2.048 -0.0377 -0.0489 -0.3048
   55MOL   C19428382   1.123   3.052   1.936 -0.2432 -0.1825  0.3618
   55MOL   C19528383   1.211   2.941   1.950  0.6710  0.7625  0.0801
   55MOL   C19628384   1.197   2.864   2.067 -0.2510  0.1145 -0.3264
   55MOL   C19728385   1.107   2.888   2.174 -0.0067  0.5799  0.4724
   55MOL   C19828386   1.037   3.009   2.170  0.6232  0.4570  0.0333
   55MOL   H19928387   0.992   3.016   1.646  0.5169  0.8530 -0.0093
   55MOL   H20028388   1.139   2.926   1.674 -1.3448 -0.7368  1.1493
   55MOL   H20128389   1.131   3.234   1.643  0.0080 -0.3847 -1.0831
   55MOL   H20228390   0.885   3.286   2.177  0.8083  2.0697  1.1564
   55MOL   H20328391   0.797   3.507   2.063  1.8530  1.6257 -0.4328
   55MOL   H20428392   0.861   3.538   1.822  1.8717  0.5282 -1.1367
   55MOL   H20528393   1.004   3.379   1.705 -1.8799  0.1661 -1.0111
   55MOL   H20628394   1.277   2.917   1.868  1.7274 -0.8213  1.3861
   55MOL   H20728395   1.269   2.785   2.076 -1.0875 -0.6333 -0.0362
   55MOL   H20828396   1.109   2.829   2.264  0.5178 -0.5738 -0.2777
   55MOL   H20928397   0.974   3.032   2.254  0.7872  0.0404  0.2729
   55MOL   C21028398   1.317   3.156   1.675  0.1619  0.2350  0.0809
   55MOL   C21128399   1.397   3.220   1.793 -0.0764 -0.0306 -0.2423
   55MOL   N21228400   1.537   3.202   1.767 -0.0276 -0.7169  0.3399
   55MOL   C21328401   1.617   3.105   1.830 -0.0932  0.1766 -0.4026
   55MOL   C21428402   1.750   3.116   1.784  0.2075 -0.6299  0.0754
   55MOL   C21528403   1.851   3.036   1.840 -0.3480  0.6820 -0.0411
   55MOL   C21628404   1.816   2.934   1.934  0.6761  0.0907 -1.0252
   55MOL   C21728405   1.680   2.918   1.984  0.2069 -0.2592 -0.5328
   55MOL   C21828406   1.582   3.010   1.933 -0.3946 -0.0775  0.2045
   55MOL   C21928407   1.757   3.216   1.685  0.0947 -0.0311 -0.3860
   55MOL   C22028408   1.620   3.259   1.668  0.0423  0.4489  1.1241
   55MOL   C22128409   1.593   3.353   1.568  1.0872 -0.1492  0.0260
   55MOL   C22228410   1.692   3.402   1.484  0.0175  0.7067 -0.2221
   55MOL   C22328411   1.830   3.361   1.501  0.2646 -0.4290  0.1539
   55MOL   C22428412   1.859   3.262   1.600 -0.1473  0.9274  0.3413
   55MOL   H22528413   1.355   3.056   1.656  1.7872  0.5391  1.6299
   55MOL   H22628414   1.337   3.221   1.590 -0.1569  1.1539  0.6954
   55MOL   H22728415   1.368   3.166   1.884 -0.1815 -1.0674 -0.8859
   55MOL   H22828416   1.942   3.043   1.783 -1.1884 -0.6325 -1.6218
   55MOL   H22928417   1.896   2.873   1.972 -0.0275 -0.8762 -1.0672
   55MOL   H23028418   1.661   2.839   2.056  0.7631  1.0134  1.0491
   55MOL   H23128419   1.485   2.993   1.977 -0.5186  0.7320  0.2394
   55MOL   H23228420   1.494   3.394   1.557  0.8280 -0.7523  0.0850
   55MOL   H23328421   1.660   3.475   1.411  2.6159 -0.4368 -2.6246
   55MOL   H23428422   1.905   3.415   1.445  1.3310 -1.5549  0.4873
   55MOL   H23528423   1.960   3.225   1.605 -0.7990 -0.6671  1.9504
   55MOL   C23628424   1.360   3.362   1.835 -0.2139  0.3338  0.0585
   55MOL   C23728425   1.368   3.390   1.987 -0.6371  0.0654  0.6433
   55MOL   N23828426   1.488   3.339   2.057  0.3718 -0.0391 -0.2107
   55MOL   C23928427   1.484   3.240   2.158 -0.0346  0.4487 -0.0342
   55MOL   C24028428   1.617   3.216   2.205  0.0861 -0.2401  0.2234
   55MOL   C24128429   1.628   3.130   2.312 -0.2411  0.2831 -0.4925
   55MOL   C24228430   1.518   3.062   2.366  0.8931 -1.0705 -0.4885
   55MOL   C24328431   1.390   3.086   2.316 -0.2241  0.4100 -0.4208
   55MOL   C24428432   1.371   3.177   2.210 -0.3148 -0.0476 -0.2562
   55MOL   C24528433   1.701   3.291   2.114 -0.2892  1.0059 -0.0014
   55MOL   C24628434   1.623   3.373   2.033 -0.0759  0.1979  0.0079
   55MOL   C24728435   1.678   3.470   1.945 -0.0207  0.3657  0.3777
   55MOL   C24828436   1.816   3.481   1.940 -0.1016  0.2327  0.3521
   55MOL   C24928437   1.902   3.391   2.006 -0.2110 -0.1955  0.1138
   55MOL   C25028438   1.840   3.296   2.090 -0.0305  0.3008  0.1991
   55MOL   H25128439   1.421   3.437   1.786  0.7599 -0.5898 -0.1620
   55MOL   H25228440   1.262   3.389   1.796 -0.5251 -0.6306  0.1625
   55MOL   H25328441   1.286   3.327   2.020  0.1288 -1.4650 -0.2719
   55MOL   H25428442   1.728   3.112   2.350 -0.3744 -2.8139 -1.4441
   55MOL   H25528443   1.529   2.979   2.434 -1.4236 -0.8736  0.1874
   55MOL   H25628444   1.298   3.047   2.357 -1.9863  3.0822 -1.6793
   55MOL   H25728445   1.271   3.185   2.170 -0.4597  1.6535  0.3691
   55MOL   H25828446   1.612   3.540   1.897 -1.3736 -0.1797  1.4100
   55MOL   H25928447   1.864   3.552   1.875 -0.5792  2.0025  1.8762
   55MOL   H26028448   2.009   3.405   2.004 -0.3708  1.2354  0.5428
   55MOL   H26128449   1.909   3.236   2.149 -0.2993  1.3614  1.6341
   55MOL   C26228450   1.333   3.540   2.021 -0.7931 -0.6319  0.2163
   55MOL   C26328451   1.308   3.570   2.170 -0.2310  0.1688  0.8661
   55MOL   N26428452   1.318   3.718   2.198 -0.2174  0.7071  0.2003
   55MOL   C26528453   1.429   3.771   2.260 -0.4753 -0.5058 -1.1008
   55MOL   C26628454   1.396   3.908   2.289 -0.6103 -0.1391  0.0566
   55MOL   C26728455   1.491   3.989   2.361  0.0488 -0.5755  0.3096
   55MOL   C26828456   1.617   3.933   2.396 -0.0101 -0.7027  0.1812
   55MOL   C26928457   1.647   3.797   2.375 -0.7666 -0.8889  0.0829
   55MOL   C27028458   1.554   3.721   2.300  0.9373  0.2646  0.3745
   55MOL   C27128459   1.268   3.935   2.234 -0.4221 -0.3563  0.3863
   55MOL   C27228460   1.220   3.816   2.174 -0.1314 -0.1479 -1.1749
   55MOL   C27328461   1.102   3.815   2.110  0.0776 -0.2087  0.1900
   55MOL   C27428462   1.017   3.929   2.107 -0.0721 -0.5111  0.0654
   55MOL   C27528463   1.061   4.048   2.175 -0.1837 -0.0317  0.5884
   55MOL   C27628464   1.187   4.050   2.234  0.6254  0.4238  0.0420
   55MOL   H27728465   1.414   3.608   1.994 -0.2142 -0.4652  2.3565
   55MOL   H27828466   1.240   3.567   1.970  0.5773 -0.6996 -2.4477
   55MOL   H27928467   1.385   3.531   2.236  1.7534 -0.3310 -1.6837
   55MOL   H28028468   1.481   4.096   2.371  1.2255 -0.1147 -2.6816
   55MOL   H28128469   1.692   3.996   2.442  2.0240 -1.4797 -1.9437
   55MOL   H28228470   1.742   3.759   2.410 -0.0184 -0.2003 -1.1708
   55MOL   H28328471   1.576   3.616   2.285  2.6476  0.6083  0.4308
   55MOL   H28428472   1.079   3.725   2.055  3.3184 -0.4791 -0.8187
   55MOL   H28528473   0.924   3.931   2.053 -0.6246 -3.8474  0.7549
   55MOL   H28628474   0.987   4.126   2.184  0.0412  0.1123  1.1991
   55MOL   H28728475   1.211   4.135   2.296 -0.3895 -0.3445  1.5334
   55MOL   C28828476   1.178   3.503   2.219  0.0439 -0.5858  0.6267
   55MOL   C28928477   1.115   3.562   2.344 -0.1627  0.1067 -0.3606
   55MOL   N29028478   0.993   3.485   2.371  0.6612 -0.3918 -0.6189
   55MOL   C29128479   0.864   3.535   2.377 -0.4407 -0.2021 -0.0185
   55MOL   C29228480   0.777   3.433   2.422  0.6692 -0.2323  0.3081
   55MOL   C29328481   0.643   3.471   2.448 -0.6970  1.0155 -0.3761
   55MOL   C29428482   0.591   3.598   2.413  0.1472  0.0018  0.8193
   55MOL   C29528483   0.674   3.695   2.362  0.3536  0.2259  0.2822
   55MOL   C29628484   0.814   3.664   2.352  0.0950 -0.1785 -0.0727
   55MOL   C29728485   0.854   3.322   2.452 -0.4662 -0.2989 -0.5715
   55MOL   C29828486   0.989   3.354   2.424 -0.2221 -0.2562 -0.0726
   55MOL   C29928487   1.091   3.261   2.453 -0.0922  0.0288  0.2797
   55MOL   C30028488   1.056   3.133   2.504 -0.0562  0.1620  0.6562
   55MOL   C30128489   0.920   3.095   2.526  0.3987  0.6642  0.1194
   55MOL   C30228490   0.820   3.189   2.500 -0.0903  0.7034  0.0540
   55MOL   H30328491   1.107   3.497   2.137  0.8718  0.4194 -0.1789
   55MOL   H30428492   1.193   3.396   2.233  2.0391 -0.6869 -1.9013
   55MOL   H30528493   1.075   3.658   2.313  0.6237  0.4829 -0.2402
   55MOL   H30628494   0.576   3.401   2.495 -1.7218  0.8813 -2.0011
   55MOL   H30728495   0.485   3.613   2.430 -0.1034  0.4773 -1.0908
   55MOL   H30828496   0.640   3.792   2.331 -3.1089 -1.2122 -0.6652
   55MOL   H30928497   0.880   3.738   2.308  1.5499 -1.8196 -0.7159
   55MOL   H31028498   1.193   3.290   2.435 -0.2110 -0.2064 -0.8641
   55MOL   H31128499   1.127   3.053   2.515 -1.1569 -1.2870 -2.3174
   55MOL   H31228500   0.913   2.991   2.553  1.0893  0.9582  1.4678
   55MOL   H31328501   0.718   3.155   2.511  0.5685 -1.3718 -0.1538
   55MOL   C31428502   1.200   3.572   2.470 -1.0574  0.3190  1.0032
   55MOL   C31528503   1.133   3.615   2.602 -0.7239 -0.2785 -0.2266
   55MOL   N31628504   1.232   3.598   2.710 -0.3588  0.1308  0.5447
   55MOL   C31728505   1.230   3.492   2.800 -0.2780 -1.2054 -0.3703
   55MOL   C31828506   1.324   3.514   2.909  0.1808 -0.0174 -0.1085
   55MOL   C31928507   1.328   3.426   3.021  0.4549 -0.1098 -0.8071
   55MOL   C32028508   1.254   3.308   3.023  0.2793  0.1771 -0.2440
   55MOL   C32128509   1.163   3.284   2.912 -0.2367  0.0044 -0.0738
   55MOL   C32228510   1.148   3.379   2.806 -0.5689 -0.5396  0.0151
   55MOL   C32328511   1.396   3.635   2.872 -0.1527  0.2070 -0.2681
   55MOL   C32428512   1.334   3.684   2.752  0.1629  0.0968 -0.3201
   55MOL   C32528513   1.388   3.798   2.687 -0.5262  0.4683  0.5933
   55MOL   C32628514   1.496   3.868   2.748  0.7062  0.5609 -0.5299
   55MOL   C32728515   1.554   3.815   2.865 -0.5721 -0.2097 -0.0807
   55MOL   C32828516   1.504   3.704   2.928 -0.1534  0.5289  0.1516
   55MOL   H32928517   1.258   3.482   2.491 -1.5115 -0.3684 -0.6459
   55MOL   H33028518   1.282   3.639   2.445 -0.5606 -0.5563  0.2346
   55MOL   H33128519   1.050   3.545   2.614 -0.4308 -0.1665  2.8447
   55MOL   H33228520   1.409   3.444   3.090  0.4055  1.8236 -1.2071
   55MOL   H33328521   1.273   3.239   3.103  1.3768 -0.7809 -1.3108
   55MOL   H33428522   1.110   3.190   2.908  1.1911 -1.0424  3.4454
   55MOL   H33528523   1.090   3.351   2.719 -1.6595  0.4749  0.4035
   55MOL   H33628524   1.351   3.831   2.591 -1.3347 -0.6894  0.5052
   55MOL   H33728525   1.535   3.963   2.716  0.6397  0.7702 -0.0053
   55MOL   H33828526   1.636   3.874   2.902 -1.3745  1.1432 -0.4389
   55MOL   H33928527   1.553   3.663   3.015  1.0397  0.1329 -0.6994
   55MOL   C34028528   1.076   3.756   2.594  0.7215  0.1774  1.0807
   55MOL   C34128529   1.027   3.831   2.715 -0.0009 -0.6387  0.0543
   55MOL   N34228530   0.999   3.975   2.680 -0.4703  0.1851  0.2496
   55MOL   C34328531   1.085   4.088   2.695 -0.0156  0.2214 -0.3345
   55MOL   C34428532   1.034   4.205   2.633 -0.7754  0.5590 -0.4542
   55MOL   C34528533   1.117   4.316   2.622  0.0998 -0.1464  0.2539
   55MOL   C34628534   1.246   4.317   2.674 -0.1263  0.1357 -0.6624
   55MOL   C34728535   1.297   4.204   2.741  0.0823 -0.0444 -0.0595
   55MOL   C34828536   1.216   4.091   2.748  0.2474 -0.0888  0.0222
   55MOL   C34928537   0.908   4.166   2.585  0.2265  0.4282 -0.1469
   55MOL   C35028538   0.887   4.033   2.618 -0.7569  0.0904 -0.6520
   55MOL   C35128539   0.771   3.961   2.575 -0.4542  0.2752  0.1363
   55MOL   C35228540   0.667   4.026   2.517 -0.2671  0.1364  0.5836
   55MOL   C35328541   0.681   4.161   2.478 -0.1472  0.5686 -0.1728
   55MOL   C35428542   0.797   4.229   2.516 -0.4302 -0.1852  0.2930
   55MOL   H35528543   1.150   3.823   2.551  0.5518  0.7974  1.7431
   55MOL   H35628544   0.990   3.770   2.529  0.7927 -1.1629  0.6849
   55MOL   H35728545   1.113   3.833   2.783 -1.0998 -2.7086  1.5512
   55MOL   H35828546   1.081   4.401   2.566  1.4037 -0.6469 -1.3873
   55MOL   H35928547   1.302   4.409   2.670  2.4145 -1.4233 -1.8965
   55MOL   H36028548   1.394   4.221   2.786  0.9713 -0.3754 -1.8103
   55MOL   H36128549   1.254   4.006   2.803 -0.6120 -1.2026 -1.0702
   55MOL   H36228550   0.750   3.857   2.594  0.0560  0.2355  0.4929
   55MOL   H36328551   0.573   3.972   2.511  1.0082 -1.9655 -1.3400
   55MOL   H36428552   0.603   4.216   2.429  1.3704  3.9233  1.0504
   55MOL   H36528553   0.803   4.331   2.483 -1.8387  0.0963  0.9066
   55MOL   C36628554   0.927   3.756   2.810  0.0613  0.0601 -0.2962
   55MOL   C36728555   0.843   3.831   2.914 -0.4723 -0.1491 -0.1622
   55MOL   N36828556   0.767   3.735   2.990 -0.5549 -0.1631 -0.0497
   55MOL   C36928557   0.630   3.698   2.963 -0.8175 -0.1569  0.0534
   55MOL   C37028558   0.595   3.593   3.047 -0.4286 -0.2572 -0.8515
   55MOL   C37128559   0.461   3.542   3.031 -0.4902 -0.5593  0.8909
   55MOL   C37228560   0.378   3.581   2.923 -0.0474  0.1264 -0.1764
   55MOL   C37328561   0.417   3.691   2.844 -1.1080 -0.1678 -0.5028
   55MOL   C37428562   0.541   3.750   2.866 -0.9241 -0.4529  0.4185
   55MOL   C37528563   0.707   3.563   3.130  0.1852  0.8539  0.3905
   55MOL   C37628564   0.817   3.646   3.090  0.7026  0.2197 -0.0371
   55MOL   C37728565   0.941   3.636   3.150  0.0655  0.6797 -0.6820
   55MOL   C37828566   0.957   3.540   3.259  0.0747 -0.4163 -0.0668
   55MOL   C37928567   0.848   3.458   3.304  0.0247 -0.2758  0.6174
   55MOL   C38028568   0.724   3.469   3.236  0.6236 -0.0052 -0.0387
   55MOL   H38128569   0.861   3.702   2.743 -0.8507 -1.5870  1.8686
   55MOL   H38228570   0.978   3.679   2.868 -1.2843  0.2793  1.2155
   55MOL   H38328571   0.772   3.884   2.851  0.1182 -0.4443 -1.0979
   55MOL   H38428572   0.431   3.458   3.092 -0.6017 -0.7253  0.6096
   55MOL   H38528573   0.277   3.544   2.920 -0.2687  0.3674  3.1533
   55MOL   H38628574   0.344   3.736   2.779 -0.5075  0.7112 -0.5710
   55MOL   H38728575   0.566   3.828   2.795 -1.1260 -0.1394  0.6901
   55MOL   H38828576   1.017   3.707   3.122 -0.4379  1.3317 -0.4222
   55MOL   H38928577   1.052   3.527   3.309  0.9570  1.3396 -1.2074
   55MOL   H39028578   0.870   3.395   3.389  2.0634 -0.7047 -0.1977
   55MOL   H39128579   0.638   3.416   3.275 -0.1398  0.0762 -1.5912
   55MOL   C39228580   0.909   3.938   3.001  0.5073  0.3624 -0.3850
   55MOL   C39328581   0.843   4.079   2.994 -0.7657  0.1844  0.5436
   55MOL   N39428582   0.702   4.080   3.033  0.2126  0.4239 -0.0076
   55MOL   C39528583   0.584   4.095   2.952 -0.0605  0.3005  0.2129
   55MOL   C39628584   0.471   4.063   3.032  0.4206  0.0311  0.1429
   55MOL   C39728585   0.345   4.059   2.968  0.1571  0.0946 -0.2708
   55MOL   C39828586   0.333   4.087   2.829 -0.6999 -0.5926  0.4635
   55MOL   C39928587   0.444   4.122   2.757 -0.1600 -0.2632 -0.3258
   55MOL   C40028588   0.573   4.125   2.814  0.4711  0.0692  0.2712
   55MOL   C40128589   0.514   4.033   3.166  0.2743  0.0265 -0.0046
   55MOL   C40228590   0.655   4.045   3.160  0.7145  0.5139  0.6490
   55MOL   C40328591   0.725   4.025   3.278  0.6739 -0.9182 -0.2943
   55MOL   C40428592   0.654   3.989   3.399 -0.5931  1.0894 -0.0908
   55MOL   C40528593   0.517   4.004   3.406  0.2187 -0.4731  0.5435
   55MOL   C40628594   0.447   4.021   3.287  0.4167 -0.2189 -0.9539
   55MOL   H40728595   0.910   3.908   3.106 -1.5028  0.1957 -0.3958
   55MOL   H40828596   1.014   3.960   2.985  0.1961  0.8595 -1.8257
   55MOL   H40928597   0.845   4.108   2.889  0.4899 -2.2362 -0.1445
   55MOL   H41028598   0.256   4.044   3.027  0.3979  1.2188  0.3782
   55MOL   H41128599   0.234   4.095   2.789 -1.3880 -1.8559  1.8619
   55MOL   H41228600   0.438   4.141   2.651  3.4232  1.1920 -0.3426
   55MOL   H41328601   0.659   4.157   2.758 -0.3737  0.9199 -0.5621
   55MOL   H41428602   0.833   4.029   3.279  0.7242 -2.1015  0.9895
   55MOL   H41528603   0.706   3.964   3.491  0.5855  0.8583 -0.8028
   55MOL   H41628604   0.462   3.993   3.499 -0.6366 -0.8255  0.0038
   55MOL   H41728605   0.339   4.019   3.283  0.2590  1.8652  1.2570
   55MOL   C41828606   0.926   4.190   3.052 -1.0074  0.3188  0.2145
   55MOL   C41928607   0.856   4.327   3.056  0.0044  0.0691  0.3590
   55MOL   N42028608   0.924   4.419   3.151 -0.2208  0.1740  0.5089
   55MOL   C42128609   0.875   4.460   3.273  1.0669 -0.0970  0.0701
   55MOL   C42228610   0.954   4.557   3.329  0.1683 -0.3759 -0.0582
   55MOL   C42328611   0.914   4.612   3.454  0.4411 -1.1784  0.3844
   55MOL   C42428612   0.799   4.562   3.519 -0.2037  0.1729  0.0337
   55MOL   C42528613   0.717   4.459   3.460  0.4453 -0.1569 -0.5506
   55MOL   C42628614   0.751   4.421   3.332 -0.1370 -0.4133 -0.0409
   55MOL   C42728615   1.067   4.570   3.243 -0.0177 -0.2877  0.2103
   55MOL   C42828616   1.045   4.485   3.133 -0.3232 -0.4130 -0.1903
   55MOL   C42928617   1.144   4.460   3.039  0.1780  0.0210 -0.2387
   55MOL   C43028618   1.268   4.529   3.046  0.7263 -0.0398 -0.1076
   55MOL   C43128619   1.293   4.618   3.152  0.0465 -0.6724 -0.7480
   55MOL   C43228620   1.194   4.633   3.253  0.0781  0.6534 -0.5542
   55MOL   H43328621   0.949   4.160   3.154  3.3447  2.4364 -0.0308
   55MOL   H43428622   1.020   4.186   2.998 -0.8646 -1.7217  0.5730
   55MOL   H43528623   0.755   4.313   3.094  1.0669 -1.9779  2.5120
   55MOL   H43628624   0.976   4.680   3.510 -0.9684  2.1711 -1.9852
   55MOL   H43728625   0.769   4.607   3.612  0.3995  1.4977 -0.4126
   55MOL   H43828626   0.626   4.423   3.506  1.5571 -2.4757 -0.0790
   55MOL   H43928627   0.683   4.345   3.295  0.3589 -0.6404 -0.4904
   55MOL   H44028628   1.130   4.380   2.968  1.8251  0.0780 -0.6522
   55MOL   H44128629   1.337   4.507   2.965  0.9803  0.3945 -0.0115
   55MOL   H44228630   1.382   4.678   3.161  0.1272 -1.0742  1.4885
   55MOL   H44328631   1.195   4.709   3.330 -1.4697 -1.0786  1.2418
   55MOL   C44428632   0.831   4.389   2.916 -0.4919  0.5855  0.3682
   55MOL   C44528633   0.803   4.543   2.910  0.4245  0.8654 -0.4348
   55MOL   N44628634   0.810   4.584   2.768  0.0233  0.1547 -0.1258
   55MOL   C44728635   0.917   4.634   2.705 -0.2249 -0.0746  0.1302
   55MOL   C44828636   0.886   4.656   2.570  0.3007  0.4781  0.3642
   55MOL   C44928637   0.982   4.712   2.486 -0.4230  0.2554  0.1860
   55MOL   C45028638   1.109   4.756   2.535 -0.9239  0.2102  0.0788
   55MOL   C45128639   1.137   4.740   2.672  0.0945 -0.0581  0.1320
   55MOL   C45228640   1.042   4.676   2.756 -0.0951 -0.5130 -0.1966
   55MOL   C45328641   0.758   4.605   2.545  0.2537  0.1004  0.2239
   55MOL   C45428642   0.715   4.550   2.669  0.3495 -0.0985 -0.1143
   55MOL   C45528643   0.596   4.469   2.676 -0.0747 -0.0765 -0.4654
   55MOL   C45628644   0.512   4.460   2.566 -0.2697 -0.3445 -0.1226
   55MOL   C45728645   0.549   4.519   2.445 -0.4792 -0.1482  0.1586
   55MOL   C45828646   0.663   4.604   2.439  0.0851  0.2022  0.2720
   55MOL   H45928647   0.919   4.365   2.857 -0.1091 -0.6818  1.4289
   55MOL   H46028648   0.750   4.341   2.860  1.2744 -0.1989 -1.5568
   55MOL   H46128649   0.878   4.603   2.961 -1.1416  0.7933  2.0479
   55MOL   H46228650   0.957   4.720   2.381 -1.0990  1.5986  0.4434
   55MOL   H46328651   1.173   4.795   2.457 -1.6411  0.0441 -0.6041
   55MOL   H46428652   1.232   4.769   2.713  0.2501  1.1262 -1.0325
   55MOL   H46528653   1.061   4.663   2.862  1.0325  1.0746 -0.1713
   55MOL   H46628654   0.561   4.413   2.761  0.7891  1.6554  1.0756
   55MOL   H46728655   0.415   4.414   2.566  0.4916 -2.0124 -0.9662
   55MOL   H46828656   0.489   4.489   2.361 -3.0435 -0.9791  2.2133
   55MOL   H46928657   0.691   4.644   2.343 -1.9525 -0.5695 -0.6732
   55MOL   C47028658   0.677   4.577   2.990 -0.1305  0.5918  0.0919
   55MOL   C47128659   0.609   4.714   2.949 -0.8862 -1.0583 -0.1202
   55MOL   N47228660   0.481   4.726   3.015  0.2814  0.0351  0.0368
   55MOL   C47328661   0.348   4.726   2.958 -0.3394  0.4010 -0.2751
   55MOL   C47428662   0.246   4.753   3.054  0.3024 -0.7572 -0.0506
   55MOL   C47528663   0.113   4.760   3.016  0.1693 -0.2914  0.5061
   55MOL   C47628664   0.071   4.743   2.883 -0.1791 -0.0438  0.3936
   55MOL   C47728665   0.169   4.698   2.791  0.9248  0.8656 -0.2854
   55MOL   C47828666   0.308   4.688   2.831 -0.2117 -0.0612  0.2354
   55MOL   C47928667   0.319   4.769   3.175 -0.3705 -0.4184 -0.0529
   55MOL   C48028668   0.461   4.753   3.151  0.0113  0.3500  0.8088
   55MOL   C48128669   0.547   4.755   3.261  0.3920 -0.2815  1.0336
   55MOL   C48228670   0.497   4.783   3.388 -0.5563  0.3529  0.7429
   55MOL   C48328671   0.359   4.813   3.407 -0.4838  0.0699 -0.2833
   55MOL   C48428672   0.271   4.814   3.298 -0.0659 -0.9403  0.4699
   55MOL   H48528673   0.597   4.503   2.989 -0.5972  1.0867 -0.1371
   55MOL   H48628674   0.701   4.592   3.095  0.4631  1.3003 -0.1417
   55MOL   H48728675   0.587   4.716   2.843  0.4883 -0.1810 -0.4071
   55MOL   H48828676   0.042   4.778   3.096 -1.1217 -1.8380 -0.2588
   55MOL   H48928677   8.194   4.752   2.858 -0.3656 -1.5952  0.5312
   55MOL   H49028678   0.122   4.678   2.696 -2.6509  0.2310  1.5063
   55MOL   H49128679   0.391   4.672   2.763  3.1579  2.9326  3.4223
   55MOL   H49228680   0.653   4.735   3.250  0.0922 -1.9154  0.9904
   55MOL   H49328681   0.564   4.784   3.473  0.1352 -1.8611  0.2696
   55MOL   H49428682   0.323   4.850   3.502 -0.9844  0.0499 -0.4639
   55MOL   H49528683   0.168   4.844   3.300  0.1101 -0.3778  1.2679
   55MOL   C49628684   0.701   4.841   2.974 -0.1729  0.3067  0.3753
   55MOL   C49728685   0.637   4.979   2.945  0.6349 -0.1930 -0.0050
   55MOL   N49828686   0.585   5.005   2.814 -0.0514 -0.3708  0.1198
   55MOL   C49928687   0.454   5.031   2.777  0.3693  0.5049 -0.1377
   55MOL   C50028688   0.442   5.049   2.635 -0.1843 -0.3454  0.1812
   55MOL   C50128689   0.317   5.083   2.578 -0.1412  0.2038 -0.1315
   55MOL   C50228690   0.203   5.088   2.659 -0.3588 -0.2949 -0.2725
   55MOL   C50328691   0.212   5.057   2.799 -0.0012 -0.6250 -0.4437
   55MOL   C50428692   0.337   5.041   2.856 -0.1087  0.0169 -0.2000
   55MOL   C50528693   0.576   5.041   2.584 -0.2862 -0.5375 -0.4179
   55MOL   C50628694   0.662   5.022   2.696 -0.0992  0.5536  0.3723
   55MOL   C50728695   0.802   5.014   2.683  0.8164  0.3233  0.0638
   55MOL   C50828696   0.857   5.043   2.555  0.1067  0.2155 -0.9480
   55MOL   C50928697   0.774   5.081   2.444 -0.6977  0.6255 -0.0770
   55MOL   C51028698   0.638   5.067   2.460  0.7980 -0.0619 -0.0216
   55MOL   H51128699   0.737   4.861   3.075  0.6228  1.8250 -0.1880
   55MOL   H51228700   0.790   4.819   2.915 -0.5786  1.9595 -0.8801
   55MOL   H51328701   0.710   5.060   2.957  1.1634 -0.8773  1.6166
   55MOL   H51428702   0.304   5.103   2.473 -0.7802 -1.8106 -0.4407
   55MOL   H51528703   0.103   5.105   2.622 -0.7735 -0.6997  0.6316
   55MOL   H51628704   0.122   5.042   2.856 -0.2609 -0.3749 -0.7890
   55MOL   H51728705   0.340   5.020   2.961  0.9112 -1.9699 -0.6062
   55MOL   H51828706   0.862   4.979   2.764  1.9759  0.6227 -0.6540
   55MOL   H51928707   0.963   5.043   2.536  0.4093 -1.2236  0.6321
   55MOL   H52028708   0.809   5.106   2.345  0.3204  0.9027  0.3466
   55MOL   H52128709   0.574   5.094   2.378 -1.7838 -1.0728  1.6009
   55MOL   H52228710   0.564   5.008   3.020 -0.1671  2.4302 -1.7300
   56MOL     C128711   7.465   3.548   0.936 -0.0707  0.0566 -0.3856
   56MOL     C228712   7.511   3.443   0.836 -0.4303  0.4795 -0.0360
   56MOL     N328713   7.428   3.327   0.832  0.1199 -0.2826 -0.1390
   56MOL     C428714   7.467   3.198   0.869 -0.2747  0.2952 -0.4729
   56MOL     C528715   7.355   3.108   0.856  0.9518 -0.8980 -0.8219
   56MOL     C628716   7.361   2.975   0.901  0.0127  0.0163 -0.4569
   56MOL     C728717   7.493   2.926   0.941 -0.3067 -0.4141  0.3697
   56MOL     C828718   7.607   3.013   0.938 -0.1073 -0.2301  0.3944
   56MOL     C928719   7.590   3.152   0.920 -0.3069  0.1417 -0.0767
   56MOL    C1028720   7.252   3.177   0.795 -0.5723 -0.5144  0.4795
   56MOL    C1128721   7.296   3.315   0.786  0.8785 -0.1721 -0.8456
   56MOL    C1228722   7.204   3.413   0.740  0.5984 -0.6459  0.4188
   56MOL    C1328723   7.069   3.374   0.704  0.0091  0.2737 -0.5045
   56MOL    C1428724   7.029   3.240   0.712 -0.1839 -0.3895 -0.6181
   56MOL    C1528725   7.122   3.143   0.752  0.1124 -0.1171 -0.3363
   56MOL    H1628726   7.380   3.611   0.909 -1.8137 -2.3099 -0.5816
   56MOL    H1728727   7.546   3.615   0.966  0.1825  0.3376 -1.6624
   56MOL    H1828728   7.613   3.409   0.854 -0.4407  0.6134  0.2836
   56MOL    H1928729   7.274   2.913   0.888 -1.1937  1.4237  0.8288
   56MOL    H2028730   7.513   2.822   0.958 -2.0864 -0.9277 -0.5636
   56MOL    H2128731   7.704   2.989   0.979 -0.6999 -0.2236  1.8223
   56MOL    H2228732   7.673   3.218   0.941 -1.2284  1.5041 -0.5722
   56MOL    H2328733   7.240   3.514   0.728  2.1319 -1.2342 -0.0318
   56MOL    H2428734   6.991   3.444   0.677  0.8525  1.3441 -0.1921
   56MOL    H2528735   6.926   3.213   0.693 -1.3743  2.9772  0.6552
   56MOL    H2628736   7.085   3.041   0.755 -0.5567  0.1293  0.1349
   56MOL    H2728737   7.433   3.502   1.029  1.0767  0.3137  0.1489
   56MOL    C2828738   7.539   3.505   0.696 -0.3794 -0.1069  1.0093
   56MOL    C2928739   7.549   3.419   0.568  0.4461 -0.3221 -0.2972
   56MOL    N3028740   7.573   3.510   0.462  0.0125 -0.3074 -0.2140
   56MOL    C3128741   7.472   3.568   0.380 -0.4459 -0.4496 -0.4688
   56MOL    C3228742   7.533   3.673   0.304 -0.0107  0.1814 -0.3278
   56MOL    C3328743   7.457   3.749   0.212  0.8835 -0.7079 -0.4684
   56MOL    C3428744   7.317   3.738   0.212  0.6750  0.2196 -0.6621
   56MOL    C3528745   7.251   3.635   0.291  0.7700 -0.0086  0.7313
   56MOL    C3628746   7.328   3.556   0.375  0.1660  0.1520 -0.5840
   56MOL    C3728747   7.678   3.659   0.323  0.1877  0.6315 -0.8756
   56MOL    C3828748   7.699   3.564   0.430  0.4568 -0.0906  0.0710
   56MOL    C3928749   7.833   3.548   0.477  0.3953  0.6763  0.0129
   56MOL    C4028750   7.946   3.607   0.414  0.4238  0.3449 -0.1555
   56MOL    C4128751   7.923   3.694   0.309 -0.5969  0.0329 -0.6429
   56MOL    C4228752   7.789   3.718   0.263 -1.1505  0.0316 -0.2132
   56MOL    H4328753   7.455   3.573   0.681 -0.8782 -0.8266  0.5211
   56MOL    H4428754   7.626   3.572   0.696  0.0825 -0.6339 -1.5071
   56MOL    H4528755   7.449   3.379   0.551 -0.8863  2.4865  0.6757
   56MOL    H4628756   7.512   3.818   0.149 -0.6780  0.8600 -0.1755
   56MOL    H4728757   7.258   3.803   0.149  0.2022  0.8266  0.3731
   56MOL    H4828758   7.146   3.625   0.312  1.0986 -1.1373  1.9081
   56MOL    H4928759   7.277   3.484   0.437  3.3129 -2.6520 -1.0961
   56MOL    H5028760   7.849   3.488   0.565  0.8204  0.6898 -0.0547
   56MOL    H5128761   8.047   3.590   0.448 -0.1226 -1.6946  0.5138
   56MOL    H5228762   8.012   3.740   0.270 -0.3540  0.4582  0.3832
   56MOL    H5328763   7.776   3.790   0.185 -1.8308  0.3295  0.1721
   56MOL    C5428764   7.643   3.295   0.575  1.0823 -0.6626  0.2275
   56MOL    C5528765   7.692   3.231   0.446 -0.4508  0.2654 -0.0961
   56MOL    N5628766   7.795   3.131   0.459 -0.2531  0.2472 -0.5629
   56MOL    C5728767   7.923   3.149   0.403 -0.8284 -0.4556 -0.8050
   56MOL    C5828768   7.994   3.031   0.425 -0.4942  0.0725 -0.2780
   56MOL    C5928769   8.129   3.028   0.382 -0.7235 -0.2740 -0.2825
   56MOL    C6028770   8.193   3.138   0.318  0.6389 -0.1297 -0.8305
   56MOL    C6128771   8.117   3.253   0.287 -0.1459 -0.8155 -0.0465
   56MOL    C6228772   7.982   3.258   0.322 -1.0354 -0.1884 -0.0593
   56MOL    C6328773   7.905   2.932   0.487 -0.2071 -0.8370  0.0852
   56MOL    C6428774   7.785   3.002   0.515  0.3137 -0.4711 -0.0141
   56MOL    C6528775   7.682   2.938   0.587 -0.2031  0.2097  0.0341
   56MOL    C6628776   7.695   2.802   0.621  0.0149 -0.0301  0.3062
   56MOL    C6728777   7.811   2.733   0.581  0.2415 -0.8013  0.5988
   56MOL    C6828778   7.922   2.801   0.532  0.0078 -0.7523  0.1437
   56MOL    H6928779   7.728   3.320   0.637  2.1442 -1.6725 -0.8005
   56MOL    H7028780   7.590   3.215   0.627  0.7579  0.1204  1.0996
   56MOL    H7128781   7.739   3.300   0.376 -1.3893 -0.4667 -1.4713
   56MOL    H7228782   8.182   2.937   0.406  1.9534  1.4240  0.5017
   56MOL    H7328783   0.072   3.128   0.301  0.4781 -0.6101 -1.5730
   56MOL    H7428784   8.163   3.339   0.241 -0.6518 -1.8250 -2.5031
   56MOL    H7528785   7.931   3.349   0.295  0.8860  1.6972  2.4737
   56MOL    H7628786   7.601   3.002   0.620  2.2204  2.7946  1.1745
   56MOL    H7728787   7.616   2.752   0.675  0.6665 -2.8345 -1.2491
   56MOL    H7828788   7.831   2.628   0.598  1.1525 -1.0553 -1.9025
   56MOL    H7928789   8.016   2.751   0.513  1.4357  1.3863  1.4520
   56MOL    C8028790   7.585   3.177   0.348  0.9363  0.4505  0.4237
   56MOL    C8128791   7.642   3.154   0.211  0.0531  1.5450  0.8531
   56MOL    N8228792   7.579   3.034   0.145  0.5728  0.3654  0.4197
   56MOL    C8328793   7.644   2.910   0.127  0.0764 -0.3694  0.4598
   56MOL    C8428794   7.555   2.823   0.064 -0.4545 -0.2137 -0.5053
   56MOL    C8528795   7.604   2.695   0.034  0.4430 -0.1359  0.8767
   56MOL    C8628796   7.728   2.648   0.078 -0.5985 -0.2405  0.0922
   56MOL    C8728797   7.812   2.738   0.147 -0.1783 -0.3621  0.3925
   56MOL    C8828798   7.773   2.874   0.168  0.0267  0.5150  0.5709
   56MOL    C8928799   7.431   2.893   0.042 -0.2121 -0.1375 -0.3196
   56MOL    C9028800   7.452   3.024   0.095 -0.0663 -0.3713  0.4414
   56MOL    C9128801   7.344   3.113   0.082 -0.4944  0.4253 -0.5284
   56MOL    C9228802   7.216   3.070   0.039 -0.7038  0.2488  1.0913
   56MOL    C9328803   7.205   2.946   8.204 -0.0926  0.0538  0.0730
   56MOL    C9428804   7.315   2.860   8.199  0.3589 -0.4257 -0.4740
   56MOL    H9528805   7.537   3.087   0.387 -0.0526  1.0276  0.5282
   56MOL    H9628806   7.506   3.250   0.334  1.2945  0.4773 -1.4656
   56MOL    H9728807   7.748   3.126   0.213 -0.3803 -0.1287  1.4458
   56MOL    H9828808   7.542   2.630   8.202  0.8258  0.8046 -0.5988
   56MOL    H9928809   7.754   2.544   0.061 -0.7224 -0.4659  1.2454
   56MOL   H10028810   7.910   2.719   0.190  0.5061  3.1866  0.6160
   56MOL   H10128811   7.847   2.936   0.216 -0.1612  1.9869 -1.0056
   56MOL   H10228812   7.341   3.217   0.108 -2.0754  0.6657 -1.5620
   56MOL   H10328813   7.133   3.139   0.040 -0.5604  0.4226  0.8163
   56MOL   H10428814   7.111   2.917   8.159 -1.2626  0.7252  1.9965
   56MOL   H10528815   7.308   2.757   8.166  0.5814 -1.6181  3.0053
   56MOL   C10628816   7.649   3.282   0.125  0.5839  0.5293  0.1731
   56MOL   C10728817   7.672   3.250   8.202 -0.4909  0.2952  0.3031
   56MOL   N10828818   7.653   3.368   8.117 -0.7974  0.1606 -0.2179
   56MOL   C10928819   7.569   3.373   8.009  0.2288  0.1492  0.0979
   56MOL   C11028820   7.594   3.497   7.943  0.1793  0.5444 -0.0543
   56MOL   C11128821   7.535   3.523   7.818  0.3068  0.3715 -0.7786
   56MOL   C11228822   7.440   3.431   7.768 -0.0619  0.2344  0.0431
   56MOL   C11328823   7.404   3.315   7.839  0.1583 -0.2473 -0.4116
   56MOL   C11428824   7.473   3.280   7.958 -0.5143 -0.4870  0.1482
   56MOL   C11528825   7.679   3.569   8.022 -0.3313 -0.1211 -0.1054
   56MOL   C11628826   7.725   3.485   8.127  0.6611  0.5287  0.1894
   56MOL   C11728827   7.837   3.522   8.211 -0.4139 -0.1045  0.2974
   56MOL   C11828828   7.895   3.650   8.192  0.6982 -0.0607 -0.4251
   56MOL   C11928829   7.843   3.736   8.095 -0.4164 -0.2332  0.7700
   56MOL   C12028830   7.742   3.692   8.007  0.6102 -0.2262 -0.6134
   56MOL   H12128831   7.558   3.342   0.132  1.3059  1.7334 -0.5548
   56MOL   H12228832   7.729   3.345   0.164  0.1292  1.1957  0.0526
   56MOL   H12328833   7.585   3.192   8.172 -1.1860  1.4776 -0.0097
   56MOL   H12428834   7.558   3.613   7.764  0.7620  0.6960 -0.0542
   56MOL   H12528835   7.375   3.455   7.686 -1.0961 -1.4928  0.3271
   56MOL   H12628836   7.340   3.239   7.798  1.6584 -0.5303 -2.3284
   56MOL   H12728837   7.454   3.185   8.005 -1.1764 -1.1622 -1.4672
   56MOL   H12828838   7.867   3.456   0.063 -1.0478 -0.8317 -0.0592
   56MOL   H12928839   7.981   3.673   0.026  0.1859 -0.7777  0.5602
   56MOL   H13028840   7.880   3.835   8.075 -1.4103 -0.1911 -0.9148
   56MOL   H13128841   7.716   3.753   7.922 -1.9156 -4.0960 -2.8060
   56MOL   C13228842   7.809   3.174   8.175  0.1468 -0.2975 -0.3916
   56MOL   C13328843   7.820   3.120   8.033  0.7014 -0.3107  0.8060
   56MOL   N13428844   7.956   3.091   7.987 -0.1495  0.0812 -0.2829
   56MOL   C13528845   8.024   3.159   7.887 -0.0620  0.3633 -0.2693
   56MOL   C13628846   8.153   3.103   7.864 -0.9421  0.3320 -0.2281
   56MOL   C13728847   0.011   3.157   7.768 -0.5413  0.6987 -0.2939
   56MOL   C13828848   8.193   3.263   7.690  0.7868 -0.4996 -0.3804
   56MOL   C13928849   8.066   3.315   7.707  0.5745  0.3031  0.5773
   56MOL   C14028850   7.985   3.276   7.809  0.3436 -0.2733  0.2665
   56MOL   C14128851   8.171   2.994   7.958  0.7483  0.6329 -1.0769
   56MOL   C14228852   8.042   2.983   8.025 -0.3120  0.0164 -0.1769
   56MOL   C14328853   8.019   2.877   8.112  0.9716  0.0429 -0.5977
   56MOL   C14428854   8.124   2.782   8.144  1.2584 -0.9892  0.3189
   56MOL   C14528855   0.014   2.787   8.079 -0.5153  0.1397 -0.2421
   56MOL   C14628856   0.042   2.891   7.984 -0.0641  0.1578  0.4582
   56MOL   H14728857   7.886   3.251   8.175 -0.8307  0.6922 -0.9367
   56MOL   H14828858   7.834   3.096   0.020 -1.4727 -1.0000 -0.5589
   56MOL   H14928859   7.786   3.207   7.977 -0.4233 -1.5748 -0.5220
   56MOL   H15028860   0.111   3.119   7.753 -1.3696 -1.1250 -1.3557
   56MOL   H15128861   0.019   3.319   7.614  0.6511 -2.0214 -1.6086
   56MOL   H15228862   8.028   3.389   7.638 -2.1654 -2.7896 -1.3719
   56MOL   H15328863   7.892   3.328   7.826  1.8822  2.2565  1.1596
   56MOL   H15428864   7.922   2.874   8.159  0.7600 -0.4056 -1.0487
   56MOL   H15528865   8.112   2.689   8.198  0.1507 -2.4091 -2.2539
   56MOL   H15628866   0.095   2.718   8.100 -1.9353 -1.5554 -0.2456
   56MOL   H15728867   0.128   2.879   7.920 -0.3161  0.7001  0.0147
   56MOL   C15828868   7.714   3.008   8.015 -0.4414 -0.3714  0.6123
   56MOL   C15928869   7.723   2.930   7.877 -0.0114 -0.3308  0.5463
   56MOL   N16028870   7.623   2.817   7.870  0.8336 -0.7029  0.7496
   56MOL   C16128871   7.658   2.679   7.888  0.4116  0.4899  0.5152
   56MOL   C16228872   7.541   2.600   7.875  0.0906  0.0369 -0.0045
   56MOL   C16328873   7.556   2.458   7.882  0.1800  0.0339  0.0218
   56MOL   C16428874   7.676   2.397   7.913  0.4821 -0.9151 -0.4715
   56MOL   C16528875   7.788   2.473   7.936 -0.2814  0.7481 -0.8328
   56MOL   C16628876   7.783   2.613   7.914  0.4755 -0.4663 -0.1418
   56MOL   C16728877   7.425   2.693   7.869 -0.7084 -0.0666 -0.1897
   56MOL   C16828878   7.479   2.826   7.860  0.2730 -0.0283 -1.1620
   56MOL   C16928879   7.392   2.938   7.850 -0.9612  0.8997  0.1503
   56MOL   C17028880   7.259   2.927   7.856  0.3555  0.3958  0.2747
   56MOL   C17128881   7.205   2.794   7.855  0.0598 -1.1744  0.2047
   56MOL   C17228882   7.281   2.676   7.861 -0.5714 -0.0670  0.1513
   56MOL   H17328883   7.725   2.939   8.098 -1.2818 -0.7042  0.4564
   56MOL   H17428884   7.614   3.051   8.012  0.1261  0.9369  0.1450
   56MOL   H17528885   7.824   2.890   7.869  0.9295  2.0623  0.2613
   56MOL   H17628886   7.467   2.398   7.870  0.2215 -0.4132  1.8567
   56MOL   H17728887   7.678   2.289   7.924  0.4821 -0.7268  1.5626
   56MOL   H17828888   7.885   2.434   7.963 -0.4897  2.6169  2.9729
   56MOL   H17928889   7.870   2.675   7.926 -0.1113 -0.0575  2.1686
   56MOL   H18028890   7.422   3.041   7.831  0.1407  0.4668 -0.5509
   56MOL   H18128891   7.199   3.012   7.826 -1.1992 -0.5525  0.6253
   56MOL   H18228892   7.101   2.793   7.827 -0.4049 -1.4499  1.8858
   56MOL   H18328893   7.240   2.577   7.851  0.9297 -0.8459  1.4915
   56MOL   C18428894   7.689   3.012   7.746 -0.1652 -0.5396  0.4334
   56MOL   C18528895   7.697   2.932   7.611 -0.7434  0.1401  0.1682
   56MOL   N18628896   7.622   2.995   7.503 -0.4127 -0.4481  0.2191
   56MOL   C18728897   7.490   2.964   7.477  0.2878 -0.5256 -0.0499
   56MOL   C18828898   7.445   3.053   7.377  0.5032 -0.0185 -1.0229
   56MOL   C18928899   7.311   3.043   7.336 -0.0768  0.2311 -0.8699
   56MOL   C19028900   7.224   2.944   7.386 -0.3474  0.0580 -0.0644
   56MOL   C19128901   7.272   2.846   7.478  0.2583 -0.3757  0.2860
   56MOL   C19228902   7.403   2.860   7.523 -1.0849  0.1687 -0.0711
   56MOL   C19328903   7.555   3.140   7.334 -1.0925  1.2442 -0.3718
   56MOL   C19428904   7.659   3.102   7.417  0.4037  0.5046 -0.1753
   56MOL   C19528905   7.785   3.172   7.410 -0.1823 -0.5440  0.7241
   56MOL   C19628906   7.798   3.276   7.320  0.0519 -0.4396 -0.8041
   56MOL   C19728907   7.695   3.320   7.235 -0.2536  0.6611 -0.0316
   56MOL   C19828908   7.571   3.248   7.242 -0.4268  0.0284  0.4171
   56MOL   H19928909   7.601   3.075   7.738  1.6972  1.8340 -2.7682
   56MOL   H20028910   7.766   3.090   7.749 -0.2636 -0.5267  4.0004
   56MOL   H20128911   7.654   2.833   7.627  1.8040 -0.6123  2.9637
   56MOL   H20228912   7.279   3.117   7.264 -1.0431 -0.8193 -1.5574
   56MOL   H20328913   7.121   2.944   7.354 -0.2368 -2.1574 -0.4621
   56MOL   H20428914   7.204   2.773   7.520  1.7800 -1.3480  1.1131
   56MOL   H20528915   7.436   2.793   7.601 -1.1235 -0.8161 -0.8915
   56MOL   H20628916   7.877   3.146   7.461 -0.0293  2.9906  2.4129
   56MOL   H20728917   7.894   3.323   7.308 -0.5536  1.0365  0.0009
   56MOL   H20828918   7.708   3.393   7.157 -0.0173  0.5267 -0.1169
   56MOL   H20928919   7.488   3.267   7.176 -0.4754 -0.8922  0.1920
   56MOL   C21028920   7.838   2.876   7.577 -0.5585  0.2586 -0.1687
   56MOL   C21128921   7.843   2.783   7.455 -0.5354 -0.5179  0.4059
   56MOL   N21228922   7.983   2.763   7.421  0.3820 -0.3900  0.0487
   56MOL   C21328923   8.042   2.812   7.301  0.5014  1.0849 -0.5279
   56MOL   C21428924   8.182   2.774   7.301  0.1822 -0.0093 -0.6230
   56MOL   C21528925   0.028   2.802   7.183 -0.3638 -0.1741 -0.1677
   56MOL   C21628926   8.202   2.876   7.079  0.6065  0.0793  0.4952
   56MOL   C21728927   8.073   2.929   7.096  1.0009 -0.3776  0.5218
   56MOL   C21828928   7.989   2.895   7.207 -0.0363  0.2091  0.5755
   56MOL   C21928929   8.207   2.697   7.422 -0.4021  0.0172 -0.5045
   56MOL   C22028930   8.082   2.704   7.499 -0.9083 -0.5690 -0.5488
   56MOL   C22128931   8.076   2.656   7.632 -1.1502 -0.2651  0.3650
   56MOL   C22228932   8.190   2.591   7.693 -0.8804  0.9128  0.1585
   56MOL   C22328933   0.082   2.581   7.609  0.1039 -0.3269  0.0652
   56MOL   C22428934   0.087   2.629   7.481  0.3337  0.0333  0.4824
   56MOL   H22528935   7.915   2.949   7.552  0.1371  0.0375  1.2791
   56MOL   H22628936   7.865   2.808   7.658 -0.5191  0.0457 -0.3609
   56MOL   H22728937   7.797   2.829   7.367  2.2755  1.0870 -0.2937
   56MOL   H22828938   0.131   2.770   7.184  0.3859  1.9590 -2.7047
   56MOL   H22928939   0.037   2.901   6.994 -0.2594 -0.0612 -0.1866
   56MOL   H23028940   8.034   2.999   7.025 -2.3591  0.4242  3.0498
   56MOL   H23128941   7.887   2.931   7.212 -1.1909 -2.7719 -0.7155
   56MOL   H23228942   7.984   2.647   7.688 -1.0323 -0.9772  0.4487
   56MOL   H23328943   8.196   2.550   7.792 -1.6835  0.5956  0.0750
   56MOL   H23428944   0.171   2.523   7.628  2.1247  2.7367  0.2733
   56MOL   H23528945   0.184   2.619   7.433  0.7764 -0.4732  1.4641
   56MOL   C23628946   7.768   2.646   7.473  0.5389  0.1871 -0.6701
   56MOL   C23728947   7.774   2.542   7.368  0.0867  0.7855 -0.1380
   56MOL   N23828948   7.880   2.454   7.386  0.1610  0.5316  0.0253
   56MOL   C23928949   7.989   2.437   7.295  1.0409 -0.4794  0.4222
   56MOL   C24028950   8.089   2.349   7.344 -0.0941  0.5177  0.4127
   56MOL   C24128951   8.204   2.326   7.265  0.7976  0.4268  0.3914
   56MOL   C24228952   8.225   2.386   7.142 -0.6932 -0.1526 -0.1738
   56MOL   C24328953   8.125   2.473   7.095 -0.0677  0.5052 -0.2853
   56MOL   C24428954   8.011   2.497   7.169  0.1785 -0.1406 -0.3347
   56MOL   C24528955   8.038   2.312   7.473 -0.3435 -0.0156 -0.4270
   56MOL   C24628956   7.908   2.365   7.488  0.5700 -0.5526  0.3602
   56MOL   C24728957   7.830   2.338   7.601 -0.4430  0.2081  0.0988
   56MOL   C24828958   7.877   2.245   7.696 -0.6594 -0.2439  0.1364
   56MOL   C24928959   8.009   2.196   7.693  0.2330  0.4144  0.4305
   56MOL   C25028960   8.088   2.232   7.586  0.0201  0.4343  0.5265
   56MOL   H25128961   7.793   2.607   7.571 -1.2284 -0.9452 -0.6684
   56MOL   H25228962   7.666   2.681   7.484  0.3050 -1.3842  2.5690
   56MOL   H25328963   7.789   2.610   7.284  0.7753  2.6046  1.4069
   56MOL   H25428964   0.048   2.257   7.306  0.0488 -0.3057  0.4734
   56MOL   H25528965   0.091   2.370   7.091 -0.1900  1.4574  0.2221
   56MOL   H25628966   8.141   2.526   7.002 -1.3197 -0.6373 -1.1578
   56MOL   H25728967   7.936   2.557   7.120  1.2276  1.7069  0.3018
   56MOL   H25828968   7.728   2.374   7.605 -0.4639  0.0531  1.1163
   56MOL   H25928969   7.822   2.215   7.784 -1.3152 -0.0112 -0.1883
   56MOL   H26028970   8.050   2.118   7.755  0.4374  0.7889  0.7674
   56MOL   H26128971   8.181   2.178   7.573 -0.2785  0.4010 -1.6379
   56MOL   C26228972   7.630   2.477   7.348  0.5095 -0.2251  0.1200
   56MOL   C26328973   7.549   2.564   7.256 -0.1857 -0.0544  0.2660
   56MOL   N26428974   7.616   2.580   7.123  0.1309 -0.6500 -0.3575
   56MOL   C26528975   7.642   2.699   7.057 -0.4005 -0.5200 -0.5125
   56MOL   C26628976   7.680   2.676   6.924 -1.0253 -0.0751 -0.8075
   56MOL   C26728977   7.712   2.785   6.840 -0.1121 -0.0118  0.4985
   56MOL   C26828978   7.696   2.912   6.889  0.7223  0.3363 -0.0015
   56MOL   C26928979   7.657   2.941   7.019  0.0382 -0.2427  0.1246
   56MOL   C27028980   7.635   2.833   7.103  0.4493 -0.0795 -0.1450
   56MOL   C27128981   7.690   2.532   6.916  0.9394  0.2995 -0.5372
   56MOL   C27228982   7.641   2.472   7.033 -0.0143  0.2630 -0.2651
   56MOL   C27328983   7.628   2.331   7.051 -0.2809  1.1377 -0.2552
   56MOL   C27428984   7.657   2.244   6.949  0.2485 -0.3716  0.1411
   56MOL   C27528985   7.713   2.296   6.830  0.2555  0.7325 -0.5208
   56MOL   C27628986   7.723   2.438   6.814  0.0378 -0.3421 -0.1214
   56MOL   H27728987   7.624   2.377   7.307 -2.5379 -0.3522  0.7574
   56MOL   H27828988   7.584   2.461   7.446  1.3877  0.0684  0.5908
   56MOL   H27928989   7.538   2.664   7.298  1.8055 -0.0862  0.9497
   56MOL   H28028990   7.754   2.758   6.744  2.1942  1.6107  1.0128
   56MOL   H28128991   7.737   2.994   6.831  4.0261 -2.1592 -1.3380
   56MOL   H28228992   7.632   3.042   7.046  0.4886 -0.2479  0.5556
   56MOL   H28328993   7.609   2.858   7.205 -1.7973  0.3293 -0.8093
   56MOL   H28428994   7.573   2.289   7.133  0.8109  0.5695  0.1983
   56MOL   H28528995   7.660   2.138   6.967  1.3006 -0.7415 -2.0440
   56MOL   H28628996   7.735   2.235   6.743  1.6260  0.8752 -0.2960
   56MOL   H28728997   7.749   2.478   6.717 -0.7359  0.1761 -0.1259
   56MOL   C28828998   7.405   2.523   7.256  1.0018 -0.0868 -0.6267
   56MOL   C28928999   7.318   2.552   7.139  0.3954  0.1925 -0.5159
   56MOL   N29029000   7.199   2.465   7.136 -0.1666 -0.1474 -0.3798
   56MOL   C29129001   7.175   2.357   7.055 -0.4272  0.5890 -0.2011
   56MOL   C29229002   7.053   2.292   7.096 -0.3884  0.1415  0.6318
   56MOL   C29329003   7.002   2.180   7.022 -0.7792  0.2467  0.1852
   56MOL   C29429004   7.068   2.142   6.905  0.1096  0.5049  0.4809
   56MOL   C29529005   7.197   2.196   6.872  0.7020 -0.1747 -0.2670
   56MOL   C29629006   7.249   2.302   6.946  0.1610 -0.1233 -0.2144
   56MOL   C29729007   7.009   2.359   7.213 -0.2676  0.0397  0.1404
   56MOL   C29829008   7.100   2.466   7.237 -0.0944 -0.2522 -0.0519
   56MOL   C29929009   7.069   2.555   7.340  0.1180  0.0031  0.3097
   56MOL   C30029010   6.960   2.532   7.426  1.0532  0.0658 -0.2212
   56MOL   C30129011   6.881   2.423   7.411 -0.4233  0.2147  0.1938
   56MOL   C30229012   6.904   2.338   7.303  0.2313  0.3903 -0.2468
   56MOL   H30329013   7.399   2.415   7.266  0.0118  0.0897  0.7893
   56MOL   H30429014   7.341   2.560   7.336 -0.5381  1.2532 -2.4436
   56MOL   H30529015   7.373   2.511   7.054 -1.9830  0.0384 -2.0536
   56MOL   H30629016   6.909   2.136   7.057 -1.3008  1.8322  0.8707
   56MOL   H30729017   7.023   2.066   6.844 -0.2969  1.3499 -0.2839
   56MOL   H30829018   7.249   2.164   6.783  1.3552  0.6983 -0.2091
   56MOL   H30929019   7.350   2.337   6.930  0.7384 -2.9259 -3.2294
   56MOL   H31029020   7.141   2.633   7.358 -0.0622  0.0814  0.7062
   56MOL   H31129021   6.937   2.601   7.506  0.4902 -0.0659 -0.2742
   56MOL   H31229022   6.793   2.401   7.470  0.5984 -0.7714  1.3579
   56MOL   H31329023   6.839   2.255   7.278  1.1985  0.5274 -3.5295
   56MOL   C31429024   7.281   2.701   7.113 -0.7966 -0.1163 -0.0537
   56MOL   C31529025   7.151   2.730   7.032  0.7721 -0.3590  0.1030
   56MOL   N31629026   7.113   2.877   7.038 -0.3059  0.6887  0.3321
   56MOL   C31729027   6.989   2.935   7.067 -0.5278  0.1537 -0.4919
   56MOL   C31829028   7.004   3.080   7.062 -0.1744  0.6302  0.0463
   56MOL   C31929029   6.880   3.156   7.091 -0.3842  0.7123  0.0234
   56MOL   C32029030   6.760   3.096   7.115  0.1788 -0.0018 -0.6657
   56MOL   C32129031   6.758   2.959   7.130 -0.4845  0.6317 -0.0259
   56MOL   C32229032   6.868   2.874   7.105 -0.4533 -0.2889  0.4225
   56MOL   C32329033   7.137   3.105   7.020 -0.4027 -0.0961 -1.0259
   56MOL   C32429034   7.198   2.982   6.995  0.0543 -0.4745 -0.1464
   56MOL   C32529035   7.329   2.983   6.950 -0.0538  0.4911 -0.0496
   56MOL   C32629036   7.399   3.101   6.922 -0.1378 -0.4464 -0.0527
   56MOL   C32729037   7.331   3.222   6.935 -0.3241 -1.1718 -0.4104
   56MOL   C32829038   7.200   3.225   6.994 -0.5429 -0.0499 -0.8301
   56MOL   H32929039   7.258   2.748   7.209  1.8398 -0.1510  0.6322
   56MOL   H33029040   7.365   2.758   7.073  0.7089 -2.0527  0.3130
   56MOL   H33129041   7.067   2.685   7.085 -0.8109  0.1020 -1.9514
   56MOL   H33229042   6.893   3.263   7.089  0.9719  0.5387 -1.7161
   56MOL   H33329043   6.675   3.161   7.130  0.6184  0.7198 -1.2903
   56MOL   H33429044   6.665   2.914   7.161 -0.3390  0.9301  0.8732
   56MOL   H33529045   6.853   2.767   7.104 -0.8344 -0.2353  0.3678
   56MOL   H33629046   7.382   2.890   6.933 -0.8358  0.1145 -0.4951
   56MOL   H33729047   7.497   3.086   6.880  0.2295  0.0067  0.6427
   56MOL   H33829048   7.372   3.318   6.910  0.5151 -1.2781  0.5330
   56MOL   H33929049   7.148   3.318   7.012  2.3058  1.4960 -0.1989
   56MOL   C34029050   7.163   2.688   6.884 -0.4042  0.4928 -0.0912
   56MOL   C34129051   7.042   2.702   6.783 -0.7202 -0.4153 -0.7526
   56MOL   N34229052   7.095   2.685   6.649 -0.1297  0.5739  0.4066
   56MOL   C34329053   7.159   2.788   6.568  0.3168  1.1132 -0.0488
   56MOL   C34429054   7.208   2.731   6.446 -0.2174 -0.0102 -0.0604
   56MOL   C34529055   7.266   2.817   6.345 -0.1336  0.4105 -1.9256
   56MOL   C34629056   7.281   2.957   6.372  0.1653  0.5048  0.3788
   56MOL   C34729057   7.226   3.009   6.493 -0.2349 -0.7262  0.3782
   56MOL   C34829058   7.163   2.935   6.590 -0.5425  0.0390 -0.3087
   56MOL   C34929059   7.171   2.591   6.456 -0.0522  0.5871  0.0952
   56MOL   C35029060   7.106   2.562   6.579  0.4755 -0.3606  0.6095
   56MOL   C35129061   7.080   2.433   6.616 -0.0352  0.1070 -0.0226
   56MOL   C35229062   7.101   2.329   6.528  0.1470  0.3211 -0.3339
   56MOL   C35329063   7.153   2.355   6.404 -0.7284 -0.5368  0.9749
   56MOL   C35429064   7.193   2.483   6.370 -0.1526  0.1936 -0.0713
   56MOL   H35529065   7.250   2.733   6.835 -0.5672  0.1441 -0.7076
   56MOL   H35629066   7.187   2.583   6.902 -2.3201  0.0489 -0.1079
   56MOL   H35729067   7.017   2.808   6.791  1.3108  0.0182  0.2200
   56MOL   H35829068   7.300   2.777   6.251 -1.2195 -1.6009 -1.4844
   56MOL   H35929069   7.322   3.029   6.303  1.4821 -0.6330 -0.0381
   56MOL   H36029070   7.217   3.115   6.510 -1.5712 -0.9088  0.8390
   56MOL   H36129071   7.130   2.989   6.677  1.1839 -0.3630  0.6185
   56MOL   H36229072   7.038   2.406   6.712 -1.0042 -0.2452 -0.5405
   56MOL   H36329073   7.078   2.226   6.551  2.6293 -0.4910 -1.2270
   56MOL   H36429074   7.156   2.276   6.331 -0.3460  2.5817 -2.5232
   56MOL   H36529075   7.238   2.491   6.273  0.6524 -0.8567  0.2027
   56MOL   C36629076   6.911   2.624   6.808 -0.1293 -0.1684  0.0736
   56MOL   C36729077   6.809   2.631   6.704  0.6261 -0.7369  0.4291
   56MOL   N36829078   6.687   2.553   6.740  0.0772  0.1059  0.4254
   56MOL   C36929079   6.657   2.432   6.679  0.6455  0.3062 -0.2196
   56MOL   C37029080   6.528   2.390   6.718 -0.4185 -1.0135 -0.4415
   56MOL   C37129081   6.483   2.265   6.671 -0.7519 -0.1862 -0.3814
   56MOL   C37229082   6.566   2.187   6.587  0.2340 -0.5763 -0.3903
   56MOL   C37329083   6.694   2.224   6.548  0.3494 -0.2593  0.0844
   56MOL   C37429084   6.737   2.351   6.593  0.5298  0.3708  0.3680
   56MOL   C37529085   6.470   2.493   6.809  0.0049  0.2056  0.2699
   56MOL   C37629086   6.575   2.590   6.825 -0.3285  1.0428 -0.5501
   56MOL   C37729087   6.551   2.710   6.902 -0.3465  0.7154  0.5287
   56MOL   C37829088   6.430   2.718   6.975  0.1367  0.1388 -0.0963
   56MOL   C37929089   6.331   2.616   6.969  0.0984 -0.0465  0.6166
   56MOL   C38029090   6.352   2.507   6.879 -0.0784 -0.0273  0.3332
   56MOL   H38129091   6.941   2.524   6.839 -0.5687 -1.3642 -3.1143
   56MOL   H38229092   6.857   2.657   6.897 -1.7357  0.1670 -0.9960
   56MOL   H38329093   6.851   2.594   6.611  0.5661  2.7823 -1.0631
   56MOL   H38429094   6.388   2.223   6.699  0.8852 -4.6310 -1.1292
   56MOL   H38529095   6.525   2.094   6.549 -1.0565 -0.1235 -0.1209
   56MOL   H38629096   6.747   2.169   6.473  1.0488  0.3452  0.1304
   56MOL   H38729097   6.821   2.398   6.543  1.8741  0.6552  2.7818
   56MOL   H38829098   6.629   2.785   6.899 -1.1311  1.5184 -0.2600
   56MOL   H38929099   6.398   2.804   7.032 -0.4751 -0.7364  0.8997
   56MOL   H39029100   6.239   2.620   7.026 -0.4955  1.1216 -0.3910
   56MOL   H39129101   6.269   2.437   6.871  0.0779 -0.2436  0.5989
   56MOL   C39229102   6.780   2.781   6.670 -0.0105 -0.8299  0.1981
   56MOL   C39329103   6.650   2.814   6.595  0.1965  0.4730 -0.6607
   56MOL   N39429104   6.648   2.957   6.582  0.1977  0.7068 -0.0822
   56MOL   C39529105   6.549   3.036   6.639  0.3527 -0.7118 -0.2570
   56MOL   C39629106   6.580   3.172   6.614  0.4546 -0.1557  0.1153
   56MOL   C39729107   6.486   3.274   6.656 -0.8118  0.4220  0.3337
   56MOL   C39829108   6.371   3.244   6.724 -0.0557 -0.4299  0.3936
   56MOL   C39929109   6.345   3.106   6.752 -0.7844 -0.4714  0.0810
   56MOL   C40029110   6.424   3.004   6.701 -0.1718  0.4096 -0.1076
   56MOL   C40129111   6.706   3.179   6.555  0.0969 -0.6909  0.5222
   56MOL   C40229112   6.740   3.040   6.528 -0.0814 -0.5841  0.0492
   56MOL   C40329113   6.865   3.020   6.463 -0.1938 -0.3204 -0.0195
   56MOL   C40429114   6.942   3.127   6.407 -0.0048  0.2985 -0.1732
   56MOL   C40529115   6.908   3.261   6.441 -0.4797  0.1761  0.5501
   56MOL   C40629116   6.789   3.288   6.514  0.2137  0.0526  0.1554
   56MOL   H40729117   6.795   2.836   6.763  0.4009  2.1246 -1.5691
   56MOL   H40829118   6.868   2.811   6.614  0.7896  0.5242  2.1060
   56MOL   H40929119   6.569   2.798   6.665 -0.5538  2.8638 -0.9329
   56MOL   H41029120   6.508   3.376   6.629  1.6829 -0.4064 -0.9036
   56MOL   H41129121   6.310   3.327   6.753 -0.5439 -1.4049  2.2077
   56MOL   H41229122   6.261   3.080   6.816 -0.6908  1.0230  0.8252
   56MOL   H41329123   6.396   2.905   6.735  0.0234 -0.0114 -1.1304
   56MOL   H41429124   6.908   2.924   6.439  0.5704  0.2008 -0.7606
   56MOL   H41529125   7.021   3.109   6.336 -0.1556  0.5885 -0.4140
   56MOL   H41629126   6.960   3.344   6.395 -2.1484 -0.0163 -1.7505
   56MOL   H41729127   6.758   3.390   6.534  0.8141  0.2036  0.3231
   56MOL   C41829128   6.636   2.729   6.468  1.0329  0.1667  1.0737
   56MOL   C41929129   6.494   2.711   6.409 -0.0371  0.0257  0.0928
   56MOL   N42029130   6.488   2.660   6.273 -0.5299  0.1945 -0.3550
   56MOL   C42129131   6.483   2.739   6.159 -0.0863 -0.4126 -0.2468
   56MOL   C42229132   6.474   2.654   6.043 -0.2861  0.0636  0.3057
   56MOL   C42329133   6.467   2.719   5.919 -0.6263 -0.0643 -0.3069
   56MOL   C42429134   6.451   2.859   5.905  0.1096 -0.7878 -0.3640
   56MOL   C42529135   6.459   2.937   6.022 -0.2820 -0.1100 -0.1420
   56MOL   C42629136   6.470   2.878   6.146 -0.4091 -0.4161 -0.3048
   56MOL   C42729137   6.499   2.521   6.096  0.5021  0.3379 -0.1707
   56MOL   C42829138   6.500   2.525   6.239 -0.3198 -1.4208  0.4917
   56MOL   C42929139   6.516   2.413   6.314  0.0471  0.4433  0.2513
   56MOL   C43029140   6.522   2.286   6.247  0.3226  0.5544 -0.9014
   56MOL   C43129141   6.538   2.278   6.107 -0.0160  0.3519 -0.2320
   56MOL   C43229142   6.517   2.398   6.032 -0.4152 -0.2587  0.0527
   56MOL   H43329143   6.699   2.778   6.395  0.9714 -0.6943  0.4390
   56MOL   H43429144   6.682   2.632   6.483  1.0564 -0.1122 -0.7602
   56MOL   H43529145   6.461   2.815   6.404 -0.8569 -0.2249  0.2116
   56MOL   H43629146   6.467   2.651   5.835  0.1707 -0.8024  0.2848
   56MOL   H43729147   6.452   2.911   5.810  1.5011  0.9090  0.5626
   56MOL   H43829148   6.465   3.045   6.025  2.1827 -0.2031 -0.4335
   56MOL   H43929149   6.485   2.934   6.237 -1.7241 -2.4410  1.2160
   56MOL   H44029150   6.532   2.408   6.421 -1.1291 -1.5017  0.3548
   56MOL   H44129151   6.539   2.191   6.296 -1.5793 -0.1967 -1.6129
   56MOL   H44229152   6.557   2.183   6.060 -1.7578 -0.0701 -0.0989
   56MOL   H44329153   6.516   2.401   5.924 -0.9216 -0.1411  0.0608
   56MOL   C44429154   6.388   2.646   6.504 -0.0461 -0.6192  0.5966
   56MOL   C44529155   6.252   2.634   6.443 -0.0799 -0.0536  0.4515
   56MOL   N44629156   6.161   2.574   6.543  0.3466  0.0989 -0.1335
   56MOL   C44729157   6.113   2.445   6.549 -0.3835 -0.4317 -0.3399
   56MOL   C44829158   6.030   2.430   6.657  0.7729  0.7907 -0.4466
   56MOL   C44929159   5.962   2.304   6.673  0.4877 -0.2608 -0.4789
   56MOL   C45029160   5.988   2.192   6.584 -0.1037 -0.3201  0.0916
   56MOL   C45129161   6.086   2.210   6.492  0.4313 -0.6330  1.0761
   56MOL   C45229162   6.140   2.333   6.465  0.3608  0.6369  0.2372
   56MOL   C45329163   6.030   2.550   6.735  0.2299 -0.3439  0.0998
   56MOL   C45429164   6.108   2.640   6.658 -0.1917  0.0565 -0.2995
   56MOL   C45529165   6.131   2.773   6.703 -0.3362  0.1892  0.5294
   56MOL   C45629166   6.063   2.819   6.817  0.1012 -0.0663 -0.9431
   56MOL   C45729167   5.976   2.734   6.892  0.2288 -0.3739 -0.8338
   56MOL   C45829168   5.963   2.601   6.850  0.1896 -0.2839  0.4371
   56MOL   H45929169   6.418   2.545   6.534  1.7708 -0.9682 -2.2146
   56MOL   H46029170   6.380   2.688   6.604 -0.0818 -0.4516  0.5222
   56MOL   H46129171   6.263   2.560   6.364  1.1392 -0.7342  1.2286
   56MOL   H46229172   5.894   2.299   6.757 -2.0373 -1.5278 -2.5143
   56MOL   H46329173   5.943   2.096   6.608  1.2084 -0.7132  1.0453
   56MOL   H46429174   6.107   2.126   6.428  0.5499  1.7127 -2.0749
   56MOL   H46529175   6.202   2.347   6.378 -0.4221 -1.6930 -0.7241
   56MOL   H46629176   6.192   2.837   6.641 -0.8767  1.0761  0.9133
   56MOL   H46729177   6.081   2.919   6.855  0.2678 -0.5681  0.3085
   56MOL   H46829178   5.916   2.772   6.974 -2.5058 -1.6177 -2.1858
   56MOL   H46929179   5.885   2.538   6.889 -1.3779  0.4227 -1.4996
   56MOL   C47029180   6.199   2.756   6.365  0.1257 -0.2584 -0.7470
   56MOL   C47129181   6.060   2.735   6.301 -0.4833 -0.1860 -0.3583
   56MOL   N47229182   5.971   2.848   6.325  0.0379 -1.1770  0.2356
   56MOL   C47329183   5.858   2.850   6.408  0.7894  0.0738 -0.1783
   56MOL   C47429184   5.814   2.981   6.429 -0.3298  0.1592 -0.8513
   56MOL   C47529185   5.706   3.011   6.511 -0.6214 -0.4106  0.4275
   56MOL   C47629186   5.643   2.908   6.576  0.5102  0.1896 -0.4567
   56MOL   C47729187   5.689   2.771   6.560 -0.3518 -0.4068 -0.1054
   56MOL   C47829188   5.796   2.740   6.472  0.2743 -1.2959  0.9161
   56MOL   C47929189   5.900   3.065   6.355  0.6743  0.0666  0.4263
   56MOL   C48029190   5.992   2.981   6.285  0.1158 -0.2757 -1.1913
   56MOL   C48129191   6.093   3.042   6.202 -0.3791  0.1223  0.1945
   56MOL   C48229192   6.104   3.181   6.194  0.1797  0.4134  0.0383
   56MOL   C48329193   6.016   3.259   6.270  0.3171  0.4435 -0.3743
   56MOL   C48429194   5.914   3.201   6.348 -1.3492  0.0513 -0.6809
   56MOL   H48529195   6.189   2.841   6.433 -1.0039 -0.6765 -0.3845
   56MOL   H48629196   6.258   2.794   6.281 -0.8572  0.3939 -1.1518
   56MOL   H48729197   6.014   2.649   6.350  1.7270 -1.2704 -0.1162
   56MOL   H48829198   5.677   3.113   6.530 -1.2687 -0.3416 -0.8426
   56MOL   H48929199   5.562   2.935   6.642  1.5456  3.9003 -0.5854
   56MOL   H49029200   5.636   2.694   6.614  0.1876  0.1329  1.2219
   56MOL   H49129201   5.826   2.637   6.458 -0.7160 -1.2544 -1.7371
   56MOL   H49229202   6.169   2.975   6.165 -0.3625 -0.9855  2.1912
   56MOL   H49329203   6.187   3.215   6.133 -0.0079  1.8374  0.5573
   56MOL   H49429204   6.028   3.366   6.266 -1.7875  0.7718  1.3232
   56MOL   H49529205   5.857   3.260   6.418 -0.1176 -0.9631  1.2559
   56MOL   C49629206   6.073   2.700   6.150 -0.0212  0.0846  0.2223
   56MOL   C49729207   5.964   2.615   6.090  1.4530  0.0106 -0.4410
   56MOL   N49829208   6.011   2.550   5.971 -0.5310 -0.2147 -0.7623
   56MOL   C49929209   6.011   2.596   5.834  0.7480  0.3756  0.5822
   56MOL   C50029210   6.068   2.495   5.753 -0.5411  0.0441 -0.2262
   56MOL   C50129211   6.060   2.508   5.611 -0.1519  0.2539 -0.2590
   56MOL   C50229212   6.007   2.621   5.552 -0.0635 -0.6200  0.0825
   56MOL   C50329213   5.944   2.720   5.631  0.0997  0.3395 -0.0904
   56MOL   C50429214   5.939   2.700   5.771 -0.1125  0.4774  0.1444
   56MOL   C50529215   6.121   2.398   5.846 -0.6800  0.0904 -0.5928
   56MOL   C50629216   6.081   2.430   5.976 -0.4397 -0.2083 -0.2022
   56MOL   C50729217   6.126   2.356   6.089 -0.0861 -1.0278 -0.1977
   56MOL   C50829218   6.201   2.238   6.069  0.1518 -0.4946  0.2136
   56MOL   C50929219   6.235   2.197   5.938  0.7643 -0.1595  0.5941
   56MOL   C51029220   6.200   2.280   5.827 -0.1282  0.3685 -0.8187
   56MOL   H51129221   6.072   2.784   6.080 -1.5077 -1.5789 -1.8100
   56MOL   H51229222   6.166   2.644   6.143 -1.3938 -2.0535 -1.3683
   56MOL   H51329223   5.876   2.677   6.073  2.1508  1.6968  1.8100
   56MOL   H51429224   6.095   2.426   5.551 -1.4247 -2.5013  2.6296
   56MOL   H51529225   5.999   2.633   5.445 -0.9740  2.8070  0.4777
   56MOL   H51629226   5.898   2.809   5.592  0.3364 -0.3759 -2.0494
   56MOL   H51729227   5.877   2.767   5.829  0.1449  0.2142  0.7182
   56MOL   H51829228   6.106   2.391   6.190  0.9826 -0.3579 -0.2074
   56MOL   H51929229   6.236   2.202   6.165  1.0926  2.7520  1.1340
   56MOL   H52029230   6.306   2.116   5.932  0.7912 -0.0763 -0.2868
   56MOL   H52129231   6.238   2.255   5.729  0.7636 -1.2090 -0.0853
   56MOL   H52229232   5.931   2.544   6.166 -0.0376  0.0410 -1.0601
   57MOL     C129233   5.603   7.462   3.548  0.1456  0.1281 -0.3380
   57MOL     C229234   5.621   7.344   3.449  0.9012  0.3452  0.7869
   57MOL     N329235   5.492   7.311   3.396 -0.4074  0.5178  0.0885
   57MOL     C429236   5.421   7.199   3.433  0.4281  0.0857  0.5664
   57MOL     C529237   5.303   7.191   3.353 -0.2281  0.3734 -0.2513
   57MOL     C629238   5.217   7.086   3.370  0.4534  0.1074  0.4336
   57MOL     C729239   5.247   6.995   3.475 -0.1353 -0.0394  0.3148
   57MOL     C829240   5.360   6.991   3.553 -0.6692  0.1368 -0.0500
   57MOL     C929241   5.458   7.088   3.519  0.1317 -0.6113 -0.1870
   57MOL    C1029242   5.303   7.303   3.264  0.2867  0.2250  0.2889
   57MOL    C1129243   5.415   7.379   3.297  0.2439 -0.0662  0.0786
   57MOL    C1229244   5.436   7.504   3.228  0.1597  0.6240 -0.5485
   57MOL    C1329245   5.353   7.546   3.126 -0.0082  0.1732  0.0665
   57MOL    C1429246   5.248   7.463   3.088 -0.3164 -0.2762 -0.3344
   57MOL    C1529247   5.224   7.348   3.155 -0.2384  0.3585  0.0293
   57MOL    H1629248   5.563   7.548   3.494  0.0701  0.0995 -0.3284
   57MOL    H1729249   5.696   7.492   3.596  0.6957  0.0405 -1.3324
   57MOL    H1829250   5.652   7.253   3.501 -0.9289 -1.5071 -1.2643
   57MOL    H1929251   5.125   7.077   3.314  0.9956  0.3048 -0.4990
   57MOL    H2029252   5.168   6.922   3.486 -1.6769  1.6126  0.5775
   57MOL    H2129253   5.382   6.914   3.625  0.4790  1.2068  0.7489
   57MOL    H2229254   5.543   7.089   3.585 -0.6883 -0.9283  0.8807
   57MOL    H2329255   5.521   7.566   3.252  1.1381 -1.1488  0.6504
   57MOL    H2429256   5.361   7.641   3.075  1.4862 -1.7357 -3.4745
   57MOL    H2529257   5.180   7.492   3.010 -1.8234 -0.1310  1.0056
   57MOL    H2629258   5.142   7.291   3.114  0.6815 -1.5759  0.8306
   57MOL    H2729259   5.542   7.430   3.632  0.5856  0.2201  0.0171
   57MOL    C2829260   5.735   7.373   3.346 -0.1143  0.2307 -0.0386
   57MOL    C2929261   5.832   7.250   3.305  0.0245 -0.3299 -0.5276
   57MOL    N3029262   5.756   7.124   3.288  0.1610  0.3419  1.0002
   57MOL    C3129263   5.656   7.093   3.178  0.0871 -0.2318 -0.3742
   57MOL    C3229264   5.612   6.961   3.196  0.1329  0.2295  0.0708
   57MOL    C3329265   5.510   6.910   3.113 -0.4875 -0.1914  0.0196
   57MOL    C3429266   5.444   7.001   3.023  0.4501  0.1152 -0.3150
   57MOL    C3529267   5.499   7.129   3.004  0.4334 -0.0630  0.2586
   57MOL    C3629268   5.596   7.176   3.085  0.3260 -0.5527 -0.4070
   57MOL    C3729269   5.685   6.901   3.304 -0.0482 -0.5944  0.1751
   57MOL    C3829270   5.773   7.001   3.358  0.2644 -0.7842  0.8587
   57MOL    C3929271   5.870   6.964   3.451  0.3558  0.8526  0.1092
   57MOL    C4029272   5.874   6.841   3.511 -0.3468  0.1642  0.1779
   57MOL    C4129273   5.769   6.748   3.480  0.1720 -0.5007  0.6192
   57MOL    C4229274   5.685   6.776   3.367 -0.2181 -0.3614 -0.3501
   57MOL    H4329275   5.703   7.433   3.261 -4.0426 -1.8190 -0.1077
   57MOL    H4429276   5.810   7.438   3.392  0.4480 -0.0337 -0.5705
   57MOL    H4529277   5.899   7.245   3.391 -1.0048 -0.2067  0.2889
   57MOL    H4629278   5.481   6.807   3.126 -0.9633  0.1280  1.6105
   57MOL    H4729279   5.351   6.984   2.972 -1.1292 -0.2161  2.5335
   57MOL    H4829280   5.438   7.191   2.940  2.5054 -0.6970 -2.4076
   57MOL    H4929281   5.615   7.282   3.085  1.2431 -0.6959  1.6224
   57MOL    H5029282   5.940   7.038   3.486  1.1455 -0.3071  1.0385
   57MOL    H5129283   5.944   6.825   3.592 -1.3248  0.1703  1.0362
   57MOL    H5229284   5.763   6.654   3.533  0.4268  0.2036  1.9189
   57MOL    H5329285   5.632   6.691   3.327 -0.1913 -0.6546  0.2444
   57MOL    C5429286   5.913   7.268   3.175 -0.5868 -0.6622 -0.8062
   57MOL    C5529287   6.022   7.382   3.175 -0.2979  0.6850  0.1994
   57MOL    N5629288   6.116   7.385   3.290 -0.7934  0.0259  0.3856
   57MOL    C5729289   6.150   7.506   3.362  0.2891  0.2873  0.3842
   57MOL    C5829290   6.248   7.476   3.457  0.1865 -0.7508  0.4389
   57MOL    C5929291   6.285   7.581   3.542  0.1425 -0.0800 -0.2665
   57MOL    C6029292   6.223   7.711   3.532  0.1043 -0.1631 -0.6273
   57MOL    C6129293   6.142   7.737   3.427  0.7357 -0.1813 -0.0611
   57MOL    C6229294   6.098   7.633   3.347  0.2392  0.0692  0.1782
   57MOL    C6329295   6.285   7.336   3.437  1.0306  0.6599  0.6355
   57MOL    C6429296   6.198   7.276   3.341  0.5561 -0.4401 -0.2347
   57MOL    C6529297   6.212   7.140   3.302 -0.8317 -0.5863  1.1022
   57MOL    C6629298   6.304   7.058   3.366 -0.3779  0.5343 -0.8151
   57MOL    C6729299   6.389   7.107   3.466 -0.0835 -0.0129  0.7137
   57MOL    C6829300   6.376   7.247   3.496  0.1620  0.3733  0.0797
   57MOL    H6929301   5.959   7.177   3.138 -2.0564 -1.4304 -0.7694
   57MOL    H7029302   5.839   7.300   3.100  0.5723 -1.5729 -2.3721
   57MOL    H7129303   5.961   7.471   3.186 -2.7689 -0.5909 -2.5004
   57MOL    H7229304   6.357   7.557   3.619  0.2813  1.6760  0.1751
   57MOL    H7329305   6.250   7.793   3.596  1.0490  0.6595 -2.0431
   57MOL    H7429306   6.104   7.836   3.404  2.7205  0.8906  1.0688
   57MOL    H7529307   6.020   7.645   3.273  0.8825  1.1253 -0.3413
   57MOL    H7629308   6.166   7.089   3.218  1.0529 -3.2133  1.6077
   57MOL    H7729309   6.325   6.954   3.347  3.0147  1.1715 -0.8095
   57MOL    H7829310   6.461   7.050   3.523  0.6315  1.1560  0.9951
   57MOL    H7929311   6.440   7.285   3.574  2.0843 -0.8240 -0.8727
   57MOL    C8029312   6.107   7.379   3.043 -0.2962 -0.9086 -0.0971
   57MOL    C8129313   6.038   7.444   2.924  0.8350 -0.1281 -0.1675
   57MOL    N8229314   6.006   7.583   2.946 -0.7088  0.0578  0.4446
   57MOL    C8329315   5.877   7.640   2.936 -0.6084 -0.5273  0.2513
   57MOL    C8429316   5.880   7.775   2.986 -0.2361  0.1066 -0.1907
   57MOL    C8529317   5.758   7.845   3.001 -0.1428  0.1756  0.5350
   57MOL    C8629318   5.631   7.785   2.962 -1.0141  0.8352 -0.4219
   57MOL    C8729319   5.629   7.653   2.907 -0.0350 -0.2310  0.5517
   57MOL    C8829320   5.757   7.586   2.897  0.6171 -0.2674 -0.0902
   57MOL    C8929321   6.017   7.811   2.996 -0.3668  0.2917 -0.0173
   57MOL    C9029322   6.092   7.690   2.981  0.1241  0.2465 -0.0620
   57MOL    C9129323   6.230   7.693   2.984 -0.3186 -0.5356 -0.5560
   57MOL    C9229324   6.303   7.805   3.017  0.0603 -0.0954  0.1347
   57MOL    C9329325   6.231   7.926   3.037 -0.3014 -0.5218  0.2494
   57MOL    C9429326   6.092   7.932   3.019 -0.1783  0.2783 -0.2886
   57MOL    H9529327   6.204   7.418   3.074 -0.3817 -1.2482  0.6192
   57MOL    H9629328   6.124   7.273   3.024 -0.2464 -0.6684 -1.4011
   57MOL    H9729329   5.945   7.390   2.904  0.7208  0.4590 -1.2731
   57MOL    H9829330   5.763   7.952   3.018  2.1140  0.0294  0.9583
   57MOL    H9929331   5.536   7.835   2.971 -0.8418  1.2062 -0.6180
   57MOL   H10029332   5.538   7.599   2.888 -1.2452  1.5606  1.1252
   57MOL   H10129333   5.757   7.485   2.857  3.1468  0.1283 -1.2291
   57MOL   H10229334   6.283   7.599   2.988 -0.9674 -0.9497 -1.5787
   57MOL   H10329335   6.409   7.787   3.031 -0.0965 -0.6587  0.6145
   57MOL   H10429336   6.290   8.009   3.073 -1.4579  0.5053 -0.1752
   57MOL   H10529337   6.040   8.026   3.013  0.1473  0.7020  2.5963
   57MOL   C10629338   6.120   7.429   2.795  0.2889 -0.2967  0.3646
   57MOL   C10729339   6.142   7.289   2.743 -0.2381  0.0758 -0.5519
   57MOL   N10829340   6.020   7.209   2.749 -0.8778 -0.2244  0.1945
   57MOL   C10929341   6.009   7.095   2.826  0.8299  0.4734 -0.1022
   57MOL   C11029342   5.875   7.055   2.834 -0.0665  0.7776 -0.5426
   57MOL   C11129343   5.840   6.937   2.913 -0.5383 -0.0398  0.1512
   57MOL   C11229344   5.942   6.884   3.006  0.1180 -0.4967 -0.2928
   57MOL   C11329345   6.074   6.928   2.995 -0.7937 -0.1898  0.0029
   57MOL   C11429346   6.103   7.034   2.910 -0.0469 -0.7171  0.6675
   57MOL   C11529347   5.803   7.135   2.746 -0.2340 -0.8023 -0.0525
   57MOL   C11629348   5.895   7.232   2.688  0.1117  0.6149 -0.4016
   57MOL   C11729349   5.852   7.317   2.584  0.2335 -0.1475  0.1413
   57MOL   C11829350   5.715   7.329   2.546 -0.5381  0.0975  0.5616
   57MOL   C11929351   5.626   7.235   2.605 -0.4681 -0.5472  0.2656
   57MOL   C12029352   5.669   7.139   2.706 -0.0388 -0.3659  0.6853
   57MOL   H12129353   6.064   7.476   2.713 -0.7737  0.5054  1.5238
   57MOL   H12229354   6.218   7.472   2.818 -0.2133  0.7013  0.6789
   57MOL   H12329355   6.228   7.249   2.798  0.4261 -0.2559 -1.8077
   57MOL   H12429356   5.737   6.907   2.921 -1.1456  1.3181 -2.0563
   57MOL   H12529357   5.918   6.794   3.060  2.0363  0.6856  2.6162
   57MOL   H12629358   6.141   6.890   3.070  0.8231  1.8491 -0.3780
   57MOL   H12729359   6.206   7.069   2.906  0.3259 -1.9801 -2.3391
   57MOL   H12829360   5.920   7.383   2.532  1.5804 -3.0545 -1.9377
   57MOL   H12929361   5.689   7.388   2.460  2.3043 -1.0483 -1.1556
   57MOL   H13029362   5.523   7.225   2.572 -0.2641 -0.6845 -0.3274
   57MOL   H13129363   5.599   7.066   2.742  1.1893 -1.1762  1.4793
   57MOL   C13229364   6.200   7.290   2.599 -0.2305  0.2093 -0.0953
   57MOL   C13329365   6.335   7.362   2.576  0.0327  0.0693  0.0202
   57MOL   N13429366   6.439   7.337   2.676  0.2172  0.0437  0.3007
   57MOL   C13529367   6.524   7.441   2.722 -0.1796  0.1796  0.3810
   57MOL   C13629368   6.625   7.378   2.807  0.3398  0.2383  0.3139
   57MOL   C13729369   6.726   7.460   2.864  0.0250 -0.3753 -0.0690
   57MOL   C13829370   6.733   7.598   2.826 -0.3123  0.9459  0.0204
   57MOL   C13929371   6.644   7.651   2.739  0.9495 -0.0161  0.5447
   57MOL   C14029372   6.533   7.579   2.689  0.3641  0.7784 -0.2249
   57MOL   C14129373   6.598   7.236   2.810  0.0523  0.5264 -0.0191
   57MOL   C14229374   6.486   7.216   2.725 -0.1558  0.5271  0.0741
   57MOL   C14329375   6.445   7.087   2.696  0.2489 -0.0061 -0.3594
   57MOL   C14429376   6.509   6.976   2.755  0.0326  0.0936  0.1332
   57MOL   C14529377   6.609   6.994   2.851  0.4460  0.0341  0.4936
   57MOL   C14629378   6.652   7.127   2.878 -0.2537 -0.4573  0.3254
   57MOL   H14729379   6.205   7.189   2.558  0.8824 -0.2268  1.0776
   57MOL   H14829380   6.130   7.343   2.534 -1.2954 -0.3423  0.5836
   57MOL   H14929381   6.310   7.467   2.592 -0.2522  0.0939 -0.5546
   57MOL   H15029382   6.812   7.419   2.916  0.3733  1.8895  1.2329
   57MOL   H15129383   6.827   7.643   2.855  0.1436 -0.1833  0.3459
   57MOL   H15229384   6.649   7.755   2.710 -2.0431 -0.4253 -1.6939
   57MOL   H15329385   6.462   7.629   2.624 -0.0246 -1.5369 -1.6499
   57MOL   H15429386   6.363   7.061   2.631 -0.8559 -1.0231  1.3989
   57MOL   H15529387   6.474   6.878   2.726 -1.6242  0.2419  1.5641
   57MOL   H15629388   6.662   6.911   2.897  0.4811 -0.7322 -0.9101
   57MOL   H15729389   6.729   7.145   2.952  0.2645  2.1879 -0.8248
   57MOL   C15829390   6.394   7.345   2.438  0.1489  0.5362  0.2277
   57MOL   C15929391   6.318   7.404   2.319  0.3937  0.1873 -0.4474
   57MOL   N16029392   6.287   7.552   2.324 -0.6167 -0.3404  0.5684
   57MOL   C16129393   6.154   7.602   2.321  0.6410  0.6126  0.1131
   57MOL   C16229394   6.164   7.741   2.318 -1.2355 -0.2481 -0.3638
   57MOL   C16329395   6.046   7.817   2.295  0.3748  0.0060  0.1001
   57MOL   C16429396   5.920   7.750   2.286 -0.5887 -0.3730  0.2882
   57MOL   C16529397   5.914   7.612   2.297  1.4772  0.1212 -0.3587
   57MOL   C16629398   6.029   7.537   2.319  0.3052 -0.6610  0.2833
   57MOL   C16729399   6.300   7.778   2.353  0.1393 -0.3037 -0.2503
   57MOL   C16829400   6.377   7.656   2.351  0.6154 -0.1682 -0.1779
   57MOL   C16929401   6.514   7.660   2.372 -0.1458  0.2067  0.3532
   57MOL   C17029402   6.577   7.781   2.402  0.2269 -0.5041  0.6661
   57MOL   C17129403   6.499   7.902   2.396  0.0992  0.5133  0.1518
   57MOL   C17229404   6.365   7.902   2.362 -0.2627 -0.6586 -0.0943
   57MOL   H17329405   6.494   7.388   2.432  0.4515 -0.1710  0.2340
   57MOL   H17429406   6.428   7.242   2.426  2.0734  0.8618  2.5614
   57MOL   H17529407   6.222   7.358   2.340  0.4529 -0.6966 -2.0281
   57MOL   H17629408   6.050   7.924   2.282  2.5988  0.0443  0.8360
   57MOL   H17729409   5.832   7.810   2.269 -1.0013 -1.5613 -1.9965
   57MOL   H17829410   5.816   7.566   2.290  0.9438  1.3049 -0.7734
   57MOL   H17929411   6.009   7.430   2.323 -0.8401 -0.4349  0.9996
   57MOL   H18029412   6.574   7.570   2.374  1.5764  1.2295 -1.9763
   57MOL   H18129413   6.683   7.781   2.417  0.6084 -0.6080 -1.7104
   57MOL   H18229414   6.546   7.999   2.388  1.1576 -0.1634 -2.7283
   57MOL   H18329415   6.313   7.996   2.367 -0.3967 -0.5925 -2.3706
   57MOL   C18429416   6.362   7.341   2.184 -0.2736  0.4364 -0.2115
   57MOL   C18529417   6.323   7.188   2.171 -0.1197 -0.0606  0.3327
   57MOL   N18629418   6.188   7.157   2.219  0.3702  0.1622  0.2645
   57MOL   C18729419   6.158   7.063   2.318  0.2902 -0.3700 -0.1465
   57MOL   C18829420   6.021   7.070   2.344 -0.0966 -0.4416 -0.0413
   57MOL   C18929421   5.969   6.989   2.451  0.1927 -0.3496  0.4678
   57MOL   C19029422   6.055   6.909   2.522 -0.2425  1.2564 -0.6031
   57MOL   C19129423   6.188   6.897   2.498 -0.3499 -0.2720  0.2807
   57MOL   C19229424   6.242   6.975   2.393 -0.5129 -1.2012  0.3891
   57MOL   C19329425   5.960   7.167   2.256 -0.5924 -0.4971  0.1253
   57MOL   C19429426   6.067   7.207   2.175  0.6326 -0.1999  0.7916
   57MOL   C19529427   6.044   7.297   2.065 -0.1289  0.2607  0.7177
   57MOL   C19629428   5.915   7.333   2.028 -0.0662 -0.5630  0.4219
   57MOL   C19729429   5.804   7.285   2.102  0.8351 -0.8720  0.1844
   57MOL   C19829430   5.830   7.204   2.215  0.3575  0.2483 -0.3020
   57MOL   H19929431   6.326   7.406   2.104  0.6643  0.6457 -0.4722
   57MOL   H20029432   6.469   7.355   2.164 -0.0720 -3.1181 -1.9407
   57MOL   H20129433   6.391   7.146   2.246  2.0987  0.4596 -1.3441
   57MOL   H20229434   5.867   7.000   2.485  0.4895  2.2239  0.6015
   57MOL   H20329435   6.017   6.840   2.596  0.5367 -1.3544 -2.5926
   57MOL   H20429436   6.246   6.832   2.560 -0.3915 -0.8550 -0.2806
   57MOL   H20529437   6.346   6.951   2.372  0.1882 -0.1467  2.4567
   57MOL   H20629438   6.128   7.345   2.017 -1.5013  3.3415  1.2555
   57MOL   H20729439   5.889   7.399   1.946 -0.8794 -0.0086  1.1176
   57MOL   H20829440   5.702   7.304   2.071  0.8984  1.5060  1.3550
   57MOL   H20929441   5.743   7.164   2.264  1.2362 -0.3669  0.7994
   57MOL   C21029442   6.354   7.129   2.037  0.8537  0.4379  0.0303
   57MOL   C21129443   6.499   7.088   2.015 -0.6832 -0.3898 -0.5540
   57MOL   N21229444   6.548   7.005   2.117 -0.5368 -0.1820 -0.0808
   57MOL   C21329445   6.650   7.035   2.200 -0.0105  0.6214 -0.2065
   57MOL   C21429446   6.667   6.929   2.292 -0.1043 -0.4559 -0.4414
   57MOL   C21529447   6.772   6.938   2.387 -0.3941  0.7092 -0.1983
   57MOL   C21629448   6.858   7.049   2.398  0.1237  0.5052  0.4310
   57MOL   C21729449   6.833   7.154   2.307 -0.0402 -1.1611 -0.3694
   57MOL   C21829450   6.736   7.148   2.208 -0.5189  0.0153  0.1430
   57MOL   C21929451   6.570   6.824   2.267  0.0659 -0.0959  0.0117
   57MOL   C22029452   6.501   6.874   2.148 -0.0549  0.2478 -0.4594
   57MOL   C22129453   6.400   6.795   2.088  0.7420  0.5394 -0.2747
   57MOL   C22229454   6.355   6.678   2.149  0.2678  0.5977  0.1283
   57MOL   C22329455   6.413   6.635   2.274 -0.3346 -0.0868 -0.3004
   57MOL   C22429456   6.524   6.704   2.321  0.2850 -0.0131 -0.1361
   57MOL   H22529457   6.291   7.042   2.021 -0.2437  1.3275 -0.5591
   57MOL   H22629458   6.330   7.198   1.957  0.1170 -2.3873 -2.2783
   57MOL   H22729459   6.551   7.183   2.028 -0.7811 -0.1486 -1.8149
   57MOL   H22829460   6.781   6.859   2.460 -0.8960  0.2003 -0.6706
   57MOL   H22929461   6.928   7.068   2.478  1.3073 -1.4092 -0.1078
   57MOL   H23029462   6.899   7.238   2.324 -2.3182  0.5138  0.4806
   57MOL   H23129463   6.734   7.237   2.148 -1.2325 -1.6461 -2.3687
   57MOL   H23229464   6.354   6.833   1.998 -2.1351 -2.8196 -0.3448
   57MOL   H23329465   6.267   6.629   2.108 -0.2465  0.4677  1.3764
   57MOL   H23429466   6.383   6.543   2.320 -0.2474 -0.2719 -0.6099
   57MOL   H23529467   6.575   6.676   2.412 -0.8476  0.5109  0.6729
   57MOL   C23629468   6.527   7.048   1.865 -0.2901  0.6464 -0.8533
   57MOL   C23729469   6.538   7.163   1.760 -0.1913 -0.1602 -0.1099
   57MOL   N23829470   6.605   7.288   1.810 -0.2690  0.1211  0.5797
   57MOL   C23929471   6.546   7.415   1.835 -0.0299 -0.3430  0.5274
   57MOL   C24029472   6.637   7.509   1.887  0.2982 -0.2125  0.4586
   57MOL   C24129473   6.586   7.636   1.924 -0.3182 -0.5828  0.4041
   57MOL   C24229474   6.451   7.672   1.899  0.1813  0.2557  0.0136
   57MOL   C24329475   6.363   7.583   1.845 -0.1914  0.8124  0.0089
   57MOL   C24429476   6.414   7.457   1.813  0.0896  0.6442  0.0893
   57MOL   C24529477   6.754   7.431   1.908 -0.8475 -0.2511  0.5100
   57MOL   C24629478   6.737   7.301   1.853  0.0380  0.7240 -0.2590
   57MOL   C24729479   6.845   7.213   1.843  0.0730 -0.3343 -0.2906
   57MOL   C24829480   6.967   7.243   1.901 -0.5110 -0.1249  0.2458
   57MOL   C24929481   6.983   7.376   1.953 -0.6453 -0.5123  0.0927
   57MOL   C25029482   6.883   7.466   1.957 -0.0887  0.7359  0.8481
   57MOL   H25129483   6.621   6.994   1.852 -0.5659 -0.5761  1.7937
   57MOL   H25229484   6.459   6.972   1.827  0.4711  0.7715 -2.5071
   57MOL   H25329485   6.435   7.194   1.743  0.1728  1.4805  0.5154
   57MOL   H25429486   6.655   7.697   1.981 -0.3264  1.0251 -1.2847
   57MOL   H25529487   6.415   7.768   1.934  1.0999 -0.7993  4.0778
   57MOL   H25629488   6.264   7.621   1.824  0.4342  2.3527 -0.1788
   57MOL   H25729489   6.348   7.384   1.769 -0.1148  0.7101  0.2816
   57MOL   H25829490   6.834   7.111   1.811  3.0226 -1.4657  2.0471
   57MOL   H25929491   7.047   7.171   1.903 -0.1292  0.2515 -0.9854
   57MOL   H26029492   7.075   7.414   1.996 -1.7234  0.3840  1.6549
   57MOL   H26129493   6.906   7.568   1.984 -0.9847  1.5259 -1.2602
   57MOL   C26229494   6.609   7.115   1.628 -0.8561 -0.3818 -0.0576
   57MOL   C26329495   6.613   7.214   1.512 -0.4032  0.0790  0.4550
   57MOL   N26429496   6.755   7.266   1.505  0.1531  1.1128 -0.3825
   57MOL   C26529497   6.787   7.394   1.527  0.3849  0.0310 -0.3442
   57MOL   C26629498   6.926   7.404   1.541  0.4313  1.0894 -0.0867
   57MOL   C26729499   6.985   7.529   1.582 -0.1747  0.1920 -0.3751
   57MOL   C26829500   6.907   7.644   1.604  0.0546 -0.1207  0.3125
   57MOL   C26929501   6.770   7.632   1.584 -0.2576  0.0617  0.4603
   57MOL   C27029502   6.710   7.509   1.546  0.2978  0.6930 -0.1627
   57MOL   C27129503   6.980   7.279   1.509 -0.7116  0.3131  0.3070
   57MOL   C27229504   6.873   7.189   1.484  0.0514 -0.6094  0.0221
   57MOL   C27329505   6.902   7.052   1.452  0.8224 -0.0530  0.3537
   57MOL   C27429506   7.030   7.002   1.465  0.0857 -0.4489 -0.2055
   57MOL   C27529507   7.135   7.091   1.484 -0.6235 -0.6081 -0.2400
   57MOL   C27629508   7.104   7.225   1.510  0.4120 -0.4896 -0.4323
   57MOL   H27729509   6.706   7.069   1.644  0.1599  1.0802 -1.9024
   57MOL   H27829510   6.558   7.024   1.595 -1.9316  0.1579  0.1021
   57MOL   H27929511   6.549   7.299   1.537 -0.5999  0.2382 -0.5661
   57MOL   H28029512   7.091   7.543   1.597 -0.3966  0.4766  0.9950
   57MOL   H28129513   6.960   7.730   1.641  1.3024 -0.4540 -0.6955
   57MOL   H28229514   6.707   7.719   1.590 -2.7282 -1.6791  0.6373
   57MOL   H28329515   6.602   7.509   1.541  0.0622  0.7244  3.4752
   57MOL   H28429516   6.821   6.988   1.421  0.5854 -0.5250  1.9251
   57MOL   H28529517   7.036   6.896   1.445 -0.6565 -0.6735  0.7291
   57MOL   H28629518   7.239   7.064   1.500 -0.6753 -0.5961  0.1432
   57MOL   H28729519   7.185   7.291   1.536 -1.1762  2.2337 -2.2185
   57MOL   C28829520   6.573   7.160   1.379  0.5313 -0.0039  0.2093
   57MOL   C28929521   6.425   7.131   1.362  0.2112  0.3059 -0.3580
   57MOL   N29029522   6.333   7.197   1.454  0.0999 -0.0506  0.9179
   57MOL   C29129523   6.243   7.130   1.538  0.0116  0.3629 -0.7288
   57MOL   C29229524   6.159   7.230   1.603 -0.3444 -0.0423  0.3171
   57MOL   C29329525   6.066   7.190   1.700  0.2374  0.8505  0.5262
   57MOL   C29429526   6.055   7.056   1.730 -0.0665  0.2470  0.0250
   57MOL   C29529527   6.127   6.956   1.664 -0.4644  0.3477 -0.8371
   57MOL   C29629528   6.219   6.993   1.569 -0.8868 -0.4646  0.5901
   57MOL   C29729529   6.196   7.358   1.548  0.0320 -0.3487 -0.2345
   57MOL   C29829530   6.302   7.332   1.456 -0.4763 -0.2263  0.7479
   57MOL   C29929531   6.368   7.442   1.387  0.1265 -0.2409  0.1487
   57MOL   C30029532   6.316   7.568   1.405 -0.2379  0.2422 -0.2166
   57MOL   C30129533   6.200   7.589   1.481 -0.1925 -0.0751  0.3134
   57MOL   C30229534   6.142   7.490   1.562 -0.1589  0.5552 -0.9094
   57MOL   H30329535   6.599   7.225   1.296 -0.5140 -0.3495 -0.3955
   57MOL   H30429536   6.640   7.080   1.348 -1.3037 -2.2887  1.9640
   57MOL   H30529537   6.422   7.025   1.386  2.9178 -0.0049 -1.2330
   57MOL   H30629538   6.005   7.262   1.753  0.6614  1.9356 -0.4384
   57MOL   H30729539   5.992   7.026   1.812 -0.4755 -1.8077 -1.0156
   57MOL   H30829540   6.103   6.855   1.692  1.1828  0.4532  1.1012
   57MOL   H30929541   6.280   6.919   1.520 -1.1452  0.5342 -1.2800
   57MOL   H31029542   6.450   7.418   1.320 -0.4463 -0.0390 -0.6360
   57MOL   H31129543   6.359   7.656   1.360  0.8182 -0.4494 -0.5679
   57MOL   H31229544   6.177   7.695   1.486 -1.2274 -0.0615 -2.9472
   57MOL   H31329545   6.058   7.502   1.629  1.2829 -2.1309  1.4783
   57MOL   C31429546   6.369   7.146   1.220  0.1899 -0.3237 -0.1433
   57MOL   C31529547   6.444   7.062   1.116 -0.1591 -0.0842 -0.6683
   57MOL   N31629548   6.481   6.929   1.158 -0.1333 -0.0043  0.6856
   57MOL   C31729549   6.615   6.876   1.158 -0.2530  0.2723 -0.0779
   57MOL   C31829550   6.620   6.747   1.218  0.7220 -0.4269  0.4685
   57MOL   C31929551   6.742   6.677   1.229  0.9569 -0.8630 -0.0804
   57MOL   C32029552   6.863   6.738   1.194  0.2164  0.4261 -0.5819
   57MOL   C32129553   6.865   6.866   1.140 -0.3330  0.8539 -0.3720
   57MOL   C32229554   6.740   6.935   1.122 -0.0886  0.1936  0.0970
   57MOL   C32329555   6.478   6.709   1.241 -0.4930  0.3443 -0.0414
   57MOL   C32429556   6.401   6.823   1.204  0.1411 -0.2276 -0.1209
   57MOL   C32529557   6.263   6.819   1.218  0.2940 -0.0121 -0.3290
   57MOL   C32629558   6.201   6.712   1.276 -0.1076  0.3795  0.4192
   57MOL   C32729559   6.273   6.603   1.323 -0.5755  0.4823  0.6926
   57MOL   C32829560   6.414   6.598   1.304 -0.5627 -0.3245  0.6958
   57MOL   H32929561   6.263   7.122   1.229  0.2224 -0.8617 -1.1707
   57MOL   H33029562   6.345   7.250   1.197 -0.5244 -0.6517 -0.8937
   57MOL   H33129563   6.533   7.123   1.106  1.5820 -2.5963 -0.8391
   57MOL   H33229564   6.746   6.573   1.260  2.4733 -1.4741 -2.2319
   57MOL   H33329565   6.950   6.676   1.207  0.2388  0.9132  1.8575
   57MOL   H33429566   6.959   6.910   1.110 -0.8526  2.5744  0.4330
   57MOL   H33529567   6.746   7.035   1.082  0.3143 -0.3467 -1.2201
   57MOL   H33629568   6.203   6.905   1.190  0.5833 -0.1541 -1.3815
   57MOL   H33729569   6.093   6.713   1.279 -0.1469 -2.3748  1.2142
   57MOL   H33829570   6.214   6.523   1.365  0.2973 -0.0078  0.9921
   57MOL   H33929571   6.484   6.522   1.336  0.4179  0.6393  0.8890
   57MOL   C34029572   6.375   7.055   0.976  0.4555  0.0715 -0.3445
   57MOL   C34129573   6.362   7.198   0.906  0.0936  0.2202 -0.4392
   57MOL   N34229574   6.490   7.266   0.879  0.5823 -0.0873 -0.0675
   57MOL   C34329575   6.530   7.391   0.918  0.2809  0.9480 -0.2755
   57MOL   C34429576   6.668   7.420   0.872 -0.2771 -0.6075  0.0965
   57MOL   C34529577   6.725   7.540   0.922  0.0002  0.2439 -0.5995
   57MOL   C34629578   6.658   7.624   1.012  0.5058 -0.2470 -0.2192
   57MOL   C34729579   6.527   7.602   1.048 -0.3748  0.2320  0.1354
   57MOL   C34829580   6.461   7.484   1.002  0.1255 -0.2471 -0.2628
   57MOL   C34929581   6.703   7.311   0.789 -0.3281 -0.0680  0.1256
   57MOL   C35029582   6.596   7.217   0.799 -0.7484 -0.4244  0.3341
   57MOL   C35129583   6.604   7.101   0.726 -0.4031  0.7597  0.8450
   57MOL   C35229584   6.717   7.069   0.646 -0.2116  0.1351  0.1559
   57MOL   C35329585   6.828   7.153   0.645  0.0737 -0.3439 -0.3443
   57MOL   C35429586   6.822   7.275   0.716  0.0834  0.6751 -0.1023
   57MOL   H35529587   6.448   6.998   0.919 -0.1547 -2.5793  1.4222
   57MOL   H35629588   6.281   7.000   0.978 -0.3955  1.3517 -3.0290
   57MOL   H35729589   6.319   7.257   0.987 -1.5765 -2.0092  0.3223
   57MOL   H35829590   6.827   7.567   0.896  0.6873 -1.0771  0.6215
   57MOL   H35929591   6.705   7.713   1.051  0.2113  0.0827 -0.6073
   57MOL   H36029592   6.476   7.663   1.121 -0.8878  0.3039 -0.2845
   57MOL   H36129593   6.360   7.465   1.034 -0.1676  0.4602 -0.7647
   57MOL   H36229594   6.526   7.028   0.743  2.4815 -2.0449  2.7140
   57MOL   H36329595   6.713   6.989   0.574  1.1287  0.1821  0.0110
   57MOL   H36429596   6.918   7.131   0.589  0.0261 -1.7831  0.1150
   57MOL   H36529597   6.908   7.340   0.716  0.1157  0.6315  0.4013
   57MOL   C36629598   6.273   7.189   0.773 -0.1271  0.1922 -0.6839
   57MOL   C36729599   6.118   7.175   0.800 -0.6717 -0.3093  0.1500
   57MOL   N36829600   6.082   7.265   0.913  0.5061  0.3573  0.6372
   57MOL   C36929601   6.028   7.230   1.035 -0.3210 -0.0092 -0.2500
   57MOL   C37029602   6.018   7.343   1.120  0.0966 -0.2325  0.2527
   57MOL   C37129603   5.985   7.321   1.260 -0.1326 -0.3590  0.5180
   57MOL   C37229604   5.938   7.196   1.299  0.3077  0.5392 -0.3595
   57MOL   C37329605   5.949   7.085   1.214 -0.1586 -0.2443 -0.1571
   57MOL   C37429606   5.988   7.100   1.083 -0.7828 -0.8866  1.0383
   57MOL   C37529607   6.066   7.455   1.048 -0.3537  0.5902  0.3660
   57MOL   C37629608   6.110   7.399   0.921  0.2168 -0.2140  0.0844
   57MOL   C37729609   6.163   7.483   0.822 -0.5117 -1.3014 -0.6572
   57MOL   C37829610   6.191   7.615   0.851  0.2873 -0.9452 -0.1001
   57MOL   C37929611   6.147   7.675   0.970 -0.5652  0.0628  0.3701
   57MOL   C38029612   6.072   7.598   1.063 -0.2904 -0.8107 -0.2475
   57MOL   H38129613   6.292   7.261   0.693  0.7412 -0.5392 -1.1520
   57MOL   H38229614   6.306   7.110   0.705  0.1573  1.0062 -1.5042
   57MOL   H38329615   6.085   7.078   0.835  0.8695  0.0953  2.8558
   57MOL   H38429616   5.978   7.400   1.334 -0.6423 -0.7275  0.8672
   57MOL   H38529617   5.904   7.194   1.401 -0.6052  1.6038 -0.6253
   57MOL   H38629618   5.909   6.989   1.243 -0.6170 -0.7567 -2.3782
   57MOL   H38729619   6.008   7.018   1.016  0.1260 -0.1251  0.3616
   57MOL   H38829620   6.192   7.444   0.725  1.5208 -2.2813  0.2972
   57MOL   H38929621   6.249   7.670   0.779 -2.1450 -0.5985 -1.8928
   57MOL   H39029622   6.167   7.778   0.996  1.5549 -0.2538  0.0702
   57MOL   H39129623   6.035   7.642   1.155  2.6466 -1.3499  1.2649
   57MOL   C39229624   6.029   7.204   0.671 -0.7058  0.1651  0.2275
   57MOL   C39329625   5.974   7.084   0.594  0.3982  0.0598 -0.0349
   57MOL   N39429626   5.893   7.010   0.679  0.1136  0.1467 -0.0844
   57MOL   C39529627   5.922   6.877   0.728 -0.0855  0.6313  0.6203
   57MOL   C39629628   5.830   6.847   0.834  0.2757  0.1188 -0.3985
   57MOL   C39729629   5.844   6.718   0.904  0.1927 -0.3949 -0.7504
   57MOL   C39829630   5.942   6.623   0.859  0.2589  0.0402  0.2034
   57MOL   C39929631   6.026   6.657   0.752  0.4069 -1.1566  0.6268
   57MOL   C40029632   6.014   6.779   0.687 -0.1187 -0.7410  0.0321
   57MOL   C40129633   5.739   6.955   0.843 -0.4323 -0.1286  0.1022
   57MOL   C40229634   5.773   7.053   0.740 -0.6374  0.1668  0.2483
   57MOL   C40329635   5.699   7.169   0.727 -0.1726  0.1272 -0.4536
   57MOL   C40429636   5.592   7.189   0.815 -0.2609 -0.0022  0.8408
   57MOL   C40529637   5.559   7.099   0.921  0.2998 -0.2627  0.1881
   57MOL   C40629638   5.624   6.978   0.927 -0.3714  0.8897 -0.7383
   57MOL   H40729639   5.942   7.262   0.700 -1.8528 -0.0752 -2.5608
   57MOL   H40829640   6.092   7.262   0.604 -0.8234  1.2261  1.0304
   57MOL   H40929641   6.064   7.024   0.581 -0.8713 -1.6519 -1.1278
   57MOL   H41029642   5.779   6.702   0.990 -0.0581 -0.1637 -0.8966
   57MOL   H41129643   5.937   6.521   0.892  0.9969 -0.6835 -1.8268
   57MOL   H41229644   6.088   6.586   0.700 -1.8021 -1.7584 -1.2108
   57MOL   H41329645   6.075   6.783   0.598 -0.4616 -2.4499 -0.2944
   57MOL   H41429646   5.729   7.243   0.655  2.0683  0.0938  0.4057
   57MOL   H41529647   5.527   7.273   0.796 -1.2578 -1.7563 -4.1484
   57MOL   H41629648   5.483   7.120   0.995  0.1583  0.9092 -0.2708
   57MOL   H41729649   5.598   6.902   1.000 -3.3216  2.2085 -0.3469
   57MOL   C41829650   5.907   7.122   0.452  0.0057  0.1652  0.0514
   57MOL   C41929651   6.005   7.168   0.342  0.5415  0.3289 -0.3566
   57MOL   N42029652   6.098   7.063   0.313 -0.3298 -0.5975  0.4321
   57MOL   C42129653   6.236   7.074   0.319 -0.2080 -0.1062 -0.3317
   57MOL   C42229654   6.301   6.951   0.304  0.5185  0.3344  0.0481
   57MOL   C42329655   6.442   6.946   0.305 -0.6755  0.1586 -0.3780
   57MOL   C42429656   6.519   7.057   0.331  0.2418 -0.1671 -0.1420
   57MOL   C42529657   6.452   7.186   0.348  0.2477 -0.4356 -0.0037
   57MOL   C42629658   6.312   7.189   0.337  0.4092  0.0839  0.2059
   57MOL   C42729659   6.191   6.862   0.275 -0.6208  0.2513  0.4329
   57MOL   C42829660   6.067   6.932   0.277 -0.1611  0.0208 -0.4693
   57MOL   C42929661   5.953   6.869   0.235 -0.8969  0.4442 -1.0366
   57MOL   C43029662   5.952   6.728   0.235 -0.1725  0.6539 -0.5926
   57MOL   C43129663   6.070   6.651   0.243 -0.2580 -0.7025  0.0012
   57MOL   C43229664   6.189   6.724   0.254 -0.2229 -0.1028 -0.0671
   57MOL   H43329665   5.841   7.040   0.424  1.1192 -0.4071 -0.9752
   57MOL   H43429666   5.835   7.201   0.477  1.0852  1.0845  0.2825
   57MOL   H43529667   6.058   7.248   0.393 -0.6089  1.9965 -1.7157
   57MOL   H43629668   6.483   6.849   0.284  1.2463  1.0351 -0.8130
   57MOL   H43729669   6.626   7.059   0.340  0.3137 -0.5377 -0.8320
   57MOL   H43829670   6.494   7.282   0.374 -1.2630 -0.0081  0.9421
   57MOL   H43929671   6.259   7.284   0.336 -2.6340 -1.5677  0.3857
   57MOL   H44029672   5.859   6.922   0.226 -0.8606  1.1410  2.1299
   57MOL   H44129673   5.859   6.674   0.222  1.2403 -2.0906  0.5851
   57MOL   H44229674   6.076   6.544   0.235 -0.5699 -0.6220 -1.3753
   57MOL   H44329675   6.281   6.667   0.244 -0.7071 -0.8095 -0.5006
   57MOL   C44429676   5.944   7.216   0.211  0.1002 -0.1243  0.3066
   57MOL   C44529677   5.865   7.355   0.222  0.2160  1.0091  0.3414
   57MOL   N44629678   5.932   7.457   0.306  0.2688  0.3443  0.1077
   57MOL   C44729679   5.881   7.504   0.433 -0.4646  0.1775  0.6184
   57MOL   C44829680   5.983   7.590   0.494 -0.3526  0.0418  0.5222
   57MOL   C44929681   5.948   7.648   0.614 -0.4748 -0.2507  0.7491
   57MOL   C45029682   5.825   7.626   0.682 -0.7335  0.2962  0.6540
   57MOL   C45129683   5.729   7.545   0.627 -0.0351  0.1622  0.1806
   57MOL   C45229684   5.756   7.482   0.501 -0.9153  0.5500 -0.1075
   57MOL   C45329685   6.098   7.590   0.409 -0.8522 -0.0605  0.3351
   57MOL   C45429686   6.058   7.514   0.298 -0.2610  0.8423 -0.1481
   57MOL   C45529687   6.146   7.500   0.182 -0.3750  0.5545 -0.5712
   57MOL   C45629688   6.275   7.558   0.171  0.3151  0.2114 -0.1587
   57MOL   C45729689   6.314   7.630   0.283  0.0506  0.6797 -0.4915
   57MOL   C45829690   6.228   7.646   0.398 -0.5903 -0.3617 -0.7129
   57MOL   H45929691   6.018   7.209   0.132 -2.4253 -0.8123 -2.0927
   57MOL   H46029692   5.869   7.145   0.176 -1.1191  1.6609 -0.7901
   57MOL   H46129693   5.766   7.332   0.262 -0.4453  0.4603 -1.5731
   57MOL   H46229694   6.016   7.716   0.663  0.4383 -1.4102  1.1081
   57MOL   H46329695   5.808   7.677   0.775 -1.7095 -0.2220  0.7675
   57MOL   H46429696   5.635   7.531   0.680  0.8724 -0.1479  1.7438
   57MOL   H46529697   5.683   7.413   0.460  0.5114 -0.1332 -1.5708
   57MOL   H46629698   6.117   7.442   0.096  0.6738 -1.4781  0.4390
   57MOL   H46729699   6.330   7.553   0.078 -1.2214  1.3739 -1.1750
   57MOL   H46829700   6.407   7.685   0.294  1.9963 -1.9826 -2.8824
   57MOL   H46929701   6.265   7.708   0.478 -3.2961  0.4743 -0.0543
   57MOL   C47029702   5.829   7.400   0.080 -0.2338 -0.6838 -0.0818
   57MOL   C47129703   5.791   7.549   0.070  0.3872  0.4689 -0.0480
   57MOL   N47229704   5.794   7.591   8.157 -0.5742 -0.3777  0.3177
   57MOL   C47329705   5.904   7.661   8.108  0.2180 -0.4679  0.4725
   57MOL   C47429706   5.885   7.680   7.966 -0.1217 -0.1492  1.2691
   57MOL   C47529707   5.988   7.743   7.898 -0.1830  0.6607  0.3880
   57MOL   C47629708   6.104   7.794   7.955 -0.4220 -0.1257 -0.3595
   57MOL   C47729709   6.122   7.781   8.094  0.0464  0.5331  0.2191
   57MOL   C47829710   6.023   7.711   8.167  0.3004 -0.1174  0.3069
   57MOL   C47929711   5.756   7.634   7.931 -1.0336  0.4442  0.5294
   57MOL   C48029712   5.704   7.574   8.050  0.7982  0.8001  0.6141
   57MOL   C48129713   5.578   7.505   8.040  0.0180 -0.1304 -0.3652
   57MOL   C48229714   5.516   7.494   7.918  0.3937  0.0885 -0.4925
   57MOL   C48329715   5.566   7.547   7.802 -0.3032 -0.3034  0.4289
   57MOL   C48429716   5.684   7.623   7.812  0.1043  0.2639  0.4530
   57MOL   H48529717   5.922   7.391   0.022  0.4175 -1.2159  1.0318
   57MOL   H48629718   5.754   7.337   0.033  0.0084 -0.4562 -0.7799
   57MOL   H48729719   5.868   7.603   0.123 -0.9005  2.2784  0.0188
   57MOL   H48829720   5.972   7.760   7.793  2.0046  0.8830  0.0648
   57MOL   H48929721   6.180   7.839   7.893 -0.1746  3.1783  2.1686
   57MOL   H49029722   6.214   7.819   8.137 -0.3647  0.9480  0.7312
   57MOL   H49129723   6.028   7.708   0.047  0.0114 -0.8983  0.2987
   57MOL   H49229724   5.546   7.458   8.132  1.7216 -1.6898 -0.5469
   57MOL   H49329725   5.419   7.448   7.915  1.0178 -1.1291 -4.4715
   57MOL   H49429726   5.514   7.525   7.710  0.3674  0.2946 -0.0988
   57MOL   H49529727   5.717   7.652   7.713  0.7239 -1.3083  0.1707
   57MOL   C49629728   5.655   7.579   0.139  0.3594  0.3032  0.4222
   57MOL   C49729729   5.604   7.726   0.127  0.3768  0.7056  0.0520
   57MOL   N49829730   5.492   7.746   0.220  0.4210  0.4496  0.3206
   57MOL   C49929731   5.501   7.800   0.354 -0.8142 -0.5086 -0.7763
   57MOL   C50029732   5.371   7.804   0.410 -0.0393  0.1393  0.3082
   57MOL   C50129733   5.355   7.855   0.535  0.3469  0.4877  0.4459
   57MOL   C50229734   5.464   7.889   0.614 -0.0280 -0.3705  0.0477
   57MOL   C50329735   5.594   7.875   0.565 -0.4112 -0.0699 -0.8812
   57MOL   C50429736   5.616   7.829   0.434  0.3080 -0.4395 -0.9739
   57MOL   C50529737   5.280   7.761   0.309 -0.0177 -0.5273  0.0387
   57MOL   C50629738   5.357   7.712   0.199 -0.3195 -0.7658 -0.4698
   57MOL   C50729739   5.298   7.641   0.094 -0.1074 -1.1536 -0.4797
   57MOL   C50829740   5.160   7.621   0.099 -0.0555 -0.5169 -0.7747
   57MOL   C50929741   5.081   7.682   0.197  0.5883  0.4879  0.0547
   57MOL   C51029742   5.140   7.765   0.294 -0.1693 -1.0517 -0.4032
   57MOL   H51129743   5.576   7.510   0.107 -0.7623  1.7014  0.1228
   57MOL   H51229744   5.656   7.540   0.241  0.0120  0.2233  0.3974
   57MOL   H51329745   5.562   7.745   0.028 -0.4606 -2.2784 -0.2274
   57MOL   H51429746   5.259   7.858   0.584 -1.0638  0.2818 -2.2364
   57MOL   H51529747   5.449   7.931   0.712 -0.9240 -2.2274  0.7402
   57MOL   H51629748   5.687   7.895   0.616 -0.5581 -3.7169  0.9762
   57MOL   H51729749   5.719   7.812   0.405  0.3716  1.3676 -1.8384
   57MOL   H51829750   5.357   7.618   0.007 -0.4776  0.9137 -1.3008
   57MOL   H51929751   5.115   7.560   0.022 -0.5729 -0.6906 -0.3342
   57MOL   H52029752   4.979   7.652   0.220  0.0332  2.8157  0.7716
   57MOL   H52129753   5.091   7.800   0.383  1.8077  0.1430  0.2379
   57MOL   H52229754   5.688   7.794   0.139  1.8322 -1.0160 -0.0981
   58MOL     C129755   6.641   7.325   7.578  0.8260 -0.5748 -0.3051
   58MOL     C229756   6.783   7.380   7.614  0.0084 -0.2995 -0.7467
   58MOL     N329757   6.795   7.522   7.588 -0.1005  0.6561  0.0651
   58MOL     C429758   6.863   7.579   7.470 -0.5742 -0.5726  0.6245
   58MOL     C529759   6.850   7.723   7.481 -0.5477 -0.5890  0.5045
   58MOL     C629760   6.911   7.805   7.382  0.1464  0.1769 -0.3976
   58MOL     C729761   6.984   7.742   7.280 -0.6536 -0.1858 -0.6826
   58MOL     C829762   6.990   7.603   7.260  0.1136 -0.0745  0.8808
   58MOL     C929763   6.930   7.522   7.362 -0.5278  0.0896 -0.2656
   58MOL    C1029764   6.758   7.750   7.588 -0.2651 -0.7254  0.6775
   58MOL    C1129765   6.729   7.628   7.654 -0.4040 -0.1162 -0.0660
   58MOL    C1229766   6.633   7.634   7.761  0.8207 -0.4905  0.0268
   58MOL    C1329767   6.569   7.754   7.795 -0.0295  0.5244  0.0260
   58MOL    C1429768   6.609   7.876   7.741  0.5547  0.1572 -0.2211
   58MOL    C1529769   6.706   7.873   7.645 -0.2881  0.0070 -0.1696
   58MOL    H1629770   6.608   7.368   7.484  0.2387 -0.6031 -0.1186
   58MOL    H1729771   6.571   7.359   7.654  0.8782 -0.7589 -0.1743
   58MOL    H1829772   6.848   7.333   7.540 -0.1441 -3.7083  1.1745
   58MOL    H1929773   6.911   7.913   7.383 -0.2314  0.1736  1.2829
   58MOL    H2029774   7.032   7.793   7.197  1.8819 -1.1840  0.1346
   58MOL    H2129775   7.033   7.566   7.168 -0.6726  2.3499 -0.5210
   58MOL    H2229776   6.939   7.415   7.357  1.0235  0.1166  1.4859
   58MOL    H2329777   6.597   7.540   7.801  1.1589 -0.4147  0.5115
   58MOL    H2429778   6.489   7.747   7.868 -1.1668 -0.3954 -1.2765
   58MOL    H2529779   6.563   7.969   7.771 -3.7826 -1.0660 -2.6084
   58MOL    H2629780   6.735   7.967   7.601  3.1527 -1.0818 -0.4493
   58MOL    H2729781   6.639   7.216   7.569  1.2799 -0.5665 -0.5102
   58MOL    C2829782   6.833   7.336   7.755 -0.1478  0.7068 -0.1663
   58MOL    C2929783   6.842   7.182   7.775 -0.1833 -0.0037 -0.6270
   58MOL    N3029784   6.924   7.107   7.675 -0.3979 -0.1744  0.0993
   58MOL    C3129785   6.878   7.017   7.579 -0.3061 -0.1082  0.1007
   58MOL    C3229786   6.987   6.980   7.491 -0.7730  0.2170 -0.1517
   58MOL    C3329787   6.965   6.877   7.399  0.5418  0.0982 -0.3533
   58MOL    C3429788   6.839   6.826   7.375 -0.3079  0.0433 -0.5452
   58MOL    C3529789   6.727   6.864   7.444  0.3245  0.2704 -0.1622
   58MOL    C3629790   6.752   6.943   7.556  0.5568  0.2936 -0.1729
   58MOL    C3729791   7.098   7.055   7.539  0.3274  0.4822 -0.2862
   58MOL    C3829792   7.062   7.127   7.651 -0.2955  0.1258  0.3370
   58MOL    C3929793   7.154   7.208   7.724  0.6176  0.1274  0.3063
   58MOL    C4029794   7.288   7.225   7.671  0.0882  0.3000 -0.8967
   58MOL    C4129795   7.321   7.145   7.560  0.2604 -0.4366 -0.6136
   58MOL    C4229796   7.226   7.068   7.497 -0.1264 -0.0377  0.3733
   58MOL    H4329797   6.934   7.377   7.763  0.1078 -0.0434  0.4123
   58MOL    H4429798   6.784   7.386   7.839  0.4866  2.5675 -0.8715
   58MOL    H4529799   6.736   7.158   7.770 -0.5601  1.5216 -0.3439
   58MOL    H4629800   7.040   6.835   7.333 -0.7127  0.4957 -2.0485
   58MOL    H4729801   6.828   6.753   7.297 -0.1865 -0.2103 -0.3270
   58MOL    H4829802   6.631   6.820   7.421  0.8567 -1.2827  0.4938
   58MOL    H4929803   6.664   6.959   7.617  1.8422  2.2603  1.2307
   58MOL    H5029804   7.129   7.277   7.804  1.6800 -1.2592  1.8554
   58MOL    H5129805   7.367   7.289   7.708 -0.1962  1.0065 -1.4818
   58MOL    H5229806   7.425   7.152   7.532  0.4072 -1.7280 -0.4270
   58MOL    H5329807   7.265   7.007   7.416  0.4196 -1.1707  1.4586
   58MOL    C5429808   6.889   7.145   7.919 -0.4792 -0.2985  0.3945
   58MOL    C5529809   6.789   7.173   8.032 -0.2218 -0.5026  0.2859
   58MOL    N5629810   6.644   7.172   7.995  0.0217  0.3986  0.6203
   58MOL    C5729811   6.549   7.274   8.002 -0.4669 -0.2935  0.4276
   58MOL    C5829812   6.425   7.235   7.942 -0.7499  0.6538  0.7484
   58MOL    C5929813   6.319   7.336   7.925 -0.4941 -0.0736 -0.5508
   58MOL    C6029814   6.337   7.472   7.964 -0.1128  0.1544 -0.2061
   58MOL    C6129815   6.453   7.503   8.036  0.1116 -0.0966  0.6013
   58MOL    C6229816   6.568   7.411   8.044  0.2792 -0.2547 -0.0945
   58MOL    C6329817   6.446   7.094   7.904  0.0895  0.1177 -0.8758
   58MOL    C6429818   6.579   7.058   7.942 -0.1384  0.7053 -1.3731
   58MOL    C6529819   6.627   6.928   7.928  0.1016  0.2682  0.4596
   58MOL    C6629820   6.542   6.832   7.877  0.7872  0.4156 -1.0624
   58MOL    C6729821   6.409   6.867   7.849 -0.5756  0.0366 -0.2834
   58MOL    C6829822   6.364   7.001   7.841  0.0119  0.8394  0.5268
   58MOL    H6929823   6.915   7.039   7.920 -2.8203 -0.9102  1.9214
   58MOL    H7029824   6.981   7.195   7.948 -0.6864  0.6049 -0.4868
   58MOL    H7129825   6.811   7.277   8.058  0.7016 -0.1704 -1.7121
   58MOL    H7229826   6.234   7.311   7.863 -1.1904  0.8783  0.0264
   58MOL    H7329827   6.259   7.545   7.951  0.4078  1.2540  2.4047
   58MOL    H7429828   6.475   7.600   8.078 -2.9714  0.7222  0.4747
   58MOL    H7529829   6.650   7.449   8.102 -0.2164  0.5651  0.0872
   58MOL    H7629830   6.731   6.902   7.942  0.0361 -0.2153  0.0631
   58MOL    H7729831   6.571   6.731   7.851 -0.3307 -0.5187  1.1290
   58MOL    H7829832   6.338   6.792   7.818 -3.3150  1.5935  2.0344
   58MOL    H7929833   6.266   7.023   7.801 -0.1456 -0.6149  0.0675
   58MOL    C8029834   6.812   7.088   8.159  0.3684  0.3334 -0.3502
   58MOL    C8129835   6.958   7.083   8.212 -0.0460 -0.3732 -0.6308
   58MOL    N8229836   7.010   7.207   0.041 -0.0763  0.1176 -0.3107
   58MOL    C8329837   7.122   7.276   8.223  0.1161 -0.0465  0.4313
   58MOL    C8429838   7.159   7.382   0.083  0.4386  0.2527  0.2627
   58MOL    C8529839   7.275   7.453   0.054 -0.0245 -0.4004 -0.8187
   58MOL    C8629840   7.348   7.432   8.165  0.6747 -0.0990 -0.3846
   58MOL    C8729841   7.327   7.315   8.091  0.2242  0.2010 -0.0464
   58MOL    C8829842   7.208   7.239   8.118  0.1721 -0.5344 -0.5116
   58MOL    C8929843   7.063   7.382   0.186 -0.0267  0.6748  0.0811
   58MOL    C9029844   6.963   7.285   0.153  0.3739 -0.3088  0.2329
   58MOL    C9129845   6.852   7.268   0.235  0.5549  0.1865 -1.0054
   58MOL    C9229846   6.840   7.349   0.350  0.9145  0.0198  0.0697
   58MOL    C9329847   6.933   7.447   0.385 -0.2024  0.5284  0.1093
   58MOL    C9429848   7.052   7.457   0.310  0.0934 -0.3451 -0.0431
   58MOL    H9529849   6.755   7.137   0.011 -0.0959 -0.3038 -0.2892
   58MOL    H9629850   6.774   6.987   8.146  1.8482 -0.3603  0.5602
   58MOL    H9729851   7.023   7.058   8.128 -0.6193 -1.1593 -0.8405
   58MOL    H9829852   7.329   7.514   0.124 -0.5112 -0.4749 -0.3791
   58MOL    H9929853   7.432   7.496   8.141 -0.1727  0.1446 -2.8247
   58MOL   H10029854   7.391   7.296   8.006 -0.4477  1.6762 -0.9149
   58MOL   H10129855   7.192   7.156   8.050  0.2989 -0.4384 -0.6588
   58MOL   H10229856   6.766   7.205   0.226  1.4118 -0.9522 -1.3136
   58MOL   H10329857   6.742   7.349   0.396  0.3771  0.1852 -1.0554
   58MOL   H10429858   6.922   7.503   0.477 -1.0707 -0.0931  0.3895
   58MOL   H10529859   7.133   7.522   0.338  0.3716  0.1179 -1.8706
   58MOL   C10629860   6.991   6.965   0.084  0.2659  0.0592 -0.0915
   58MOL   C10729861   7.010   6.821   0.028  0.3001 -0.0264  0.1843
   58MOL   N10829862   7.057   6.813   8.115  0.1279  0.1722  0.1763
   58MOL   C10929863   6.986   6.749   8.010  0.0216  0.1858  0.1167
   58MOL   C11029864   7.052   6.770   7.891 -0.1818 -0.3535 -0.0653
   58MOL   C11129865   7.004   6.712   7.774 -0.6582 -0.7731 -0.2086
   58MOL   C11229866   6.877   6.652   7.767 -0.2550  0.3572  0.5777
   58MOL   C11329867   6.811   6.628   7.889  0.0046 -0.5992 -0.4450
   58MOL   C11429868   6.867   6.670   8.012  0.6405 -0.8289 -1.0241
   58MOL   C11529869   7.180   6.841   7.923  0.2125 -0.2818 -0.1203
   58MOL   C11629870   7.177   6.860   8.064 -0.6238  0.4396 -0.5970
   58MOL   C11729871   7.289   6.918   8.128 -0.4987 -0.1292  0.7881
   58MOL   C11829872   7.403   6.951   8.054 -0.3736 -0.0690  0.5453
   58MOL   C11929873   7.408   6.925   7.913  0.7026 -0.2133 -0.0700
   58MOL   C12029874   7.295   6.878   7.848  0.4935 -0.8947  0.0378
   58MOL   H12129875   7.088   6.994   0.126  0.3748 -1.1482  0.5199
   58MOL   H12229876   6.921   6.972   0.168  0.6723  0.6230  0.2041
   58MOL   H12329877   6.912   6.773   0.030  1.1061 -1.8634 -1.9249
   58MOL   H12429878   7.066   6.732   7.688 -0.9532 -0.4582 -0.3508
   58MOL   H12529879   6.840   6.609   7.675 -0.7038  0.3407  0.7637
   58MOL   H12629880   6.720   6.570   7.894 -0.1722 -0.8756 -4.9270
   58MOL   H12729881   6.811   6.656   8.103 -0.6945  0.6064 -1.6067
   58MOL   H12829882   7.290   6.917   0.009 -1.7968  0.1999  0.8111
   58MOL   H12929883   7.484   6.996   8.110  0.8702  0.1070 -1.3436
   58MOL   H13029884   7.491   6.961   7.855  0.7887 -0.7909 -0.3110
   58MOL   H13129885   7.299   6.867   7.740 -1.5239 -0.4864 -0.1077
   58MOL   C13229886   7.104   6.734   0.116  0.0879  0.5774  0.3879
   58MOL   C13329887   7.044   6.680   0.249 -0.7448 -0.5666  0.2509
   58MOL   N13429888   6.925   6.600   0.232 -0.6445 -0.4784 -0.0882
   58MOL   C13529889   6.806   6.609   0.306  0.4020 -0.7578  0.6753
   58MOL   C13629890   6.707   6.526   0.246  0.2203  0.3358  0.9705
   58MOL   C13729891   6.570   6.535   0.292  0.7095 -0.5217 -0.2456
   58MOL   C13829892   6.533   6.621   0.403 -0.1076 -0.0183  0.2192
   58MOL   C13929893   6.632   6.685   0.473  0.1231 -0.0914 -0.0039
   58MOL   C14029894   6.763   6.690   0.418 -0.7804  0.9498 -0.1943
   58MOL   C14129895   6.771   6.455   0.134  0.1930 -0.0384 -0.1701
   58MOL   C14229896   6.904   6.502   0.137  0.3168 -0.7149 -0.1392
   58MOL   C14329897   7.002   6.437   0.055 -0.4984  0.0319 -0.6366
   58MOL   C14429898   6.958   6.351   8.181 -0.1864 -0.0453  0.3061
   58MOL   C14529899   6.824   6.314   8.163  0.3238  0.2266  0.7541
   58MOL   C14629900   6.732   6.370   0.029  0.0148 -0.0570  0.0176
   58MOL   H14729901   7.131   6.655   0.046  0.2825  1.0297 -0.0457
   58MOL   H14829902   7.192   6.794   0.136  0.4185  0.0988  0.3842
   58MOL   H14929903   7.025   6.777   0.296 -0.1163 -1.0303  1.4816
   58MOL   H15029904   6.498   6.459   0.263  0.7285 -0.4019 -0.6183
   58MOL   H15129905   6.433   6.610   0.442 -0.0222  1.2869  0.8542
   58MOL   H15229906   6.608   6.744   0.560  3.1833  3.8377 -1.6088
   58MOL   H15329907   6.836   6.751   0.467 -0.2949  0.4462 -0.2808
   58MOL   H15429908   7.107   6.445   0.078 -0.9887  1.7703  1.0744
   58MOL   H15529909   7.041   6.304   8.129  0.1812  0.0754  0.7925
   58MOL   H15629910   6.792   6.241   8.090 -0.3720  0.8120  0.4665
   58MOL   H15729911   6.633   6.328   0.026 -0.0744  0.0245  1.7348
   58MOL   C15829912   7.155   6.610   0.334 -0.1675  0.2020  0.2164
   58MOL   C15929913   7.285   6.695   0.369  0.2627 -0.4927 -0.0724
   58MOL   N16029914   7.255   6.814   0.449  0.2593 -1.0602  0.3369
   58MOL   C16129915   7.289   6.944   0.390  0.1324 -0.5295  0.0405
   58MOL   C16229916   7.247   7.045   0.478  0.4293  0.6139 -0.2049
   58MOL   C16329917   7.259   7.186   0.445  0.5744  0.3845 -0.5684
   58MOL   C16429918   7.319   7.218   0.323  0.1725  0.4300 -0.3358
   58MOL   C16529919   7.369   7.117   0.240  0.3154 -0.4276 -0.1308
   58MOL   C16629920   7.354   6.979   0.269 -0.1313  0.6101  0.2020
   58MOL   C16729921   7.210   6.977   0.599  0.2807  0.8274 -0.9067
   58MOL   C16829922   7.208   6.833   0.574 -0.0734  0.3473 -0.8712
   58MOL   C16929923   7.166   6.752   0.680 -0.1046  0.5324  0.6177
   58MOL   C17029924   7.132   6.799   0.809 -0.5134 -0.7473 -0.4869
   58MOL   C17129925   7.134   6.937   0.832  0.4684 -0.2390  0.6165
   58MOL   C17229926   7.162   7.024   0.725  0.4571  0.1289 -0.1970
   58MOL   H17329927   7.103   6.574   0.422  0.1369  0.6584  0.5821
   58MOL   H17429928   7.180   6.518   0.281 -1.8311 -0.1730  0.0542
   58MOL   H17529929   7.325   6.727   0.273 -0.2249 -1.2013 -0.5126
   58MOL   H17629930   7.236   7.274   0.504  0.6051 -1.0493  1.6372
   58MOL   H17729931   7.349   7.313   0.281 -1.1833  0.4303 -1.3074
   58MOL   H17829932   7.411   7.141   0.143  0.8576  0.8538  0.4107
   58MOL   H17929933   7.401   6.906   0.203 -2.0395 -1.1157  0.6991
   58MOL   H18029934   7.170   6.644   0.671 -1.1558  0.3787  1.7718
   58MOL   H18129935   7.108   6.733   0.891  0.6006 -0.5939 -0.0313
   58MOL   H18229936   7.112   6.960   0.936  0.8489 -2.2992  1.1909
   58MOL   H18329937   7.156   7.131   0.740  1.8092  0.3523 -1.1639
   58MOL   C18429938   7.392   6.613   0.432 -0.4896  0.3834 -0.0379
   58MOL   C18529939   7.534   6.674   0.396 -0.4521 -0.0843 -0.3377
   58MOL   N18629940   7.625   6.631   0.498  0.2581  0.2482 -0.6690
   58MOL   C18729941   7.700   6.711   0.579 -0.2405 -0.4170 -0.5195
   58MOL   C18829942   7.794   6.633   0.654 -0.0247 -0.3965  0.3344
   58MOL   C18929943   7.888   6.701   0.736 -0.1629 -0.6732  0.5119
   58MOL   C19029944   7.886   6.839   0.747  0.2219 -0.6902  0.5775
   58MOL   C19129945   7.784   6.912   0.681 -0.2434  0.3617  0.4744
   58MOL   C19229946   7.683   6.847   0.605  0.5414 -1.1280 -0.4232
   58MOL   C19329947   7.775   6.499   0.612 -0.1930 -1.0161  0.4422
   58MOL   C19429948   7.669   6.499   0.520 -0.3461  0.2873  0.0099
   58MOL   C19529949   7.619   6.375   0.462 -0.6866 -0.1488 -0.2873
   58MOL   C19629950   7.680   6.255   0.498  0.1710 -0.7591 -0.2326
   58MOL   C19729951   7.791   6.253   0.584 -0.1659 -0.0821  0.1486
   58MOL   C19829952   7.840   6.375   0.645 -0.1710  0.1339  0.3432
   58MOL   H19929953   7.380   6.589   0.537  0.7574 -1.3215 -0.2642
   58MOL   H20029954   7.391   6.514   0.387  0.5898 -0.5833  2.0199
   58MOL   H20129955   7.524   6.781   0.413  1.4612 -0.0745  0.8427
   58MOL   H20229956   7.972   6.648   0.780 -0.5194 -2.3989 -0.8329
   58MOL   H20329957   7.961   6.903   0.791 -0.9883  0.5254  0.9178
   58MOL   H20429958   7.779   7.020   0.680 -0.0190  0.3669 -0.5586
   58MOL   H20529959   7.597   6.907   0.580  0.6717 -0.5041  0.5960
   58MOL   H20629960   7.539   6.368   0.390 -1.5872  1.6441  0.5336
   58MOL   H20729961   7.646   6.161   0.457 -1.9733  0.6143 -1.6602
   58MOL   H20829962   7.827   6.156   0.614  0.7037  0.6616  1.5648
   58MOL   H20929963   7.924   6.368   0.712 -1.5065 -0.3619  1.9983
   58MOL   C21029964   7.592   6.640   0.255  0.0002 -0.6086  0.5024
   58MOL   C21129965   7.716   6.731   0.231 -0.0212  0.4509  0.3110
   58MOL   N21229966   7.817   6.671   0.138  0.2133 -0.5446  0.4547
   58MOL   C21329967   7.949   6.639   0.159  0.6792 -0.8619  0.9698
   58MOL   C21429968   8.015   6.585   0.042  0.1711 -0.2981 -0.2125
   58MOL   C21529969   8.148   6.538   0.051 -0.7509  0.4163  0.3913
   58MOL   C21629970   8.220   6.539   0.176  0.3346  0.4296 -0.8344
   58MOL   C21729971   8.155   6.603   0.290 -0.5709  0.5050  0.5999
   58MOL   C21829972   8.022   6.650   0.280 -0.0165 -0.3171  0.1287
   58MOL   C21929973   7.910   6.582   8.172  0.4212  0.2964 -0.5809
   58MOL   C22029974   7.796   6.643   0.002 -0.3888  0.6470 -0.1230
   58MOL   C22129975   7.687   6.663   8.150 -0.3344  0.5778  0.2443
   58MOL   C22229976   7.681   6.621   8.018 -0.6818  0.7114 -0.0160
   58MOL   C22329977   7.790   6.555   7.956  0.2037 -0.6147 -0.7719
   58MOL   C22429978   7.904   6.537   8.036  0.5269  0.4903 -0.1015
   58MOL   H22529979   7.627   6.537   0.252 -1.6538 -1.1449 -1.2731
   58MOL   H22629980   7.525   6.661   0.172 -0.8470 -1.1445  1.0454
   58MOL   H22729981   7.762   6.733   0.330 -0.9835  0.6026  0.7562
   58MOL   H22829982   8.187   6.493   8.188 -1.6458 -1.2943  0.8388
   58MOL   H22929983   0.090   6.493   0.186 -0.6906 -1.7591 -0.5701
   58MOL   H23029984   8.210   6.605   0.384 -0.2201  3.8709  0.3601
   58MOL   H23129985   7.976   6.682   0.372  0.0283 -2.0338  0.7648
   58MOL   H23229986   7.599   6.702   8.199 -1.9915 -1.8439 -0.6933
   58MOL   H23329987   7.591   6.644   7.962 -0.4103 -1.7093 -1.5302
   58MOL   H23429988   7.786   6.517   7.855 -1.0175 -0.8543 -0.6459
   58MOL   H23529989   7.994   6.494   7.993  0.6185  2.0006 -1.4698
   58MOL   C23629990   7.682   6.883   0.194  0.6150 -0.0158 -0.0359
   58MOL   C23729991   7.801   6.976   0.158 -0.7663  0.2970 -0.1476
   58MOL   N23829992   7.766   7.101   0.090  0.6886 -0.2878  0.1878
   58MOL   C23929993   7.770   7.118   8.175  0.6257 -0.2865 -0.2440
   58MOL   C24029994   7.762   7.261   8.151  0.0593 -1.3169 -0.2648
   58MOL   C24129995   7.788   7.313   8.021 -0.2210  0.3518 -0.4232
   58MOL   C24229996   7.797   7.223   7.917 -0.5531  0.4671  0.2591
   58MOL   C24329997   7.805   7.084   7.938 -0.3018 -0.2457  0.4321
   58MOL   C24429998   7.798   7.028   8.070 -0.7329  0.1721 -0.2032
   58MOL   C24529999   7.726   7.320   0.050 -0.4365 -0.3674 -0.0309
   58MOL   C24630000   7.715   7.218   0.145 -0.4879  0.2259  0.5979
   58MOL   C24730001   7.663   7.250   0.270  0.5069  0.2075 -0.2880
   58MOL   C24830002   7.663   7.387   0.318  0.0099 -0.0134  0.5856
   58MOL   C24930003   7.699   7.490   0.233  0.0678  0.3902  0.8440
   58MOL   C25030004   7.716   7.456   0.095  0.5441  0.2407 -0.3031
   58MOL   H25130005   7.618   6.875   0.106 -0.8636  0.9630  0.9132
   58MOL   H25230006   7.616   6.938   0.262  0.4032 -0.4123  0.0847
   58MOL   H25330007   7.854   6.921   0.080 -0.0782  1.2403 -0.3507
   58MOL   H25430008   7.780   7.417   7.996 -1.9685  0.5970  1.0105
   58MOL   H25530009   7.802   7.262   7.817  0.9362 -2.0237 -0.6758
   58MOL   H25630010   7.812   7.020   7.852 -0.7058  1.1498 -0.6449
   58MOL   H25730011   7.810   6.922   8.084 -0.7759  0.1434 -0.3826
   58MOL   H25830012   7.635   7.172   0.339 -1.6462  0.2802 -1.0481
   58MOL   H25930013   7.634   7.400   0.421  0.2708  2.9854  0.3158
   58MOL   H26030014   7.694   7.595   0.254 -1.0678  0.1996  1.5641
   58MOL   H26130015   7.735   7.539   0.029  1.5229 -1.1177 -1.7564
   58MOL   C26230016   7.895   6.993   0.285  0.0463 -0.5154  0.0335
   58MOL   C26330017   8.029   7.059   0.242 -0.5110  0.6079 -0.1822
   58MOL   N26430018   8.092   7.126   0.356  0.5120 -0.2031 -0.6484
   58MOL   C26530019   8.128   7.266   0.351 -0.8466  0.3480  0.1448
   58MOL   C26630020   8.212   7.294   0.462 -0.5895  0.1497  0.8487
   58MOL   C26730021   0.043   7.425   0.463  0.2939 -0.0389 -0.1778
   58MOL   C26830022   0.017   7.526   0.369  0.7957  0.4300 -0.0272
   58MOL   C26930023   8.162   7.489   0.254 -0.8624 -0.5862  0.9014
   58MOL   C27030024   8.099   7.364   0.246 -0.5424  0.1516 -1.3208
   58MOL   C27130025   8.222   7.177   0.540  0.2472 -0.0361  0.1176
   58MOL   C27230026   8.143   7.077   0.476  0.5680  0.8184  0.8382
   58MOL   C27330027   8.136   6.945   0.534 -0.2262 -0.4934 -0.2727
   58MOL   C27430028   8.199   6.910   0.652  0.5671  0.3170 -0.3596
   58MOL   C27530029   0.050   7.012   0.713  0.9995 -0.4641  0.1367
   58MOL   C27630030   0.052   7.139   0.668 -0.4167  0.0499  0.0724
   58MOL   H27730031   7.841   7.051   0.359  1.0725 -2.1685  2.1049
   58MOL   H27830032   7.921   6.897   0.330  1.7259  0.6896  1.6994
   58MOL   H27930033   8.000   7.144   0.180 -2.3422 -0.1405 -0.3493
   58MOL   H28030034   0.119   7.435   0.539  1.4944 -1.9482 -1.0802
   58MOL   H28130035   0.067   7.619   0.388  0.9920 -0.0337  1.8127
   58MOL   H28230036   8.157   7.567   0.180  2.1587  1.3661  2.6383
   58MOL   H28330037   8.041   7.336   0.159  0.5445 -1.9958 -1.3998
   58MOL   H28430038   8.076   6.867   0.490 -0.1386  1.5270 -4.1986
   58MOL   H28530039   8.195   6.810   0.694  1.9834  0.0510 -0.8511
   58MOL   H28630040   0.110   6.986   0.799  1.9353  1.0143 -0.0398
   58MOL   H28730041   0.113   7.209   0.722  2.5097 -0.7758 -2.0506
   58MOL   C28830042   8.128   6.962   0.162 -0.2352 -0.2427  0.3619
   58MOL   C28930043   0.027   7.037   0.110  0.2669 -0.1351 -0.0688
   58MOL   N29030044   0.136   6.946   0.075  0.3555 -0.2364 -0.0230
   58MOL   C29130045   0.261   6.942   0.140 -0.5836  0.3437 -0.3857
   58MOL   C29230046   0.349   6.856   0.066  0.0029  0.6930  0.0281
   58MOL   C29330047   0.485   6.845   0.109 -0.0638  0.4067  0.1001
   58MOL   C29430048   0.527   6.910   0.220  0.1164  0.5916  0.1959
   58MOL   C29530049   0.440   6.991   0.295 -0.2014 -0.3325  0.7123
   58MOL   C29630050   0.304   7.013   0.258  0.5345  0.0622  0.3011
   58MOL   C29730051   0.265   6.793   8.189  0.5731 -0.2528 -0.1631
   58MOL   C29830052   0.136   6.855   8.200  0.2675  0.4479  0.0108
   58MOL   C29930053   0.033   6.817   8.110 -0.3430  0.1084  0.2295
   58MOL   C30030054   0.054   6.713   8.011  0.9149 -0.0198  0.0412
   58MOL   C30130055   0.179   6.648   8.012 -0.1423  0.2434  0.3666
   58MOL   C30230056   0.283   6.688   8.102 -0.1416  0.2167  0.2131
   58MOL   H30330057   8.169   6.886   0.228  1.4374 -1.0049 -1.5103
   58MOL   H30430058   8.071   6.898   0.094 -1.5410  2.0013 -0.7335
   58MOL   H30530059   0.066   7.096   0.192  0.7450  0.3512 -0.6398
   58MOL   H30630060   0.554   6.781   0.056  0.4428  2.5996 -1.9698
   58MOL   H30730061   0.630   6.899   0.251  0.9867  0.3041 -2.7003
   58MOL   H30830062   0.482   7.041   0.380 -0.2627  0.2681  0.3900
   58MOL   H30930063   0.236   7.077   0.312  0.1098  0.1431 -0.3290
   58MOL   H31030064   8.162   6.861   8.119 -0.8071 -0.7499 -0.5101
   58MOL   H31130065   8.197   6.679   7.953 -1.2152  2.7899  1.3128
   58MOL   H31230066   0.200   6.566   7.944 -0.3704  0.8575 -0.4476
   58MOL   H31330067   0.382   6.647   8.098  0.2525  1.1277  0.5587
   58MOL   C31430068   0.002   7.132   8.218  0.8150 -0.7620  0.2311
   58MOL   C31530069   0.126   7.219   8.167  0.1124 -0.1738 -0.1695
   58MOL   N31630070   0.096   7.279   8.032 -0.4593  0.1935 -0.3395
   58MOL   C31730071   0.149   7.236   7.908  0.5843  0.4299 -0.0887
   58MOL   C31830072   0.114   7.330   7.807  0.0950 -0.0426  0.2628
   58MOL   C31930073   0.170   7.320   7.677  0.4063 -0.0526  0.0348
   58MOL   C32030074   0.259   7.214   7.647  0.3399  0.9334  0.2994
   58MOL   C32130075   0.301   7.123   7.749 -0.2538 -0.1779  0.0713
   58MOL   C32230076   0.244   7.137   7.881 -0.2864  0.4119  0.2481
   58MOL   C32330077   0.021   7.420   7.870  0.1071  0.6161  0.3526
   58MOL   C32430078   0.012   7.386   8.010  0.0466 -0.9169 -0.3863
   58MOL   C32530079   8.153   7.459   8.099 -0.2790 -0.1058  0.8277
   58MOL   C32630080   8.072   7.568   8.054  0.1676  0.1275  0.2302
   58MOL   C32730081   8.081   7.594   7.920 -0.3141 -0.5192  0.0453
   58MOL   C32830082   8.163   7.526   7.830 -0.4542  0.2818  0.1515
   58MOL   H32930083   8.214   7.072   8.129  0.4535  0.2456 -0.3956
   58MOL   H33030084   8.138   7.189   0.007  0.3947 -1.0164 -1.1811
   58MOL   H33130085   0.199   7.139   8.161  1.5697  1.0723  0.5556
   58MOL   H33230086   0.142   7.392   7.601 -0.2801 -0.3478  0.0069
   58MOL   H33330087   0.295   7.200   7.547 -0.4219  0.5247  0.0756
   58MOL   H33430088   0.374   7.045   7.731 -0.6318 -1.0510  2.2080
   58MOL   H33530089   0.286   7.070   7.954  0.6782  2.1973  1.3803
   58MOL   H33630090   8.141   7.437   8.204  0.1134 -3.3120  0.2363
   58MOL   H33730091   8.008   7.624   8.121 -0.1501 -0.2362  0.2365
   58MOL   H33830092   8.008   7.664   7.881 -1.2636 -0.5128  1.7706
   58MOL   H33930093   8.151   7.548   7.725  0.8733  1.2401  0.1770
   58MOL   C34030094   0.179   7.319   0.049  0.4794 -0.1174  0.0742
   58MOL   C34130095   0.283   7.422   0.006  0.8465 -0.0702 -0.0615
   58MOL   N34230096   0.291   7.541   0.091 -0.0694 -0.7890 -0.1438
   58MOL   C34330097   0.255   7.673   0.061 -0.3391 -0.4225 -0.7011
   58MOL   C34430098   0.292   7.755   0.170 -0.7256  0.1795 -0.7963
   58MOL   C34530099   0.268   7.893   0.160  0.9449 -0.4235  0.0473
   58MOL   C34630100   0.201   7.947   0.045  0.1525 -0.1188 -0.2173
   58MOL   C34730101   0.176   7.863   8.157  0.1414 -0.2932 -0.0648
   58MOL   C34830102   0.199   7.726   8.169  0.2131  0.5220 -0.0848
   58MOL   C34930103   0.355   7.670   0.270 -0.1799 -0.5973  0.4637
   58MOL   C35030104   0.350   7.542   0.211  0.1330 -0.2797  0.0092
   58MOL   C35130105   0.409   7.434   0.278  1.0166 -0.6342  0.6842
   58MOL   C35230106   0.472   7.454   0.402 -0.0783  0.1712  0.3147
   58MOL   C35330107   0.483   7.578   0.456 -0.8482 -0.3056  0.6466
   58MOL   C35430108   0.424   7.689   0.393 -0.0876 -0.2049  0.1431
   58MOL   H35530109   0.086   7.368   0.075  1.0906  0.1956  1.7951
   58MOL   H35630110   0.208   7.254   0.133  2.6260 -1.4585 -1.6418
   58MOL   H35730111   0.243   7.461   8.139 -0.5207 -0.2228  0.4445
   58MOL   H35830112   0.284   7.956   0.246  0.2676 -0.0305 -0.1079
   58MOL   H35930113   0.176   8.053   0.039  0.3849 -0.0411  0.1969
   58MOL   H36030114   0.128   7.893   8.065 -0.7360  0.8334  0.7549
   58MOL   H36130115   0.169   7.659   8.090  0.9314 -1.6507  1.4262
   58MOL   H36230116   0.406   7.330   0.248 -3.6936 -0.5975  0.6842
   58MOL   H36330117   0.514   7.366   0.450  0.4492 -1.7482 -3.4789
   58MOL   H36430118   0.525   7.587   0.555  2.8700 -2.4187 -0.6431
   58MOL   H36530119   0.442   7.782   0.445 -2.6627  0.2557  0.3176
   58MOL   C36630120   0.419   7.359   8.186  0.9487 -0.6089 -0.3947
   58MOL   C36730121   0.504   7.456   8.100 -0.4560  0.7643 -0.0302
   58MOL   N36830122   0.651   7.418   8.106 -0.0475  0.1325  0.0585
   58MOL   C36930123   0.749   7.486   8.176  0.9035  0.2798  0.8900
   58MOL   C37030124   0.872   7.432   8.147  0.0589 -0.2322 -1.1264
   58MOL   C37130125   0.988   7.476   8.212 -0.8922 -0.2005 -0.5548
   58MOL   C37230126   0.987   7.596   0.064  0.3612 -0.7618 -0.2226
   58MOL   C37330127   0.865   7.650   0.092  0.2777 -0.5284 -0.1018
   58MOL   C37430128   0.743   7.594   0.038 -0.2913  0.2495 -0.5282
   58MOL   C37530129   0.850   7.312   8.071  0.4260 -0.3888 -0.2434
   58MOL   C37630130   0.713   7.317   8.036  0.0115 -0.1087  0.4146
   58MOL   C37730131   0.661   7.218   7.952 -0.3126  0.4363  0.3475
   58MOL   C37830132   0.739   7.106   7.915 -0.3556  0.4246  0.8126
   58MOL   C37930133   0.875   7.112   7.937  0.0409  1.0195  0.5007
   58MOL   C38030134   0.932   7.212   8.015  0.3253  0.0604 -0.2906
   58MOL   H38130135   0.473   7.330   0.050 -1.6274  0.0717  1.3965
   58MOL   H38230136   0.397   7.262   8.142  2.9072 -1.5690  0.6726
   58MOL   H38330137   0.513   7.554   8.148  3.3625  2.1707 -3.3119
   58MOL   H38430138   1.072   7.410   8.203 -1.2847 -0.8486  0.5428
   58MOL   H38530139   1.073   7.633   0.117  0.4870 -0.6251 -0.5195
   58MOL   H38630140   0.861   7.730   0.164  0.3694  0.0579 -0.7370
   58MOL   H38730141   0.648   7.639   0.063 -0.1978  1.5921 -2.4579
   58MOL   H38830142   0.555   7.223   7.931 -0.4909  0.3128  1.2036
   58MOL   H38930143   0.694   7.020   7.870 -1.4183  0.8061  1.1317
   58MOL   H39030144   0.935   7.027   7.907 -0.9336 -0.4443  2.6115
   58MOL   H39130145   1.038   7.207   8.030  0.3147 -2.7563 -0.8973
   58MOL   C39230146   0.449   7.477   7.954 -0.1766 -0.2717  0.1654
   58MOL   C39330147   0.542   7.545   7.845  0.2424  0.4848  0.1105
   58MOL   N39430148   0.470   7.546   7.718  0.7383  0.3324 -0.9801
   58MOL   C39530149   0.502   7.466   7.608 -0.2483  0.2904  0.2575
   58MOL   C39630150   0.423   7.511   7.498 -0.6452  0.1013  0.4028
   58MOL   C39730151   0.454   7.448   7.371  0.2161 -0.0519 -0.2129
   58MOL   C39830152   0.555   7.348   7.353  0.6344  0.7902  0.8505
   58MOL   C39930153   0.628   7.303   7.463  0.2324 -0.5264 -0.3039
   58MOL   C40030154   0.597   7.361   7.592 -0.5512 -0.1486 -1.0806
   58MOL   C40130155   0.332   7.606   7.551 -0.2732 -0.2948  0.6141
   58MOL   C40230156   0.362   7.627   7.687 -0.2232 -0.3116  0.4145
   58MOL   C40330157   0.293   7.725   7.761  0.6523 -0.3135  0.2266
   58MOL   C40430158   0.183   7.790   7.700 -0.4270  0.0012  0.0361
   58MOL   C40530159   0.148   7.770   7.570 -0.3274  0.2869 -0.6875
   58MOL   C40630160   0.227   7.682   7.492 -0.1014  0.0180  0.1699
   58MOL   H40730161   0.433   7.374   7.924  0.7253 -0.7139  1.1695
   58MOL   H40830162   0.359   7.536   7.971 -1.0844 -0.8273 -2.5656
   58MOL   H40930163   0.628   7.480   7.834 -0.2743 -0.6003  2.2526
   58MOL   H41030164   0.396   7.480   7.286  0.7574 -1.5103 -1.1423
   58MOL   H41130165   0.577   7.294   7.262  0.7740  0.2256  1.2190
   58MOL   H41230166   0.701   7.225   7.447  1.3465 -0.1033  2.3582
   58MOL   H41330167   0.640   7.324   7.684 -2.4440 -1.7638 -0.8008
   58MOL   H41430168   0.319   7.747   7.864  1.8502 -0.1392 -0.0995
   58MOL   H41530169   0.124   7.865   7.751 -0.7240 -0.5645  0.5204
   58MOL   H41630170   0.060   7.815   7.527  0.4886  0.9020 -1.7455
   58MOL   H41730171   0.204   7.671   7.387  0.7251 -0.8564  0.0742
   58MOL   C41830172   0.609   7.680   7.891 -0.1374 -0.1584 -0.6345
   58MOL   C41930173   0.651   7.766   7.773 -0.2335  0.8529 -0.0551
   58MOL   N42030174   0.681   7.904   7.801 -0.2086 -0.3514  0.1829
   58MOL   C42130175   0.639   8.015   7.725  1.1706  0.6457  0.6928
   58MOL   C42230176   0.704   8.132   7.766  0.6837  0.2248  0.7488
   58MOL   C42330177   0.685   0.030   7.697 -0.3106 -0.4222 -0.5864
   58MOL   C42430178   0.597   0.039   7.589  0.5250  0.2658  0.5107
   58MOL   C42530179   0.521   8.153   7.548 -0.1104 -0.3071 -0.1402
   58MOL   C42630180   0.550   8.025   7.612  0.6002  0.0124 -0.8119
   58MOL   C42730181   0.781   8.096   7.876  0.3286  0.2793  0.3903
   58MOL   C42830182   0.773   7.951   7.896 -0.3648  0.2615 -0.3480
   58MOL   C42930183   0.842   7.891   8.005  0.2431  0.4159 -0.2539
   58MOL   C43030184   0.937   7.964   8.082 -0.2834  0.6049 -0.9804
   58MOL   C43130185   0.942   8.106   8.060  0.4968 -0.2570 -0.2952
   58MOL   C43230186   0.868   8.177   7.960  0.3591  0.4404 -0.5838
   58MOL   H43330187   0.534   7.738   7.944  0.2692 -0.4806  0.2897
   58MOL   H43430188   0.685   7.664   7.966 -2.0013 -1.5531  0.9915
   58MOL   H43530189   0.578   7.773   7.692 -1.7251  0.4161  1.2164
   58MOL   H43630190   0.733   0.121   7.731 -1.7741 -0.1977  0.9145
   58MOL   H43730191   0.596   0.131   7.533  2.8580 -1.5344 -2.7163
   58MOL   H43830192   0.454   8.155   7.464 -1.1716  3.1182  0.7103
   58MOL   H43930193   0.508   7.931   7.579  1.2106 -0.6785  0.3483
   58MOL   H44030194   0.824   7.787   8.027  0.1392  0.7587  1.2849
   58MOL   H44130195   0.999   7.914   8.154 -0.8818 -1.2134 -1.7007
   58MOL   H44230196   1.010   8.158   8.126  1.7453 -0.2025 -1.5957
   58MOL   H44330197   0.866   0.058   7.956 -0.1720  0.4117 -1.0716
   58MOL   C44430198   0.774   7.694   7.709 -0.1875  0.1277  0.2793
   58MOL   C44530199   0.839   7.735   7.575  0.4742  0.9752 -0.0397
   58MOL   N44630200   0.972   7.678   7.562 -0.1995  0.3365 -0.2564
   58MOL   C44730201   1.082   7.729   7.634 -0.3755 -0.2644  0.2980
   58MOL   C44830202   1.201   7.652   7.606  0.6800  0.3652  0.7271
   58MOL   C44930203   1.323   7.689   7.666  0.0205  0.1180 -0.4383
   58MOL   C45030204   1.324   7.787   7.770  0.2306 -0.0019  0.2753
   58MOL   C45130205   1.207   7.863   7.800 -0.5797  0.3869  0.4751
   58MOL   C45230206   1.087   7.837   7.728 -0.2973 -0.4963 -0.1398
   58MOL   C45330207   1.155   7.546   7.523 -0.9312 -0.3662 -0.1805
   58MOL   C45430208   1.014   7.564   7.503 -0.3120 -0.1393 -0.0417
   58MOL   C45530209   0.941   7.468   7.429 -0.5330  0.9488  0.1770
   58MOL   C45630210   1.007   7.355   7.371  0.4339  0.0804  0.3538
   58MOL   C45730211   1.147   7.342   7.389 -0.7183 -0.7187 -0.0093
   58MOL   C45830212   1.219   7.436   7.463  0.0949 -0.6396 -0.2388
   58MOL   H45930213   0.849   7.676   7.786  1.0060  1.7742 -0.4567
   58MOL   H46030214   0.750   7.590   7.688  0.0096  0.3546 -1.1449
   58MOL   H46130215   0.854   7.843   7.580 -1.1949  1.2708 -0.9049
   58MOL   H46230216   1.406   7.623   7.646 -1.6004 -2.2551  0.3924
   58MOL   H46330217   1.416   7.808   7.822  0.4966  0.3782 -0.3465
   58MOL   H46430218   1.213   7.943   7.872  0.4955 -0.0725  0.9024
   58MOL   H46530219   0.996   7.889   7.753  0.2877 -0.2975  1.6137
   58MOL   H46630220   0.835   7.468   7.412 -0.6214 -0.4168  0.7057
   58MOL   H46730221   0.946   7.282   7.320  0.6773  0.9269 -1.1481
   58MOL   H46830222   1.190   7.255   7.340  1.0980  0.0190  0.2131
   58MOL   H46930223   1.317   7.414   7.502  1.0510 -1.1001 -2.8070
   58MOL   C47030224   0.747   7.728   7.462 -0.7681 -0.3267  0.5751
   58MOL   C47130225   0.808   7.770   7.319  0.4819  0.0780  0.0468
   58MOL   N47230226   0.732   7.710   7.207  0.1580  0.2991 -0.4133
   58MOL   C47330227   0.792   7.613   7.120 -0.9593  0.0303 -0.8052
   58MOL   C47430228   0.697   7.572   7.024  0.0892 -0.5655 -0.3766
   58MOL   C47530229   0.727   7.478   6.925  0.1519  0.0437  0.0121
   58MOL   C47630230   0.856   7.417   6.929  0.5124  0.5245  0.4269
   58MOL   C47730231   0.953   7.452   7.026 -0.5904 -0.6077 -0.4954
   58MOL   C47830232   0.921   7.556   7.119  0.3423  0.0028 -0.1895
   58MOL   C47930233   0.576   7.653   7.051  0.4249  0.5482  0.4266
   58MOL   C48030234   0.602   7.737   7.161  0.9858 -0.9277 -0.0912
   58MOL   C48130235   0.500   7.819   7.215 -0.2364 -0.9169  0.1451
   58MOL   C48230236   0.372   7.830   7.157 -0.3552  0.2759 -0.0248
   58MOL   C48330237   0.341   7.742   7.050  0.1809 -0.3338  0.4889
   58MOL   C48430238   0.441   7.658   6.999 -0.2338  0.0642  0.2176
   58MOL   H48530239   0.698   7.632   7.447 -0.5657 -0.0701 -1.9752
   58MOL   H48630240   0.665   7.796   7.484 -2.0788 -1.6942 -0.0061
   58MOL   H48730241   0.909   7.729   7.313 -0.6131 -2.5178 -1.1391
   58MOL   H48830242   0.654   7.449   6.850 -1.2911  2.6392  0.3233
   58MOL   H48930243   0.885   7.348   6.851  2.0770 -0.1771  1.5922
   58MOL   H49030244   1.055   7.421   7.013 -0.3969  0.1181 -0.6834
   58MOL   H49130245   0.998   7.584   7.189 -0.8954 -0.7065  1.4766
   58MOL   H49230246   0.517   7.860   7.314  2.3412  0.7873 -0.9439
   58MOL   H49330247   0.296   7.897   7.194 -2.0512  0.4542 -3.6053
   58MOL   H49430248   0.238   7.741   7.019  0.0665 -0.2357  0.8602
   58MOL   H49530249   0.409   7.606   6.910 -0.4462  1.3180 -0.4434
   58MOL   C49630250   0.818   7.926   7.309 -0.2554  0.5132 -0.0197
   58MOL   C49730251   0.886   7.977   7.182  0.2467 -0.3412  0.1447
   58MOL   N49830252   0.830   8.097   7.131 -0.0904  0.6624  0.0274
   58MOL   C49930253   0.855   8.227   7.180 -0.0652  0.2992 -0.2031
   58MOL   C50030254   0.784   0.090   7.101 -0.4129 -0.4741 -0.3621
   58MOL   C50130255   0.807   0.229   7.123  0.4820 -0.0403 -0.6272
   58MOL   C50230256   0.905   0.275   7.214 -0.7673  0.3574 -0.7018
   58MOL   C50330257   0.972   0.183   7.300 -0.3471 -0.3555  0.4873
   58MOL   C50430258   0.950   0.046   7.274 -0.2460 -0.2654 -0.1363
   58MOL   C50530259   0.689   0.026   7.025 -0.3526 -0.3937 -0.3193
   58MOL   C50630260   0.722   8.118   7.040 -0.4828  0.2724  0.7488
   58MOL   C50730261   0.646   8.020   6.973 -0.2123 -0.0852  0.4420
   58MOL   C50830262   0.540   8.056   6.893 -0.0943  0.2277 -0.0952
   58MOL   C50930263   0.507   8.190   6.868  0.6097 -0.3229 -0.4489
   58MOL   C51030264   0.583   0.060   6.940 -0.2548  0.0904  1.2259
   58MOL   H51130265   0.714   7.960   7.307  0.2059  2.0350  0.8735
   58MOL   H51230266   0.858   7.966   7.402  0.5491  0.7513 -0.4625
   58MOL   H51330267   0.893   7.906   7.100  0.7294  1.2412 -1.2289
   58MOL   H51430268   0.752   0.305   7.068  0.7898 -0.0626 -0.9722
   58MOL   H51530269   0.929   0.381   7.216  1.0092 -0.0453  0.0401
   58MOL   H51630270   1.042   0.218   7.374 -0.7638  0.1180  0.6619
   58MOL   H51730271   0.996   8.191   7.327  0.8999  0.5864  0.2080
   58MOL   H51830272   0.655   7.916   7.000 -0.7975 -0.3531 -0.4023
   58MOL   H51930273   0.475   7.974   6.867  1.6311 -1.0533 -0.4395
   58MOL   H52030274   0.427   8.225   6.805  0.2237  0.2794  0.3555
   58MOL   H52130275   0.558   0.163   6.917  3.1655  0.9388  1.0716
   58MOL   H52230276   0.989   8.004   7.206 -0.0348  0.3665  0.5867
   59MOL     C130277   0.044   3.832   0.082 -0.7731 -0.3572  0.1522
   59MOL     C230278   0.015   3.977   0.019 -0.5086 -0.7669  1.5204
   59MOL     N330279   8.105   4.017   0.035 -0.0208 -0.1238  0.0254
   59MOL     C430280   8.016   4.041   8.156 -0.5180  0.0493 -0.3920
   59MOL     C530281   7.883   4.066   8.211  0.0581 -0.5126 -0.2263
   59MOL     C630282   7.779   4.089   8.121 -0.2286  0.1705  0.0208
   59MOL     C730283   7.792   4.089   7.984 -0.0063 -0.5157 -0.4480
   59MOL     C830284   7.920   4.063   7.934 -0.6124 -0.3468  0.5376
   59MOL     C930285   8.032   4.034   8.015 -0.3888 -1.0684 -0.1053
   59MOL    C1030286   7.898   4.073   0.129 -0.2266 -0.2113  0.4450
   59MOL    C1130287   8.034   4.038   0.155 -0.2064 -0.7955  0.7331
   59MOL    C1230288   8.084   4.041   0.282 -0.4400 -1.0240  0.8829
   59MOL    C1330289   7.993   4.044   0.384 -0.3645  0.4442 -0.5690
   59MOL    C1430290   7.859   4.090   0.369  0.4856  1.0152 -0.2169
   59MOL    C1530291   7.813   4.092   0.237 -0.3795 -0.5914 -1.2701
   59MOL    H1630292   0.070   3.837   0.188  2.6717  0.0214 -0.6442
   59MOL    H1730293   0.126   3.787   0.027  0.6989  2.3327  0.0397
   59MOL    H1830294   0.024   3.951   8.141 -2.7004 -3.4433  1.9300
   59MOL    H1930295   7.684   4.112   8.167  1.0889  2.1763  1.8280
   59MOL    H2030296   7.722   4.118   7.907  1.7016 -1.2821 -2.3426
   59MOL    H2130297   7.920   4.082   7.827 -0.5753  1.9949  0.9274
   59MOL    H2230298   8.128   4.011   7.971  0.7822 -0.8914  2.2990
   59MOL    H2330299   8.188   4.017   0.297 -0.3037 -2.1133 -1.5316
   59MOL    H2430300   8.037   4.028   0.482  1.5253 -0.7632 -1.5970
   59MOL    H2530301   7.786   4.094   0.449 -0.6512  0.4951 -1.2139
   59MOL    H2630302   7.710   4.125   0.227 -0.5132 -0.5956  0.0475
   59MOL    H2730303   8.180   3.777   0.062 -1.1323  0.4306 -0.4105
   59MOL    C2830304   0.117   4.079   0.074  0.0274  0.1673  0.8014
   59MOL    C2930305   0.263   4.080   0.012 -0.0842  0.1996 -0.4870
   59MOL    N3030306   0.262   4.083   8.091 -0.6322 -0.3604 -0.2061
   59MOL    C3130307   0.313   3.976   8.013  0.1547 -0.3968  0.3138
   59MOL    C3230308   0.306   4.013   7.872 -0.7712 -0.1923  0.3364
   59MOL    C3330309   0.365   3.927   7.781 -0.1226 -0.1057 -0.2454
   59MOL    C3430310   0.438   3.814   7.822  0.3787  1.2216 -0.2197
   59MOL    C3530311   0.449   3.785   7.962 -0.9301 -0.5177 -0.6645
   59MOL    C3630312   0.380   3.867   8.056  0.2937 -0.3473 -0.5842
   59MOL    C3730313   0.224   4.128   7.868  0.3657 -0.3172  0.6452
   59MOL    C3830314   0.193   4.163   8.000 -0.1988  0.1875 -0.3920
   59MOL    C3930315   0.106   4.268   8.026  0.0852  0.1265 -0.4398
   59MOL    C4030316   0.045   4.340   7.923 -0.3205  0.1056  0.5937
   59MOL    C4130317   0.080   4.318   7.790  0.0757  0.6803 -0.3827
   59MOL    C4230318   0.169   4.213   7.763  1.4989  0.1173  0.0036
   59MOL    H4330319   0.072   4.176   0.092  1.3018  0.9692 -0.2954
   59MOL    H4430320   0.124   4.058   0.181 -2.6763 -1.1151  0.7765
   59MOL    H4530321   0.295   3.984   0.054  0.6438  0.6018 -0.1079
   59MOL    H4630322   0.363   3.941   7.674  2.3101 -1.7332 -0.5710
   59MOL    H4730323   0.495   3.749   7.757  0.6977 -0.8773  2.1297
   59MOL    H4830324   0.510   3.711   8.011  0.5712  1.2522  0.2175
   59MOL    H4930325   0.392   3.852   8.163 -1.0833 -0.4910 -0.4331
   59MOL    H5030326   0.077   4.291   8.128 -0.2017  1.0868 -0.7394
   59MOL    H5130327   8.215   4.424   7.960 -1.0193  1.0622 -2.5551
   59MOL    H5230328   0.029   4.367   7.709  2.9633  2.4461 -1.2471
   59MOL    H5330329   0.191   4.189   7.660  1.4869  1.7336 -0.3928
   59MOL    C5430330   0.351   4.193   0.064 -0.8164  0.0462 -0.1677
   59MOL    C5530331   0.499   4.158   0.053 -0.4934 -0.0236  0.3140
   59MOL    N5630332   0.568   4.265   8.220  0.8959  0.3208  0.4921
   59MOL    C5730333   0.647   4.261   8.098  0.0033  0.7815  0.1724
   59MOL    C5830334   0.696   4.388   8.073  0.3424  0.3139  0.4278
   59MOL    C5930335   0.781   4.413   7.964  0.4430 -0.8643 -0.7511
   59MOL    C6030336   0.814   4.310   7.869  0.1605 -0.2409 -0.7315
   59MOL    C6130337   0.760   4.180   7.896  0.3071  0.3233  0.2420
   59MOL    C6230338   0.681   4.156   8.008  0.1129 -0.3427  0.3486
   59MOL    C6330339   0.658   4.471   8.176  0.4237 -0.2937 -0.0936
   59MOL    C6430340   0.574   4.397   0.039 -0.3706  0.2268  0.7669
   59MOL    C6530341   0.515   4.458   0.151 -0.0085  0.6535 -0.4084
   59MOL    C6630342   0.543   4.593   0.178  0.2413 -0.2616  0.1740
   59MOL    C6730343   0.634   4.663   0.096 -0.5746 -0.4992  0.4656
   59MOL    C6830344   0.690   4.603   8.205 -0.1781 -0.1786 -0.6237
   59MOL    H6930345   0.323   4.290   0.022  1.5408  0.6449 -0.4086
   59MOL    H7030346   0.312   4.194   0.166 -0.7057 -1.4289 -0.0990
   59MOL    H7130347   0.522   4.074   8.215  2.3274 -0.3576  1.6430
   59MOL    H7230348   0.827   4.508   7.946 -1.2383  0.1689  0.2684
   59MOL    H7330349   0.884   4.317   7.787  0.5078 -1.0407 -0.5012
   59MOL    H7430350   0.792   4.092   7.842 -0.7170  1.0524 -1.6150
   59MOL    H7530351   0.648   4.055   8.030 -1.7355  0.4340  1.3023
   59MOL    H7630352   0.465   4.392   0.221 -1.6926  1.6390 -0.6830
   59MOL    H7730353   0.504   4.636   0.268 -1.3646 -1.2666 -0.0229
   59MOL    H7830354   0.655   4.765   0.123  0.4677 -1.2218  2.4456
   59MOL    H7930355   0.750   4.662   8.138 -0.3424 -0.5083 -1.0672
   59MOL    C8030356   0.580   4.098   0.168 -0.1215 -0.3328  0.1059
   59MOL    C8130357   0.527   3.972   0.243 -0.0395  0.0622 -0.1702
   59MOL    N8230358   0.527   3.847   0.168  0.3149  0.1127  0.0800
   59MOL    C8330359   0.427   3.750   0.183  0.2794 -0.7224 -0.4116
   59MOL    C8430360   0.461   3.629   0.115 -0.4459  0.0650  0.0372
   59MOL    C8530361   0.379   3.516   0.123 -0.2127  0.2992 -0.3239
   59MOL    C8630362   0.267   3.513   0.207 -0.0195 -0.2181  0.7870
   59MOL    C8730363   0.223   3.638   0.268  0.1275  0.3388  0.6843
   59MOL    C8830364   0.310   3.755   0.261 -0.4603 -0.1781  0.5331
   59MOL    C8930365   0.586   3.657   0.047  0.3632 -0.0603 -0.1419
   59MOL    C9030366   0.621   3.796   0.075  0.1709  0.2437 -0.3105
   59MOL    C9130367   0.740   3.847   0.018 -0.4267 -0.0942 -0.8819
   59MOL    C9230368   0.809   3.774   8.149 -0.0189 -0.0985 -0.6043
   59MOL    C9330369   0.767   3.647   8.111 -0.3664  0.2840  0.3950
   59MOL    C9430370   0.665   3.582   8.183 -0.4832  1.2056 -0.0451
   59MOL    H9530371   0.684   4.090   0.137  0.4898  1.0194  1.6691
   59MOL    H9630372   0.578   4.179   0.242 -1.5101 -1.3698  1.2232
   59MOL    H9730373   0.421   3.986   0.264  0.2711  0.6833  1.0183
   59MOL    H9830374   0.403   3.421   0.078 -4.0766 -0.8067 -0.2910
   59MOL    H9930375   0.203   3.426   0.207 -2.7374  1.7218  0.3200
   59MOL   H10030376   0.146   3.640   0.344  1.2015 -0.4479  1.8120
   59MOL   H10130377   0.278   3.844   0.313 -1.5198  1.1237 -2.2422
   59MOL   H10230378   0.773   3.949   0.027 -2.3928  0.4546  0.3318
   59MOL   H10330379   0.898   3.814   8.102 -0.9259 -1.1259 -3.2873
   59MOL   H10430380   0.823   3.588   8.041 -0.6791  0.7879 -0.2826
   59MOL   H10530381   0.639   3.478   8.173 -0.0540  1.3385 -2.7047
   59MOL   C10630382   0.615   3.952   0.370 -0.2502  0.3712 -0.4891
   59MOL   C10730383   0.577   4.035   0.499 -0.2530 -0.4261  0.2173
   59MOL   N10830384   0.429   4.028   0.519 -1.0402 -0.5332  0.5694
   59MOL   C10930385   0.341   4.131   0.492  0.9641  0.2300  0.4493
   59MOL   C11030386   0.207   4.091   0.525  0.2078 -0.2432  0.0670
   59MOL   C11130387   0.101   4.193   0.507 -0.0198  0.1008  0.4272
   59MOL   C11230388   0.129   4.319   0.458  0.0915 -0.0344  0.3300
   59MOL   C11330389   0.256   4.348   0.415 -0.3372 -0.1793  0.4846
   59MOL   C11430390   0.359   4.260   0.438 -0.4307  0.3011 -0.2492
   59MOL   C11530391   0.213   3.955   0.567  0.9502 -0.0109  0.1015
   59MOL   C11630392   0.351   3.917   0.566  0.5102  0.2797 -0.1383
   59MOL   C11730393   0.391   3.782   0.604  0.2885 -0.0274  1.0413
   59MOL   C11830394   0.289   3.688   0.627  0.5260 -1.0612 -0.9187
   59MOL   C11930395   0.155   3.724   0.633 -0.1143 -0.5146  1.0806
   59MOL   C12030396   0.116   3.862   0.613  0.1023  0.2255  0.5471
   59MOL   H12130397   0.622   3.845   0.389 -0.9128  0.5159  0.6022
   59MOL   H12230398   0.716   3.979   0.337  1.0167 -2.7370  0.6976
   59MOL   H12330399   0.606   4.140   0.493  1.0722 -0.7690  0.4792
   59MOL   H12430400   0.007   4.161   0.549  0.0583  0.4781  0.8979
   59MOL   H12530401   0.052   4.391   0.436  2.0553  1.6349 -1.3012
   59MOL   H12630402   0.280   4.439   0.362 -0.3869 -0.3060  0.2416
   59MOL   H12730403   0.458   4.296   0.417 -1.6356  2.5472 -2.3463
   59MOL   H12830404   0.497   3.761   0.606  0.0120 -1.3978  2.4857
   59MOL   H12930405   0.318   3.585   0.636  1.0832 -0.8151  0.2853
   59MOL   H13030406   0.073   3.655   0.645 -1.4676  0.5631 -1.5962
   59MOL   H13130407   0.011   3.879   0.628  0.3723  0.3812  2.3727
   59MOL   C13230408   0.656   3.995   0.625  0.1958 -0.4393  0.2855
   59MOL   C13330409   0.788   4.080   0.648  0.1148  0.1631 -0.4570
   59MOL   N13430410   0.754   4.222   0.667  0.0163 -0.1154 -0.4979
   59MOL   C13530411   0.778   4.328   0.572  0.1352 -0.0987  0.0397
   59MOL   C13630412   0.701   4.440   0.609  0.5607  0.8608 -0.6433
   59MOL   C13730413   0.707   4.559   0.527 -0.5081 -0.4484 -0.0835
   59MOL   C13830414   0.782   4.555   0.407  0.8093 -0.0934  0.4728
   59MOL   C13930415   0.855   4.441   0.367 -0.0716 -0.2439 -0.6590
   59MOL   C14030416   0.848   4.326   0.449 -0.1506 -0.1684 -0.1164
   59MOL   C14130417   0.633   4.405   0.729  1.4132  0.6643 -0.1839
   59MOL   C14230418   0.669   4.274   0.766  0.5320  0.2705 -1.0114
   59MOL   C14330419   0.612   4.216   0.878  0.4407 -0.2058  0.3811
   59MOL   C14430420   0.520   4.281   0.961  0.1706 -0.2293  0.7947
   59MOL   C14530421   0.475   4.410   0.919 -0.8633  0.3849  0.0420
   59MOL   C14630422   0.537   4.473   0.807  0.4196 -0.5313 -0.0878
   59MOL   H14730423   0.587   4.000   0.709  0.5300 -0.2315  0.5490
   59MOL   H14830424   0.672   3.889   0.607 -1.5111 -0.4008 -1.6581
   59MOL   H14930425   0.837   4.057   0.554 -2.1576  0.0989 -1.6528
   59MOL   H15030426   0.636   4.637   0.550 -1.2595 -1.4676  1.0981
   59MOL   H15130427   0.786   4.644   0.347  1.4417 -1.2720 -1.2632
   59MOL   H15230428   0.919   4.442   0.280  1.4603 -1.6986  0.4185
   59MOL   H15330429   0.897   4.233   0.423 -2.0088 -0.7667 -1.6041
   59MOL   H15430430   0.638   4.113   0.895  1.2738 -0.4309 -2.0009
   59MOL   H15530431   0.467   4.238   1.045 -0.0784 -2.3983 -0.4326
   59MOL   H15630432   0.398   4.460   0.976 -1.0164 -1.2089  1.2834
   59MOL   H15730433   0.497   4.564   0.765  0.5518 -1.0638 -1.4025
   59MOL   C15830434   0.883   4.031   0.763  0.1601  0.3127  0.4920
   59MOL   C15930435   0.938   3.884   0.745  0.5241 -0.2772 -0.8480
   59MOL   N16030436   0.968   3.846   0.605  0.1437  0.0753 -0.4076
   59MOL   C16130437   0.897   3.745   0.536 -0.1508  0.9579 -0.3466
   59MOL   C16230438   0.945   3.734   0.402  0.0832 -0.7503 -0.7527
   59MOL   C16330439   0.881   3.651   0.310  0.7903 -0.4260  0.3773
   59MOL   C16430440   0.770   3.575   0.349 -0.1550 -0.3698  0.2177
   59MOL   C16530441   0.734   3.580   0.481  0.7588 -0.1633 -0.3946
   59MOL   C16630442   0.791   3.663   0.579 -0.8647  0.0770 -0.1945
   59MOL   C16730443   1.048   3.836   0.391  0.1262 -0.6740  0.4918
   59MOL   C16830444   1.065   3.897   0.517 -0.1701  0.6773 -0.6855
   59MOL   C16930445   1.155   4.001   0.536 -0.6274 -0.3392 -0.1766
   59MOL   C17030446   1.244   4.037   0.430 -0.1520 -0.2363 -0.0808
   59MOL   C17130447   1.230   3.974   0.304  0.4450  0.2262  0.2296
   59MOL   C17230448   1.127   3.885   0.280  0.3260  0.1992 -0.0483
   59MOL   H17330449   0.965   4.103   0.764  0.3415  0.1303 -0.6850
   59MOL   H17430450   0.841   4.043   0.863 -0.1631  0.2875  0.3613
   59MOL   H17530451   0.848   3.825   0.767  1.2455 -0.8278  0.6668
   59MOL   H17630452   0.909   3.657   0.206 -0.0135  0.9625  0.2323
   59MOL   H17730453   0.724   3.502   0.283 -1.0604 -1.0530  1.5711
   59MOL   H17830454   0.655   3.513   0.512  0.6851  1.2069  2.5460
   59MOL   H17930455   0.752   3.666   0.679 -0.6891  2.2316 -0.1846
   59MOL   H18030456   1.178   4.053   0.628 -0.6196 -1.1919  0.3042
   59MOL   H18130457   1.314   4.117   0.449 -1.7680  1.0674  0.5609
   59MOL   H18230458   1.294   4.015   0.228 -0.3107 -0.6130 -0.8709
   59MOL   H18330459   1.101   3.844   0.183  0.2504  2.2058 -0.8961
   59MOL   C18430460   1.056   3.844   0.835 -0.5072 -0.0841 -0.1298
   59MOL   C18530461   1.020   3.845   0.986  0.2653 -0.0137  0.0348
   59MOL   N18630462   0.877   3.801   1.011 -0.1098 -0.0588  0.1673
   59MOL   C18730463   0.787   3.880   1.091 -0.5353  0.3313  0.0537
   59MOL   C18830464   0.658   3.820   1.101  0.1643  0.5381  0.6951
   59MOL   C18930465   0.551   3.887   1.168 -0.2951 -0.1384 -1.1580
   59MOL   C19030466   0.578   4.020   1.216 -0.1712  0.2443  0.1972
   59MOL   C19130467   0.707   4.072   1.215  0.1729 -0.1273 -0.4560
   59MOL   C19230468   0.809   3.993   1.164  0.4930 -0.1419 -0.6676
   59MOL   C19330469   0.675   3.697   1.027  0.1745  0.0139  0.1932
   59MOL   C19430470   0.806   3.682   0.982 -0.2356 -0.7459  0.2248
   59MOL   C19530471   0.851   3.559   0.927  0.1082 -0.0939 -0.2482
   59MOL   C19630472   0.758   3.463   0.891 -0.2041 -0.1475  0.4499
   59MOL   C19730473   0.623   3.478   0.925  0.9392  0.4548  0.0001
   59MOL   C19830474   0.577   3.596   0.994 -0.6684 -0.0050  0.3404
   59MOL   H19930475   1.092   3.747   0.800  2.4033  1.1591 -0.6999
   59MOL   H20030476   1.140   3.912   0.819 -0.0732  0.1863  3.0763
   59MOL   H20130477   1.008   3.952   1.005  1.6209 -0.1184  1.6392
   59MOL   H20230478   0.455   3.844   1.190 -0.1198 -0.1056 -0.3334
   59MOL   H20330479   0.501   4.079   1.264 -0.9315 -0.1630 -0.5170
   59MOL   H20430480   0.727   4.171   1.254 -1.4100 -0.9001  2.4546
   59MOL   H20530481   0.902   4.045   1.151 -1.1884  3.1081 -0.2937
   59MOL   H20630482   0.953   3.542   0.896 -0.4172 -1.3857 -1.3149
   59MOL   H20730483   0.788   3.373   0.840 -0.0181  0.8129 -1.1936
   59MOL   H20830484   0.551   3.400   0.909  2.5892 -1.4290  1.4774
   59MOL   H20930485   0.471   3.609   1.013 -0.2423  2.7672  1.0395
   59MOL   C21030486   1.117   3.783   1.082 -0.3738  0.2456 -0.6462
   59MOL   C21130487   1.226   3.883   1.147  0.2663 -0.2797 -0.0593
   59MOL   N21230488   1.215   3.897   1.288 -0.7875 -0.0124  0.0942
   59MOL   C21330489   1.178   4.014   1.361 -0.7019 -0.0558 -0.6488
   59MOL   C21430490   1.163   3.985   1.499  0.9515 -0.4086  0.6509
   59MOL   C21530491   1.142   4.094   1.588 -0.3167  0.1146 -0.6034
   59MOL   C21630492   1.123   4.224   1.543  0.5024 -0.0890  0.0619
   59MOL   C21730493   1.106   4.245   1.404 -0.1431 -0.0274  0.1331
   59MOL   C21830494   1.150   4.142   1.316  0.3113  0.4134 -0.5843
   59MOL   C21930495   1.184   3.846   1.513 -0.0754 -0.2683 -0.1143
   59MOL   C22030496   1.224   3.795   1.383  0.0481  0.4329  0.8283
   59MOL   C22130497   1.268   3.666   1.363 -0.0776 -0.1547 -0.3597
   59MOL   C22230498   1.251   3.579   1.480 -0.7269  0.3304  0.4384
   59MOL   C22330499   1.213   3.622   1.606 -0.2537  0.3679 -0.5030
   59MOL   C22430500   1.185   3.756   1.624 -0.0872 -0.1893  0.4825
   59MOL   H22530501   1.067   3.730   1.163  0.4060  0.9316  0.2900
   59MOL   H22630502   1.170   3.705   1.026 -1.0127  0.1329 -1.0962
   59MOL   H22730503   1.207   3.982   1.106  0.3018 -0.5660 -0.7754
   59MOL   H22830504   1.146   4.071   1.694 -0.4782 -1.5491 -0.9429
   59MOL   H22930505   1.106   4.302   1.616 -1.9441  0.3733 -0.9627
   59MOL   H23030506   1.095   4.347   1.372 -0.5150 -0.2609 -0.4868
   59MOL   H23130507   1.147   4.161   1.210 -1.3602 -1.0806 -0.8241
   59MOL   H23230508   1.303   3.629   1.268 -1.2405 -4.0238  0.6572
   59MOL   H23330509   1.279   3.476   1.464 -0.5805  0.5329 -0.7203
   59MOL   H23430510   1.209   3.560   1.694 -1.2605  1.5492  0.3016
   59MOL   H23530511   1.152   3.794   1.720  3.8792 -0.4481  2.0665
   59MOL   C23630512   1.369   3.852   1.106  0.3490 -0.3144  0.1686
   59MOL   C23730513   1.481   3.932   1.184  0.1155  0.4044  0.2113
   59MOL   N23830514   1.617   3.875   1.169 -0.8113 -0.0667 -0.4917
   59MOL   C23930515   1.695   3.831   1.278  0.5722  0.1650 -0.2842
   59MOL   C24030516   1.831   3.812   1.237 -1.0872  0.4226  0.3032
   59MOL   C24130517   1.925   3.781   1.342  0.1864  0.1877  0.1103
   59MOL   C24230518   1.885   3.763   1.472  0.1362  0.5969  0.1129
   59MOL   C24330519   1.748   3.768   1.510  0.0423  0.0821  0.3416
   59MOL   C24430520   1.658   3.812   1.413  0.3680 -0.3585 -0.0423
   59MOL   C24530521   1.838   3.840   1.095  0.3210 -0.0872 -0.0307
   59MOL   C24630522   1.706   3.874   1.052 -0.4905  0.2629  0.6462
   59MOL   C24730523   1.686   3.924   0.924 -0.8769  0.0482 -0.1554
   59MOL   C24830524   1.788   3.926   0.832  0.1567 -0.1820  0.0841
   59MOL   C24930525   1.916   3.877   0.865 -0.2083 -0.8071  0.2663
   59MOL   C25030526   1.942   3.842   1.002  0.0297 -0.1546  0.3540
   59MOL   H25130527   1.389   3.745   1.112 -0.8913 -0.5652  0.0543
   59MOL   H25230528   1.373   3.865   0.998  1.5834 -1.8197  0.0173
   59MOL   H25330529   1.454   3.915   1.289 -2.8775 -2.4499 -0.9292
   59MOL   H25430530   2.026   3.778   1.304 -0.6206  0.5318 -2.1810
   59MOL   H25530531   1.953   3.731   1.550  0.8084  1.3086 -0.1803
   59MOL   H25630532   1.726   3.765   1.616 -3.4591  0.7504 -0.3288
   59MOL   H25730533   1.555   3.826   1.444  0.1921  1.8301 -1.4773
   59MOL   H25830534   1.589   3.948   0.883 -0.5338  2.1344  0.1758
   59MOL   H25930535   1.776   3.961   0.731 -1.4651  0.4499  0.4812
   59MOL   H26030536   1.992   3.890   0.790 -1.2127  0.0702 -0.6188
   59MOL   H26130537   2.035   3.823   1.055 -1.4326 -1.6419  2.4852
   59MOL   C26230538   1.491   4.082   1.150  0.3527  0.5597  0.2368
   59MOL   C26330539   1.588   4.167   1.234  0.4272 -0.5650 -0.1278
   59MOL   N26430540   1.630   4.296   1.180 -0.9166 -0.1981  0.6599
   59MOL   C26530541   1.761   4.323   1.136 -0.1986  0.0902 -0.4525
   59MOL   C26630542   1.769   4.463   1.098  0.3862 -0.6574  0.8953
   59MOL   C26730543   1.894   4.517   1.063  0.0446 -0.2155  0.0435
   59MOL   C26830544   2.012   4.442   1.073  0.0764  0.1094  0.5626
   59MOL   C26930545   2.003   4.306   1.109 -0.0471 -0.3634  0.5317
   59MOL   C27030546   1.884   4.243   1.139  0.6019  0.3175  0.1501
   59MOL   C27130547   1.632   4.512   1.104  0.1979  0.3213 -0.1482
   59MOL   C27230548   1.549   4.407   1.154 -0.4502 -0.5383  0.0632
   59MOL   C27330549   1.414   4.430   1.172 -0.1572  0.2013 -0.7372
   59MOL   C27430550   1.356   4.547   1.132 -0.7793 -0.2973  1.0387
   59MOL   C27530551   1.432   4.652   1.078  0.0938 -0.4607  0.1499
   59MOL   C27630552   1.569   4.635   1.066  0.7803  0.4604  0.1468
   59MOL   H27730553   1.515   4.082   1.044  1.7333 -3.2827  0.4510
   59MOL   H27830554   1.397   4.135   1.158  1.2275  2.5005 -1.8062
   59MOL   H27930555   1.685   4.118   1.231  0.6106 -0.1325 -1.4569
   59MOL   H28030556   1.903   4.621   1.034 -0.6959  0.0874  0.8766
   59MOL   H28130557   2.107   4.484   1.043 -0.7665  1.6947  0.0131
   59MOL   H28230558   2.102   4.263   1.111 -0.0133 -0.2164  1.8459
   59MOL   H28330559   1.890   4.138   1.162  0.0599  0.1884 -0.2916
   59MOL   H28430560   1.354   4.344   1.200  1.6307 -1.8724 -2.9857
   59MOL   H28530561   1.249   4.550   1.147 -0.9990 -1.8697 -0.0852
   59MOL   H28630562   1.384   4.746   1.052 -0.5072 -0.3338  1.6703
   59MOL   H28730563   1.636   4.705   1.019 -0.9023  0.7095 -1.9469
   59MOL   C28830564   1.538   4.172   1.383  0.3154 -0.0313  0.0223
   59MOL   C28930565   1.622   4.229   1.495  0.7472 -0.5685 -0.5060
   59MOL   N29030566   1.549   4.273   1.610  0.2919  0.8718 -0.1149
   59MOL   C29130567   1.516   4.407   1.641 -0.3072 -0.3264 -0.7438
   59MOL   C29230568   1.442   4.409   1.761 -0.7678  0.1562 -0.8531
   59MOL   C29330569   1.415   4.534   1.830  0.5522  0.4175  0.3610
   59MOL   C29430570   1.456   4.653   1.768 -0.3826  0.0230  0.2031
   59MOL   C29530571   1.532   4.644   1.649 -0.5325 -0.3840  0.1420
   59MOL   C29630572   1.566   4.527   1.581  0.1306  0.0272  0.4830
   59MOL   C29730573   1.414   4.272   1.794  0.2256 -0.0308 -0.6329
   59MOL   C29830574   1.478   4.189   1.699  0.0463 -0.2288  0.2435
   59MOL   C29930575   1.478   4.047   1.701 -0.5045  0.1010 -0.3177
   59MOL   C30030576   1.410   3.985   1.810  0.2503  0.4981  0.4169
   59MOL   C30130577   1.338   4.061   1.898  0.2669 -0.1040 -0.4705
   59MOL   C30230578   1.349   4.201   1.895 -0.0069  0.3821 -0.4638
   59MOL   H30330579   1.443   4.225   1.383  1.4118  1.9939 -1.5502
   59MOL   H30430580   1.513   4.070   1.415 -0.1767 -0.2969 -1.2079
   59MOL   H30530581   1.658   4.323   1.453 -0.6405  0.3018  0.2109
   59MOL   H30630582   1.358   4.541   1.921 -0.0757  0.3832 -0.0262
   59MOL   H30730583   1.444   4.752   1.808 -0.0928  0.2607 -0.3006
   59MOL   H30830584   1.568   4.734   1.602  0.1100 -1.0994 -0.7302
   59MOL   H30930585   1.620   4.539   1.488 -2.1237  0.9326 -0.7604
   59MOL   H31030586   1.522   3.978   1.631  0.4471 -0.5318  0.8791
   59MOL   H31130587   1.404   3.877   1.816  3.2131  0.4189  3.4455
   59MOL   H31230588   1.276   4.000   1.961 -1.6839  0.0589 -2.1969
   59MOL   H31330589   1.293   4.252   1.972 -2.8460 -0.7999 -1.6707
   59MOL   C31430590   1.752   4.148   1.530 -0.4223  0.3045  0.1706
   59MOL   C31530591   1.822   4.183   1.669  0.0001 -0.0047 -0.5067
   59MOL   N31630592   1.917   4.072   1.700 -0.1695  0.1523 -0.7339
   59MOL   C31730593   1.905   3.991   1.814 -0.3042 -0.3527  0.0079
   59MOL   C31830594   2.009   3.895   1.813 -0.2954 -0.4439  0.7875
   59MOL   C31930595   2.016   3.808   1.925  0.1439 -0.5861 -0.0170
   59MOL   C32030596   1.913   3.805   2.014 -0.1713  0.1029 -0.1011
   59MOL   C32130597   1.801   3.887   2.005  0.2170 -0.3355 -0.3568
   59MOL   C32230598   1.797   3.981   1.906  0.6682  0.4367 -0.0940
   59MOL   C32330599   2.099   3.931   1.701  0.0879 -0.1817 -0.2341
   59MOL   C32430600   2.038   4.039   1.636 -0.1593 -0.1484  0.0863
   59MOL   C32530601   2.091   4.087   1.516  0.6728 -0.0863  0.3668
   59MOL   C32630602   2.219   4.044   1.474 -1.0255 -0.5599 -0.8805
   59MOL   C32730603   2.293   3.948   1.547 -0.3422  0.3794 -0.4600
   59MOL   C32830604   2.231   3.891   1.661 -0.2992  0.1993 -0.0665
   59MOL   H32930605   1.737   4.041   1.536 -1.4541  0.5540  2.5640
   59MOL   H33030606   1.827   4.156   1.451 -0.3324  0.1202  0.2372
   59MOL   H33130607   1.739   4.186   1.739  1.2760  1.7993  0.9678
   59MOL   H33230608   2.102   3.749   1.950 -0.9311 -1.2464  2.2906
   59MOL   H33330609   1.927   3.743   2.101 -0.9543  0.2812  0.1565
   59MOL   H33430610   1.728   3.880   2.084 -0.1650  2.4034 -0.4051
   59MOL   H33530611   1.710   4.045   1.913  0.3437  0.4213 -3.1906
   59MOL   H33630612   2.035   4.163   1.465 -1.5219 -1.8562  0.0662
   59MOL   H33730613   2.273   4.080   1.388 -0.5987  0.4751 -0.1898
   59MOL   H33830614   2.391   3.922   1.510  0.8142  0.4059  2.4340
   59MOL   H33930615   2.287   3.825   1.726 -1.7265  0.4850  1.5072
   59MOL   C34030616   1.891   4.321   1.678 -0.2312  0.1701 -0.2053
   59MOL   C34130617   1.928   4.370   1.818  0.0777 -0.2308 -0.1106
   59MOL   N34230618   2.034   4.469   1.799 -0.0498 -0.3702  0.1741
   59MOL   C34330619   2.170   4.453   1.828  0.4563 -0.1087  0.2570
   59MOL   C34430620   2.244   4.573   1.798 -0.0255  0.5006 -0.1819
   59MOL   C34530621   2.381   4.574   1.827  0.0749  0.5520  0.5534
   59MOL   C34630622   2.441   4.468   1.895  0.2082  0.5007  0.6401
   59MOL   C34730623   2.373   4.345   1.908  0.0630 -0.5444 -0.0110
   59MOL   C34830624   2.236   4.335   1.881  0.1866  0.0015  0.4587
   59MOL   C34930625   2.150   4.662   1.745 -0.3116 -0.3900  0.8469
   59MOL   C35030626   2.020   4.596   1.740  0.6087 -0.3453  0.1156
   59MOL   C35130627   1.909   4.669   1.690 -0.3346 -0.2221 -0.0606
   59MOL   C35230628   1.928   4.802   1.642 -0.4458  0.0410 -0.4652
   59MOL   C35330629   2.056   4.862   1.646 -0.7325  0.3058 -0.3761
   59MOL   C35430630   2.168   4.791   1.698  0.0869 -0.8525 -0.0582
   59MOL   H35530631   1.971   4.313   1.605  0.8830  0.2501  0.9767
   59MOL   H35630632   1.824   4.398   1.641 -0.9288 -0.6639 -0.6769
   59MOL   H35730633   1.975   4.287   1.870 -1.6003 -0.3408  1.3014
   59MOL   H35830634   2.431   4.664   1.795  0.8130  0.2853  0.9435
   59MOL   H35930635   2.547   4.475   1.911  0.7935 -2.1882 -1.5798
   59MOL   H36030636   2.426   4.263   1.955  1.4116  0.6486  0.5898
   59MOL   H36130637   2.190   4.238   1.888  3.5350 -1.6786  0.2746
   59MOL   H36230638   1.815   4.617   1.683  0.0607 -0.7144 -2.1332
   59MOL   H36330639   1.848   4.841   1.581 -1.6881  0.0189  1.1146
   59MOL   H36430640   2.075   4.964   1.616 -1.0934  0.9731  1.6367
   59MOL   H36530641   2.266   4.837   1.696  0.1014 -0.9283 -2.1131
   59MOL   C36630642   1.813   4.420   1.912 -0.6015  0.1565  0.8417
   59MOL   C36730643   1.860   4.474   2.045  0.9400 -0.1063  0.0274
   59MOL   N36830644   1.751   4.544   2.108  0.0318  1.1209  0.1782
   59MOL   C36930645   1.752   4.681   2.139  0.7127 -1.0700 -0.0479
   59MOL   C37030646   1.638   4.704   2.220  0.2133  0.1033 -0.2332
   59MOL   C37130647   1.616   4.837   2.270  0.2193 -0.3131 -0.4208
   59MOL   C37230648   1.700   4.942   2.232  1.1427 -0.2209 -0.1488
   59MOL   C37330649   1.821   4.916   2.164  0.2505 -0.1156  0.0291
   59MOL   C37430650   1.842   4.781   2.109 -0.2571  0.1109 -0.6123
   59MOL   C37530651   1.567   4.582   2.242 -0.2296 -0.2599 -0.0512
   59MOL   C37630652   1.632   4.483   2.166  0.1286 -0.4881 -0.1274
   59MOL   C37730653   1.582   4.351   2.162  0.3717  0.3205 -0.7270
   59MOL   C37830654   1.459   4.323   2.229 -0.4428  0.0339  1.1064
   59MOL   C37930655   1.392   4.422   2.304 -0.2969 -0.6213  0.3158
   59MOL   C38030656   1.450   4.547   2.318  0.0933  0.2675 -0.0433
   59MOL   H38130657   1.763   4.503   1.862  1.3514  0.0495 -1.3848
   59MOL   H38230658   1.749   4.333   1.928  1.3490 -1.6601 -0.8909
   59MOL   H38330659   1.931   4.554   2.026  0.0889  0.8973  1.0258
   59MOL   H38430660   1.531   4.846   2.336  0.4437 -0.4360 -0.1099
   59MOL   H38530661   1.679   5.045   2.257 -0.2635 -0.9295  1.8065
   59MOL   H38630662   1.893   4.989   2.131 -1.2103  2.3186  2.0935
   59MOL   H38730663   1.934   4.762   2.056  0.3223  0.7063  0.1505
   59MOL   H38830664   1.632   4.269   2.112  2.1097  0.8596  0.1088
   59MOL   H38930665   1.416   4.225   2.216  2.5576 -1.0693 -1.0334
   59MOL   H39030666   1.296   4.402   2.350 -1.0286 -1.8705 -1.7130
   59MOL   H39130667   1.392   4.612   2.383 -1.2325 -1.4994  0.5914
   59MOL   C39230668   1.909   4.353   2.137 -0.6253  0.2128  0.5897
   59MOL   C39330669   1.921   4.397   2.290 -0.0057  1.0236 -0.0484
   59MOL   N39430670   1.932   4.292   2.397 -0.0486 -0.2310 -0.2118
   59MOL   C39530671   1.832   4.264   2.499  0.7475 -0.8725  0.1176
   59MOL   C39630672   1.884   4.168   2.588  0.1388 -0.7106 -0.5796
   59MOL   C39730673   1.807   4.130   2.707  0.6196  0.3180  0.2794
   59MOL   C39830674   1.681   4.187   2.724 -0.4851 -0.2294  0.0530
   59MOL   C39930675   1.634   4.280   2.631 -0.0110 -0.1871  0.1734
   59MOL   C40030676   1.707   4.326   2.523 -0.1834  0.2698  0.6074
   59MOL   C40130677   2.015   4.130   2.541 -0.1662 -0.0940 -0.1207
   59MOL   C40230678   2.037   4.203   2.417  0.2440 -0.0458  0.2335
   59MOL   C40330679   2.158   4.186   2.346 -0.3751  0.4416  0.9939
   59MOL   C40430680   2.259   4.097   2.388  0.1199 -0.5142  0.6465
   59MOL   C40530681   2.246   4.039   2.515  0.5934  0.4646 -0.6945
   59MOL   C40630682   2.123   4.053   2.586  0.2524  0.3063 -0.4586
   59MOL   H40730683   1.839   4.272   2.117 -0.1882 -0.2351  0.8395
   59MOL   H40830684   2.007   4.326   2.097 -1.4024  0.2338 -1.3966
   59MOL   H40930685   1.827   4.440   2.325 -1.1021 -1.2186 -0.1969
   59MOL   H41030686   1.852   4.052   2.768 -0.5481  0.7110  1.6775
   59MOL   H41130687   1.616   4.156   2.804 -0.6126  1.1189  0.4972
   59MOL   H41230688   1.534   4.317   2.651 -0.7856 -1.9106 -0.3785
   59MOL   H41330689   1.665   4.400   2.455 -0.3609 -0.7636 -0.4176
   59MOL   H41430690   2.164   4.239   2.252  0.5625 -0.9555  0.2613
   59MOL   H41530691   2.349   4.081   2.331 -0.1233 -0.5901  0.2789
   59MOL   H41630692   2.333   3.991   2.557 -0.1990 -2.4519 -2.1855
   59MOL   H41730693   2.113   4.012   2.685 -1.5684 -2.0812 -1.5796
   59MOL   C41830694   2.032   4.497   2.308 -0.5143 -0.1925  0.7250
   59MOL   C41930695   2.074   4.532   2.450 -0.2020 -0.0500  0.0783
   59MOL   N42030696   2.206   4.586   2.464  0.1796 -0.1581  0.1519
   59MOL   C42130697   2.317   4.532   2.536 -0.6786  0.9056 -0.1504
   59MOL   C42230698   2.431   4.611   2.511 -0.7418  0.3013 -0.3872
   59MOL   C42330699   2.556   4.577   2.569 -0.0419  0.1062  0.0620
   59MOL   C42430700   2.571   4.458   2.653  0.1952  0.4974  0.4296
   59MOL   C42530701   2.451   4.391   2.680  0.0834  0.3725  0.1760
   59MOL   C42630702   2.326   4.418   2.618 -0.2915  0.1052  0.1398
   59MOL   C42730703   2.388   4.718   2.425 -0.0954 -0.3928 -0.0128
   59MOL   C42830704   2.248   4.704   2.399 -0.4787  1.0292  0.1248
   59MOL   C42930705   2.177   4.798   2.327 -0.8211  0.4687 -0.6224
   59MOL   C43030706   2.246   4.900   2.257  0.3536  0.4477 -1.1724
   59MOL   C43130707   2.378   4.917   2.287 -1.2769  0.0426 -0.3906
   59MOL   C43230708   2.454   4.827   2.367 -0.2144  0.4075 -0.3176
   59MOL   H43330709   2.116   4.471   2.244 -1.0221  2.9083 -1.3312
   59MOL   H43430710   1.996   4.581   2.248  0.6452 -0.5944 -0.5577
   59MOL   H43530711   2.079   4.438   2.506 -0.0556 -0.2284 -0.2341
   59MOL   H43630712   2.639   4.645   2.558 -0.5586  0.7981  0.4204
   59MOL   H43730713   2.665   4.415   2.684  0.5224  0.1255 -1.0270
   59MOL   H43830714   2.466   4.294   2.726  0.4570  0.4501  0.2175
   59MOL   H43930715   2.250   4.343   2.631 -1.5787  0.8125 -2.8085
   59MOL   H44030716   2.069   4.796   2.322 -0.8186  1.0825 -0.9838
   59MOL   H44130717   2.200   4.971   2.190  1.0458 -0.4957 -2.6767
   59MOL   H44230718   2.431   5.004   2.251  0.2934 -0.0028  1.7403
   59MOL   H44330719   2.557   4.842   2.396  0.2972  0.1424 -1.9878
   59MOL   C44430720   1.967   4.611   2.519  0.8993 -0.3533 -0.2742
   59MOL   C44530721   1.982   4.642   2.674  0.7593 -0.0995  0.1462
   59MOL   N44630722   1.895   4.757   2.705  0.0894 -0.0570  0.3386
   59MOL   C44730723   1.931   4.893   2.676  1.1359  0.0570  0.2355
   59MOL   C44830724   1.820   4.978   2.714 -0.5168 -0.4816  0.3208
   59MOL   C44930725   1.842   5.116   2.697 -0.4970  0.3391  0.0057
   59MOL   C45030726   1.968   5.165   2.644 -0.5639  0.3349  0.2468
   59MOL   C45130727   2.073   5.078   2.610 -0.3337 -0.1627  0.3412
   59MOL   C45230728   2.049   4.943   2.621 -0.9691 -0.3955 -0.4693
   59MOL   C45330729   1.712   4.897   2.753 -0.2653  0.1597 -0.1760
   59MOL   C45430730   1.758   4.763   2.741 -0.8647  0.0419  0.0865
   59MOL   C45530731   1.665   4.661   2.767  0.0240 -0.4264 -0.2699
   59MOL   C45630732   1.537   4.694   2.801 -0.1338 -0.1842  0.1546
   59MOL   C45730733   1.500   4.828   2.816  0.2327  0.4217  0.0634
   59MOL   C45830734   1.588   4.934   2.790  0.1398 -0.1049 -0.4327
   59MOL   H45930735   1.950   4.704   2.464 -0.0163 -0.6316 -0.4742
   59MOL   H46030736   1.878   4.549   2.508  1.1742 -0.8227  0.1076
   59MOL   H46130737   2.082   4.683   2.682  0.3909  1.3778 -2.3954
   59MOL   H46230738   1.759   5.179   2.722 -0.5203  0.3085  0.0057
   59MOL   H46330739   1.980   5.272   2.633  0.2495  0.3317  1.0875
   59MOL   H46430740   2.168   5.118   2.576 -0.5861  0.0867 -0.0856
   59MOL   H46530741   2.121   4.873   2.580  0.3536  1.1257 -0.7987
   59MOL   H46630742   1.694   4.557   2.758 -1.5699 -0.9671  0.7447
   59MOL   H46730743   1.464   4.615   2.816  1.2102 -1.8714 -1.8515
   59MOL   H46830744   1.402   4.855   2.852  0.9067  1.9170  0.8006
   59MOL   H46930745   1.564   5.038   2.806  0.5341 -0.2393  1.1276
   59MOL   C47030746   1.972   4.519   2.762 -0.3134 -0.3888  0.3172
   59MOL   C47130747   1.949   4.535   2.917 -0.6201 -0.0791 -0.7389
   59MOL   N47230748   1.920   4.408   2.986  0.2672 -0.2913  0.2529
   59MOL   C47330749   1.803   4.369   3.059  0.7579  0.1158 -0.1811
   59MOL   C47430750   1.815   4.241   3.111 -0.2175  0.0235 -0.1767
   59MOL   C47530751   1.713   4.190   3.189 -0.2246 -0.2953 -0.4099
   59MOL   C47630752   1.594   4.261   3.207  0.3775 -0.6309 -0.0701
   59MOL   C47730753   1.586   4.396   3.166  0.1198  0.6560  0.0195
   59MOL   C47830754   1.689   4.443   3.085 -0.9038 -0.2752  0.1403
   59MOL   C47930755   1.942   4.194   3.057 -0.7605  0.7812  0.1452
   59MOL   C48030756   2.006   4.297   2.985  0.2575  0.4802  0.9554
   59MOL   C48130757   2.130   4.275   2.923 -0.1427  0.3023  0.0737
   59MOL   C48230758   2.186   4.145   2.935  0.0111 -0.1852  0.6372
   59MOL   C48330759   2.115   4.042   2.994  0.1780 -0.1325 -0.2013
   59MOL   C48430760   1.995   4.065   3.063 -0.7997 -0.6428  0.2412
   59MOL   H48530761   1.889   4.456   2.730 -0.5266 -0.9639  1.9915
   59MOL   H48630762   2.056   4.457   2.732 -0.5839 -0.1416 -1.0198
   59MOL   H48730763   1.855   4.586   2.937 -1.2113 -2.0330  1.5852
   59MOL   H48830764   1.727   4.090   3.228  1.9490 -0.6055 -1.9286
   59MOL   H48930765   1.513   4.222   3.266  0.1175  0.4149  0.2773
   59MOL   H49030766   1.493   4.449   3.176  0.5647  1.8207 -1.7745
   59MOL   H49130767   1.674   4.543   3.047 -0.4558 -0.0129  0.6417
   59MOL   H49230768   2.188   4.355   2.881  0.6963 -0.4757 -0.2759
   59MOL   H49330769   2.285   4.119   2.900 -1.3470 -2.5560 -1.6500
   59MOL   H49430770   2.149   3.940   2.981  2.6826  0.6437 -0.0113
   59MOL   H49530771   1.935   3.988   3.109 -0.1725 -1.7215 -0.7165
   59MOL   C49630772   2.059   4.623   2.985  0.2666 -0.3721  0.0282
   59MOL   C49730773   2.063   4.624   3.138  0.1426  0.2329 -0.1950
   59MOL   N49830774   2.175   4.698   3.184  0.2086 -0.3528  0.2976
   59MOL   C49930775   2.307   4.661   3.157  0.4052  0.7274  0.7793
   59MOL   C50030776   2.394   4.768   3.187 -0.2493 -0.0100 -0.3916
   59MOL   C50130777   2.535   4.750   3.167 -0.5347 -0.3128 -0.1843
   59MOL   C50230778   2.588   4.624   3.129 -0.1448  0.1912 -0.3498
   59MOL   C50330779   2.501   4.510   3.105 -0.5615  0.1032 -0.7374
   59MOL   C50430780   2.360   4.538   3.108 -0.4194  0.3648  0.3520
   59MOL   C50530781   2.310   4.871   3.242 -0.2826 -0.7839 -0.2571
   59MOL   C50630782   2.178   4.820   3.245 -0.4292 -0.5693 -0.1167
   59MOL   C50730783   2.079   4.895   3.309 -0.4317 -0.0840 -0.9918
   59MOL   C50830784   2.101   5.022   3.361  0.7005  0.8148 -0.4152
   59MOL   C50930785   2.230   5.076   3.356  0.1740 -0.2690  0.8512
   59MOL   C51030786   2.332   5.006   3.289 -0.9197  0.2733  0.1214
   59MOL   H51130787   2.159   4.606   2.946 -0.9213 -0.7993 -2.9257
   59MOL   H51230788   2.048   4.723   2.943 -1.5089 -1.0914 -1.2828
   59MOL   H51330789   2.063   4.523   3.179 -1.7436  0.1565 -0.3276
   59MOL   H51430790   2.604   4.833   3.174  1.1170 -1.5498 -1.3900
   59MOL   H51530791   2.696   4.624   3.125 -0.0306  1.1932  1.5964
   59MOL   H51630792   2.546   4.413   3.089 -1.3085 -0.5369  0.8793
   59MOL   H51730793   2.287   4.460   3.093  0.7465 -0.6478 -0.1162
   59MOL   H51830794   1.982   4.848   3.305 -0.1050 -1.2203  2.5210
   59MOL   H51930795   2.019   5.072   3.409  1.5666  0.3495  1.6116
   59MOL   H52030796   2.244   5.176   3.393 -0.4063 -0.0699  0.5412
   59MOL   H52130797   2.431   5.049   3.289  0.0151 -1.8410  1.0438
   59MOL   H52230798   1.971   4.672   3.173 -1.6397 -2.3819 -1.1538
   60MOL     C130799   0.837   7.300   5.252  0.3002  0.3130 -0.2306
   60MOL     C230800   0.993   7.297   5.277  0.0572 -0.4106 -0.1657
   60MOL     N330801   1.037   7.192   5.358  0.5115 -0.3722  0.2200
   60MOL     C430802   1.100   7.195   5.481  0.1573  0.5987  0.4320
   60MOL     C530803   1.120   7.063   5.535 -0.3589  0.2600  0.2436
   60MOL     C630804   1.169   7.044   5.660 -0.1069 -0.9808 -0.5577
   60MOL     C730805   1.214   7.151   5.738 -0.2684  0.2991 -0.0600
   60MOL     C830806   1.196   7.281   5.688  0.5773  0.4944 -0.8882
   60MOL     C930807   1.145   7.306   5.557  0.5688 -0.1592  0.3091
   60MOL    C1030808   1.089   6.979   5.430  0.6761  0.3394 -0.1972
   60MOL    C1130809   1.031   7.059   5.326  0.4455 -0.7417 -0.0816
   60MOL    C1230810   0.978   6.993   5.214 -0.3117 -0.6642  0.3022
   60MOL    C1330811   0.975   6.854   5.205  0.6708  0.3989 -0.1938
   60MOL    C1430812   1.031   6.773   5.301  0.1638 -0.6264  0.9219
   60MOL    C1530813   1.087   6.838   5.414  0.1467 -0.0946 -0.1122
   60MOL    H1630814   0.780   7.335   5.338 -0.6275 -0.5680 -0.4783
   60MOL    H1730815   0.793   7.201   5.239  1.6497 -0.3135 -0.1152
   60MOL    H1830816   1.022   7.392   5.322 -0.8127  0.5023 -1.5033
   60MOL    H1930817   1.180   6.939   5.685  0.2172 -0.3954  1.8838
   60MOL    H2030818   1.259   7.121   5.831  0.3807  2.2147  0.2562
   60MOL    H2130819   1.224   7.362   5.754 -2.7190 -0.3625  1.7070
   60MOL    H2230820   1.138   7.410   5.528 -0.2779 -0.5311 -0.8352
   60MOL    H2330821   0.942   7.060   5.137 -0.2684  1.0181  1.7292
   60MOL    H2430822   0.929   6.813   5.116 -1.9110 -0.5087  1.5047
   60MOL    H2530823   1.023   6.666   5.294  0.3536 -0.6654  1.3083
   60MOL    H2630824   1.108   6.769   5.494  0.0234 -2.5936 -2.2022
   60MOL    H2730825   0.807   7.358   5.164 -2.1077 -1.9062 -0.9253
   60MOL    C2830826   1.079   7.295   5.139  0.0842  0.0690  0.0177
   60MOL    C2930827   1.059   7.416   5.042  0.2059 -0.3553  0.1520
   60MOL    N3030828   1.062   7.547   5.110  0.4060  0.0969  0.0537
   60MOL    C3130829   0.974   7.656   5.082 -0.0145  0.1004  0.3152
   60MOL    C3230830   0.992   7.756   5.181 -0.0168  0.5932  0.3756
   60MOL    C3330831   0.909   7.870   5.176  0.2105  0.6550  1.4285
   60MOL    C3430832   0.811   7.891   5.074 -0.5894  0.2137 -0.3270
   60MOL    C3530833   0.799   7.792   4.973  0.5423  0.6328 -0.6315
   60MOL    C3630834   0.873   7.672   4.980  0.2943  0.2031  0.4075
   60MOL    C3730835   1.106   7.716   5.260 -0.6810  0.4438  0.2825
   60MOL    C3830836   1.141   7.584   5.214 -0.6736 -0.2357  0.5932
   60MOL    C3930837   1.254   7.519   5.277  0.1035 -0.0742  0.3268
   60MOL    C4030838   1.317   7.580   5.389 -0.3056  0.3258 -0.1068
   60MOL    C4130839   1.276   7.706   5.437  0.1011  0.0599  0.1895
   60MOL    C4230840   1.178   7.775   5.367  0.0042  0.2402  0.3284
   60MOL    H4330841   1.188   7.287   5.146  0.0600 -0.1270  0.1796
   60MOL    H4430842   1.052   7.212   5.075 -0.1945  0.9185 -0.9819
   60MOL    H4530843   0.958   7.406   5.002 -0.5724  0.3158  1.8903
   60MOL    H4630844   0.912   7.945   5.253 -3.6366 -0.0405  2.3474
   60MOL    H4730845   0.742   7.974   5.067  0.8355  1.3023 -1.7195
   60MOL    H4830846   0.728   7.802   4.892  2.0878  0.0307 -2.0954
   60MOL    H4930847   0.853   7.596   4.906  0.2061 -2.5346  3.2042
   60MOL    H5030848   1.299   7.430   5.236  3.7211  2.3830 -1.2964
   60MOL    H5130849   1.395   7.530   5.445 -0.3254 -1.3781 -1.5757
   60MOL    H5230850   1.327   7.754   5.518  0.6396  0.1143 -0.1816
   60MOL    H5330851   1.150   7.877   5.388 -0.0267  0.3367 -0.1579
   60MOL    C5430852   1.159   7.409   4.923  0.0129  0.2285  0.3780
   60MOL    C5530853   1.138   7.284   4.829 -0.3223 -0.5225  0.1142
   60MOL    N5630854   1.000   7.278   4.788 -0.4064 -0.0687  0.2641
   60MOL    C5730855   0.931   7.152   4.797  0.0524 -0.0053  0.3527
   60MOL    C5830856   0.814   7.164   4.715  0.5015  0.0078 -0.0684
   60MOL    C5930857   0.732   7.049   4.700 -0.5322  0.4684  0.7376
   60MOL    C6030858   0.757   6.933   4.767  0.4265 -0.2242 -0.3086
   60MOL    C6130859   0.876   6.920   4.848  0.5451  0.2844 -0.4594
   60MOL    C6230860   0.965   7.031   4.863  0.1942  1.0504 -0.1606
   60MOL    C6330861   0.813   7.293   4.656 -0.1505 -0.4620 -0.6665
   60MOL    C6430862   0.926   7.362   4.703  0.0301  0.2176  0.3236
   60MOL    C6530863   0.954   7.495   4.662 -0.4990 -0.6906 -0.5868
   60MOL    C6630864   0.857   7.566   4.589  0.1167  0.3755 -0.8431
   60MOL    C6730865   0.746   7.494   4.534 -1.1252  0.3713  0.8856
   60MOL    C6830866   0.724   7.359   4.569  0.3052  0.3266 -0.1228
   60MOL    H6930867   1.159   7.504   4.868 -0.8779  0.5668  0.9569
   60MOL    H7030868   1.257   7.418   4.969  0.2299 -0.4407  0.0474
   60MOL    H7130869   1.172   7.204   4.895 -1.8357 -0.0136  1.5328
   60MOL    H7230870   0.644   7.054   4.637 -0.1833  0.6529  0.2660
   60MOL    H7330871   0.702   6.841   4.754  0.0365 -0.2526  1.4372
   60MOL    H7430872   0.902   6.826   4.894  0.2343  0.1969 -0.4592
   60MOL    H7530873   1.044   7.029   4.937 -0.0981  1.8881  0.1788
   60MOL    H7630874   1.047   7.542   4.691 -1.4402 -0.0258  1.4662
   60MOL    H7730875   0.875   7.664   4.547  1.0314  0.7660  0.4581
   60MOL    H7830876   0.681   7.532   4.457 -0.3004  0.9574  0.4812
   60MOL    H7930877   0.638   7.312   4.525  0.6967  0.6227 -1.2358
   60MOL    C8030878   1.237   7.299   4.711  0.2320  0.5789  0.2301
   60MOL    C8130879   1.233   7.190   4.601 -0.6256  0.5329  0.1126
   60MOL    N8230880   1.160   7.222   4.476  0.2628 -0.0583 -0.2479
   60MOL    C8330881   1.051   7.159   4.420  0.0691  0.0081 -0.4720
   60MOL    C8430882   1.017   7.224   4.298  0.2166 -0.1172  0.2583
   60MOL    C8530883   0.900   7.183   4.226 -0.6376  0.0717  0.1611
   60MOL    C8630884   0.818   7.079   4.277 -0.2396  1.1509  0.2009
   60MOL    C8730885   0.857   7.009   4.391  0.4292  0.2506 -0.7463
   60MOL    C8830886   0.976   7.042   4.458 -0.0799  0.0768  0.3273
   60MOL    C8930887   1.117   7.325   4.277 -0.1862  0.5768  0.5605
   60MOL    C9030888   1.208   7.322   4.388  0.1467  0.5442 -0.1975
   60MOL    C9130889   1.319   7.412   4.398  0.3832 -0.3641  0.3016
   60MOL    C9230890   1.350   7.501   4.294 -0.1479  0.3138 -0.0912
   60MOL    C9330891   1.258   7.503   4.181  0.7817  0.2757  0.2406
   60MOL    C9430892   1.148   7.420   4.179  0.4616  0.5739 -0.7478
   60MOL    H9530893   1.218   7.396   4.665 -2.7333  0.6968  1.5906
   60MOL    H9630894   1.336   7.304   4.757 -0.1836  2.2611  0.9821
   60MOL    H9730895   1.180   7.104   4.644  2.1284 -1.0999  0.3791
   60MOL    H9830896   0.880   7.234   4.133 -0.3451  2.1241  1.2077
   60MOL    H9930897   0.725   7.052   4.229  0.4293 -0.4006 -0.2630
   60MOL   H10030898   0.797   6.927   4.425 -0.7281 -0.0394 -3.3688
   60MOL   H10130899   1.007   6.990   4.548 -0.4538  1.5902  1.3492
   60MOL   H10230900   1.387   7.403   4.482  0.1679 -2.5676  0.2788
   60MOL   H10330901   1.436   7.566   4.297  0.9108 -1.1205  1.8844
   60MOL   H10430902   1.278   7.564   4.095  0.0502  0.5542  0.2609
   60MOL   H10530903   1.090   7.420   4.088  1.4282  2.3811 -1.4012
   60MOL   C10630904   1.374   7.128   4.569  0.2022 -0.0344  0.9805
   60MOL   C10730905   1.453   7.057   4.677 -0.3704 -1.1605 -0.3449
   60MOL   N10830906   1.377   6.995   4.783 -0.6153  0.5228  0.2524
   60MOL   C10930907   1.393   7.018   4.922  0.4359 -0.0882  0.5356
   60MOL   C11030908   1.326   6.920   4.997  0.2912  0.5417  0.3117
   60MOL   C11130909   1.341   6.918   5.132  0.0001 -0.0353  0.2574
   60MOL   C11230910   1.405   7.025   5.197  0.1192 -0.7063  0.3073
   60MOL   C11330911   1.473   7.127   5.127 -0.5782  0.3797 -0.2136
   60MOL   C11430912   1.462   7.123   4.990 -0.2834 -0.2489  0.3654
   60MOL   C11530913   1.260   6.837   4.900 -0.0001 -0.0703  0.1688
   60MOL   C11630914   1.290   6.884   4.770 -0.7854  0.0154  0.2503
   60MOL   C11730915   1.230   6.826   4.659  0.2140 -0.0704 -0.3863
   60MOL   C11830916   1.149   6.713   4.674 -0.2754  0.3475  0.1340
   60MOL   C11930917   1.120   6.659   4.799  0.2674  0.2331 -0.3491
   60MOL   C12030918   1.178   6.722   4.913  0.1164  0.2974  0.1889
   60MOL   H12130919   1.358   7.054   4.490 -1.3398 -0.1954  1.4347
   60MOL   H12230920   1.450   7.193   4.525 -0.8581  0.9567  0.6140
   60MOL   H12330921   1.508   7.140   4.721 -2.0441 -1.4627  2.4504
   60MOL   H12430922   1.287   6.839   5.182 -1.6487  0.5965 -0.4762
   60MOL   H12530923   1.418   7.024   5.304 -2.0867  1.5770  0.6488
   60MOL   H12630924   1.530   7.200   5.182 -1.9934  1.0246  0.4177
   60MOL   H12730925   1.524   7.195   4.938 -1.3903  0.9421  0.6819
   60MOL   H12830926   1.256   6.862   4.560 -1.9589  1.1912 -0.5258
   60MOL   H12930927   1.112   6.655   4.592 -0.5297  0.3942  0.2165
   60MOL   H13030928   1.059   6.571   4.814 -2.3099  2.0168 -0.0472
   60MOL   H13130929   1.159   6.680   5.010  1.9140  0.0016  0.4396
   60MOL   C13230930   1.564   6.965   4.621  0.0221 -0.3535  0.0829
   60MOL   C13330931   1.693   6.929   4.705 -0.0458 -0.2385 -0.7212
   60MOL   N13430932   1.663   6.864   4.824  0.1117  0.0177  0.0122
   60MOL   C13530933   1.707   6.899   4.951  0.1039  0.2876  1.3289
   60MOL   C13630934   1.668   6.801   5.044 -0.4495 -0.0162  0.4856
   60MOL   C13730935   1.700   6.822   5.177  0.7286  0.2013  0.1408
   60MOL   C13830936   1.774   6.931   5.226  0.4421 -0.0211 -0.1097
   60MOL   C13930937   1.813   7.030   5.135  0.7390  0.2880  0.7406
   60MOL   C14030938   1.787   7.009   4.997 -0.2318 -0.2237 -0.3140
   60MOL   C14130939   1.589   6.703   4.972 -0.1281  0.2586 -0.7527
   60MOL   C14230940   1.595   6.740   4.836 -0.0839 -0.2734 -0.1330
   60MOL   C14330941   1.540   6.655   4.737 -0.2126 -0.0373 -0.4619
   60MOL   C14430942   1.479   6.531   4.782  0.1326  0.4967  0.6174
   60MOL   C14530943   1.475   6.491   4.916 -0.2564  0.3513  0.2969
   60MOL   C14630944   1.524   6.579   5.010 -0.0650 -0.1991 -0.1331
   60MOL   H14730945   1.521   6.870   4.590 -1.0885 -0.3926  1.6931
   60MOL   H14830946   1.586   7.012   4.525 -0.9489 -0.8322 -0.3837
   60MOL   H14930947   1.736   7.026   4.728  0.8128 -1.3692  2.7429
   60MOL   H15030948   1.662   6.759   5.257  2.6340  0.5451  1.3581
   60MOL   H15130949   1.800   6.945   5.330  1.6612  1.9983 -0.6593
   60MOL   H15230950   1.864   7.117   5.176  5.1050 -1.5472 -0.4679
   60MOL   H15330951   1.821   7.085   4.928 -1.8352  2.9937  2.3108
   60MOL   H15430952   1.542   6.666   4.630  1.1570  0.9370 -0.3468
   60MOL   H15530953   1.420   6.480   4.707  1.3617 -1.3663  0.9023
   60MOL   H15630954   1.418   6.402   4.938 -1.6717  0.1196 -3.7867
   60MOL   H15730955   1.511   6.555   5.115  0.1373 -1.0372 -0.2895
   60MOL   C15830956   1.785   6.844   4.617  0.5699 -0.2357 -0.2285
   60MOL   C15930957   1.851   6.926   4.504  0.5111  0.5288 -0.1272
   60MOL   N16030958   1.918   7.046   4.552  0.0452  0.0710 -0.4756
   60MOL   C16130959   1.874   7.173   4.518 -0.1333 -0.0697 -0.2605
   60MOL   C16230960   1.962   7.270   4.578  0.2672  0.1509  0.2110
   60MOL   C16330961   1.940   7.410   4.551  0.2421 -0.1607 -0.1164
   60MOL   C16430962   1.834   7.456   4.474  0.2180  0.4870 -0.1479
   60MOL   C16530963   1.745   7.359   4.421 -1.4330 -0.6015  0.4951
   60MOL   C16630964   1.763   7.220   4.441  0.2539  0.3935  0.3217
   60MOL   C16730965   2.058   7.196   4.653 -0.7232  0.4703 -0.9856
   60MOL   C16830966   2.028   7.058   4.634 -0.2716  1.1578  0.5647
   60MOL   C16930967   2.104   6.954   4.696 -0.1192 -0.0397 -0.4711
   60MOL   C17030968   2.211   6.990   4.780  0.0059 -0.3008  0.3312
   60MOL   C17130969   2.241   7.125   4.806 -0.1104 -0.4223  0.4304
   60MOL   C17230970   2.168   7.230   4.742  0.1359 -0.5033 -0.2280
   60MOL   H17330971   1.866   6.797   4.673  1.0682  1.1386  0.2239
   60MOL   H17430972   1.731   6.758   4.577 -2.8711  2.3348 -1.3773
   60MOL   H17530973   1.768   6.965   4.445  1.5868  1.7001 -0.9110
   60MOL   H17630974   1.992   7.481   4.613  0.6337 -0.0364 -0.5910
   60MOL   H17730975   1.830   7.563   4.457 -0.5969  0.4186 -0.4027
   60MOL   H17830976   1.665   7.403   4.363  0.1824 -0.1889 -1.5203
   60MOL   H17930977   1.689   7.155   4.397  1.6971  0.0598 -1.6782
   60MOL   H18030978   2.078   6.850   4.682 -0.6699  0.0156  0.1330
   60MOL   H18130979   2.271   6.913   4.828  1.2877  0.6273  0.2640
   60MOL   H18230980   2.319   7.157   4.873 -1.6816 -0.6567  2.4086
   60MOL   H18330981   2.183   7.334   4.767 -1.0148 -0.2099 -0.7559
   60MOL   C18430982   1.923   6.842   4.399  0.3791  0.2989  0.3224
   60MOL   C18530983   1.826   6.783   4.295  0.0217 -0.3063  0.2150
   60MOL   N18630984   1.730   6.877   4.235  0.0734  0.4229  0.3340
   60MOL   C18730985   1.592   6.872   4.248 -0.1960  0.1220  0.2481
   60MOL   C18830986   1.530   6.981   4.186  0.3236 -0.1382 -0.2307
   60MOL   C18930987   1.389   6.992   4.199 -0.4061 -0.5038 -0.1524
   60MOL   C19030988   1.316   6.901   4.268  0.0911  0.3587 -0.2971
   60MOL   C19130989   1.376   6.793   4.335 -0.6689 -0.7543 -0.1937
   60MOL   C19230990   1.512   6.780   4.317 -0.1095  0.4876 -0.2130
   60MOL   C19330991   1.632   7.058   4.125 -0.3126 -0.5062  0.7378
   60MOL   C19430992   1.759   6.997   4.166  0.7272 -0.0715  0.9851
   60MOL   C19530993   1.883   7.056   4.126  0.4061  0.2738 -0.3822
   60MOL   C19630994   1.881   7.189   4.074 -0.2512 -0.3730 -1.3652
   60MOL   C19730995   1.756   7.250   4.043  0.0180  0.2073  0.4418
   60MOL   C19830996   1.637   7.180   4.058  0.2582  0.2102  0.1554
   60MOL   H19930997   1.990   6.912   4.349  0.0269 -0.0510 -0.6499
   60MOL   H20030998   1.973   6.761   4.452 -0.1629  1.6231  2.9989
   60MOL   H20130999   1.774   6.709   4.357  1.1379  1.1129  2.9304
   60MOL   H20231000   1.335   7.070   4.148 -1.6108 -2.0055 -1.2105
   60MOL   H20331001   1.209   6.912   4.281  0.1523 -1.3060  1.8152
   60MOL   H20431002   1.326   6.726   4.402 -0.8357 -1.4862 -1.0367
   60MOL   H20531003   1.558   6.699   4.371 -0.9789  0.2430  0.1574
   60MOL   H20631004   1.978   7.005   4.137  1.2585  1.9787  0.2879
   60MOL   H20731005   1.976   7.240   4.067 -0.0382 -0.0251  2.9350
   60MOL   H20831006   1.764   7.341   3.986 -0.9923  0.2751  0.3958
   60MOL   H20931007   1.545   7.231   4.034  0.2893 -0.4099 -1.3233
   60MOL   C21031008   1.910   6.708   4.181  0.0781 -0.5704 -0.2926
   60MOL   C21131009   1.830   6.641   4.068  0.0662 -0.1523  0.0748
   60MOL   N21231010   1.907   6.624   3.951 -0.6479 -0.0805 -0.6331
   60MOL   C21331011   1.926   6.729   3.859 -0.1407  0.5734 -0.2905
   60MOL   C21431012   2.021   6.689   3.765  0.1291  0.8399  0.8862
   60MOL   C21531013   2.063   6.786   3.670  0.3910 -0.0272  0.5805
   60MOL   C21631014   2.011   6.912   3.669  0.0366 -0.4431 -0.2463
   60MOL   C21731015   1.896   6.946   3.744  0.4556 -0.1149  0.0304
   60MOL   C21831016   1.852   6.851   3.841 -0.2098  0.2357  0.0287
   60MOL   C21931017   2.061   6.558   3.800  0.5990 -0.0729 -0.2390
   60MOL   C22031018   1.986   6.516   3.916 -0.0651  0.1484 -0.2306
   60MOL   C22131019   1.999   6.381   3.968  0.1781  0.7784 -0.1363
   60MOL   C22231020   2.101   6.296   3.909  0.4390  0.1638  0.0463
   60MOL   C22331021   2.176   6.346   3.799  0.3748  0.8155  0.0261
   60MOL   C22431022   2.150   6.471   3.744 -0.3077  0.4640  0.6963
   60MOL   H22531023   1.976   6.784   4.139 -0.7448  1.1390  1.4099
   60MOL   H22631024   1.975   6.639   4.234  0.6194  0.9994  1.1600
   60MOL   H22731025   1.764   6.723   4.039 -0.3839 -0.8200 -0.8191
   60MOL   H22831026   2.140   6.757   3.601  0.4652  1.5290 -0.0207
   60MOL   H22931027   2.054   6.981   3.598 -0.4678  0.3243  0.1953
   60MOL   H23031028   1.843   7.040   3.734  0.7801  0.2273  1.3778
   60MOL   H23131029   1.771   6.876   3.908  0.7483 -0.3707  1.4330
   60MOL   H23231030   1.950   6.340   4.055 -2.1293 -1.2324 -2.3103
   60MOL   H23331031   2.118   6.197   3.949  2.5354  1.2027  1.8700
   60MOL   H23431032   2.248   6.275   3.761  1.0209  1.4521  0.0603
   60MOL   H23531033   2.202   6.502   3.654  0.1707  0.2281  0.8870
   60MOL   C23631034   1.743   6.524   4.122  1.0113  0.1584  0.2912
   60MOL   C23731035   1.632   6.477   4.029 -0.5874 -0.4516 -0.5869
   60MOL   N23831036   1.599   6.332   4.040 -0.3466  0.0236  0.3910
   60MOL   C23931037   1.606   6.240   3.936  0.2006 -0.9301 -0.2474
   60MOL   C24031038   1.560   6.109   3.976  0.2476 -0.3516 -0.8016
   60MOL   C24131039   1.553   6.003   3.881 -0.6645 -0.6800  0.3320
   60MOL   C24231040   1.597   6.029   3.751  0.0620 -0.5782 -0.5797
   60MOL   C24331041   1.643   6.154   3.705  0.1758  0.4613  0.3627
   60MOL   C24431042   1.640   6.262   3.801 -0.6361 -0.0018  0.1763
   60MOL   C24531043   1.534   6.123   4.118 -0.2338  0.3580  0.0398
   60MOL   C24631044   1.558   6.261   4.153 -0.1801 -0.9708  0.2060
   60MOL   C24731045   1.548   6.302   4.287  0.2920  0.6274 -0.3071
   60MOL   C24831046   1.488   6.216   4.379  0.0573 -0.1876  0.0732
   60MOL   C24931047   1.457   6.086   4.347  0.4608  0.2811 -0.2613
   60MOL   C25031048   1.474   6.037   4.219 -0.0734 -0.3480  0.6725
   60MOL   H25131049   1.803   6.435   4.140  0.3207  0.1102  2.6026
   60MOL   H25231050   1.708   6.556   4.221  1.6936  0.5928  0.3913
   60MOL   H25331051   1.659   6.507   3.928 -0.3304  0.0596 -0.3709
   60MOL   H25431052   1.516   5.905   3.907 -0.3113 -0.6791  0.8515
   60MOL   H25531053   1.579   5.951   3.679  1.7563 -2.8654  1.3805
   60MOL   H25631054   1.670   6.169   3.602 -1.0410  0.2691  0.0119
   60MOL   H25731055   1.675   6.360   3.772  0.7678 -0.5254  0.0668
   60MOL   H25831056   1.562   6.398   4.334 -0.1436  0.2096  0.7059
   60MOL   H25931057   1.460   6.248   4.478  3.4778  0.0661  1.0368
   60MOL   H26031058   1.403   6.016   4.410 -1.9204  1.2855 -1.1221
   60MOL   H26131059   1.452   5.934   4.195  1.5207 -0.0451 -2.3660
   60MOL   C26231060   1.508   6.558   4.062  0.1110 -0.0996  0.4174
   60MOL   C26331061   1.385   6.520   3.983 -0.2824 -0.9028 -0.4785
   60MOL   N26431062   1.263   6.582   4.040 -0.5155 -0.0601  0.5053
   60MOL   C26531063   1.169   6.510   4.123  0.9271 -0.7964  0.2678
   60MOL   C26631064   1.061   6.591   4.153  0.2384 -0.0998  0.2511
   60MOL   C26731065   0.956   6.547   4.234 -0.9559 -0.4901 -0.0994
   60MOL   C26831066   0.955   6.416   4.289  0.5201 -0.1924 -0.4264
   60MOL   C26931067   1.070   6.334   4.265 -0.1482 -0.3007  0.5129
   60MOL   C27031068   1.176   6.380   4.182  0.6904 -0.0038 -0.1066
   60MOL   C27131069   1.078   6.711   4.081  0.3691 -0.0740  0.1990
   60MOL   C27231070   1.201   6.706   4.014  0.1764 -0.3376  0.5968
   60MOL   C27331071   1.248   6.811   3.937  0.6851  0.4813 -0.1960
   60MOL   C27431072   1.172   6.927   3.930 -0.3039 -0.4060 -0.1985
   60MOL   C27531073   1.052   6.940   4.010 -0.3755 -0.1709 -0.1868
   60MOL   C27631074   1.005   6.832   4.079 -0.4299  0.2398 -0.9923
   60MOL   H27731075   1.479   6.563   4.167 -1.3831  0.7997 -0.0322
   60MOL   H27831076   1.533   6.661   4.037  0.8333 -0.4940 -0.5057
   60MOL   H27931077   1.361   6.414   3.997  0.9940 -1.0601  0.6667
   60MOL   H28031078   0.872   6.609   4.260 -0.0233  0.2802  1.1095
   60MOL   H28131079   0.881   6.383   4.360  1.3619  1.8818  1.4607
   60MOL   H28231080   1.080   6.236   4.308 -2.1276 -1.9729 -2.5895
   60MOL   H28331081   1.258   6.312   4.165  0.2813 -0.2367 -1.2095
   60MOL   H28431082   1.350   6.812   3.900  0.9987 -0.5669  0.6183
   60MOL   H28531083   1.208   7.004   3.863 -0.7220  0.1614  0.2238
   60MOL   H28631084   1.004   7.037   4.013  0.4618  0.2388  0.4400
   60MOL   H28731085   0.923   6.840   4.149 -0.6528  0.4176 -1.2758
   60MOL   C28831086   1.394   6.538   3.828  0.5548 -0.1765  0.2057
   60MOL   C28931087   1.271   6.482   3.758 -0.6423  0.0568 -0.5566
   60MOL   N29031088   1.278   6.518   3.624 -0.1213  0.5152 -0.0761
   60MOL   C29131089   1.217   6.631   3.561  0.1289  0.2457 -0.6022
   60MOL   C29231090   1.255   6.641   3.427  0.2517  0.0431 -0.0970
   60MOL   C29331091   1.197   6.743   3.350 -0.0365  0.8349  0.0434
   60MOL   C29431092   1.098   6.826   3.404  0.1982 -1.2749 -0.1727
   60MOL   C29531093   1.067   6.820   3.543 -0.6773  0.0035 -0.1483
   60MOL   C29631094   1.130   6.723   3.620 -0.2161 -0.1566  0.1377
   60MOL   C29731095   1.340   6.535   3.397  0.4770  0.2625  0.2104
   60MOL   C29831096   1.357   6.464   3.522 -0.0693 -0.7237 -0.9276
   60MOL   C29931097   1.438   6.349   3.528  0.3389  0.0827 -0.1419
   60MOL   C30031098   1.507   6.306   3.409 -0.0808  0.3895  0.3987
   60MOL   C30131099   1.494   6.378   3.292 -0.8872  0.3507 -0.0608
   60MOL   C30231100   1.408   6.488   3.284  0.4387 -0.5945 -0.2019
   60MOL   H30331101   1.391   6.636   3.782  1.5380 -0.6207 -0.8055
   60MOL   H30431102   1.479   6.491   3.779 -0.2186 -0.9222 -0.4489
   60MOL   H30531103   1.182   6.530   3.800  0.6117 -0.3044  2.6332
   60MOL   H30631104   1.216   6.750   3.244  0.8740 -0.8238  0.0872
   60MOL   H30731105   1.036   6.887   3.340  0.2392 -1.7561 -0.6732
   60MOL   H30831106   0.985   6.875   3.585 -0.6321 -0.8535  1.0754
   60MOL   H30931107   1.102   6.716   3.724 -1.8513 -0.5324 -0.3244
   60MOL   H31031108   1.435   6.283   3.613  1.9772 -0.5557 -0.5555
   60MOL   H31131109   1.559   6.212   3.408  2.3018  1.6254  2.2811
   60MOL   H31231110   1.539   6.350   3.198 -1.4104  0.0273 -0.2130
   60MOL   H31331111   1.392   6.542   3.192  1.7815  1.2654  0.6229
   60MOL   C31431112   1.239   6.334   3.784  0.1869 -0.2495  0.8217
   60MOL   C31531113   1.110   6.271   3.727  0.1291  0.0249  0.6031
   60MOL   N31631114   1.109   6.127   3.743  0.5993  0.3865  0.6737
   60MOL   C31731115   1.160   6.037   3.652  0.6983 -0.3449 -0.0202
   60MOL   C31831116   1.151   5.903   3.697 -1.0529 -0.1535 -0.5627
   60MOL   C31931117   1.198   5.792   3.621 -0.4535 -0.3033 -0.4617
   60MOL   C32031118   1.240   5.813   3.491  0.1211  0.6254 -0.0660
   60MOL   C32131119   1.243   5.946   3.438  0.0075  0.4598  0.1169
   60MOL   C32231120   1.213   6.057   3.524 -0.0646 -0.2801  0.5329
   60MOL   C32331121   1.094   5.911   3.828  0.4882 -0.0255  0.4053
   60MOL   C32431122   1.082   6.055   3.858 -0.1117 -0.2661  0.1786
   60MOL   C32531123   1.057   6.093   3.992  0.2101  0.5034  0.3761
   60MOL   C32631124   1.025   6.000   4.093  0.1395 -0.7811  0.4454
   60MOL   C32731125   1.020   5.866   4.055  0.5872 -0.0310  0.0843
   60MOL   C32831126   1.051   5.819   3.923 -0.7465 -0.2867 -0.1047
   60MOL   H32931127   1.321   6.263   3.772 -1.0336 -1.6240  0.4608
   60MOL   H33031128   1.216   6.315   3.889  1.4088  1.8497  1.5220
   60MOL   H33131129   1.110   6.285   3.618  0.1386 -2.5095  0.2498
   60MOL   H33231130   1.183   5.693   3.661  1.0468  0.0346  0.9888
   60MOL   H33331131   1.248   5.725   3.428 -3.1168 -0.1527  0.5106
   60MOL   H33431132   1.271   5.959   3.334 -0.2647 -1.1088 -0.1706
   60MOL   H33531133   1.226   6.156   3.483 -1.9118  0.0106  0.6119
   60MOL   H33631134   1.063   6.197   4.023 -0.0292  0.6184  0.0332
   60MOL   H33731135   1.006   6.035   4.193  0.1267  1.0346 -0.1809
   60MOL   H33831136   1.012   5.795   4.136 -1.8760  0.4962  0.3333
   60MOL   H33931137   1.060   5.716   3.893  1.2306 -0.4035  0.7613
   60MOL   C34031138   0.985   6.342   3.794 -0.7763  0.6192 -0.8844
   60MOL   C34131139   0.890   6.413   3.698  0.1221 -0.3574  0.2332
   60MOL   N34231140   0.845   6.334   3.586  0.2712 -0.7762  0.7403
   60MOL   C34331141   0.880   6.347   3.451  0.1475  0.4441 -0.5950
   60MOL   C34431142   0.810   6.250   3.375  0.8852  0.2433 -0.0715
   60MOL   C34531143   0.832   6.244   3.238 -0.6391  0.1779  0.3059
   60MOL   C34631144   0.929   6.324   3.176 -0.1734  0.1247 -0.0444
   60MOL   C34731145   0.994   6.423   3.251  0.4410 -0.5322  0.2061
   60MOL   C34831146   0.971   6.434   3.388  0.7556  0.3206  0.9275
   60MOL   C34931147   0.721   6.181   3.458 -0.1093  0.0710  0.2858
   60MOL   C35031148   0.748   6.233   3.590 -0.0880  0.5120 -0.2292
   60MOL   C35131149   0.664   6.186   3.697 -0.2169 -0.0827 -0.4273
   60MOL   C35231150   0.560   6.090   3.677 -0.6807 -0.0116  0.1339
   60MOL   C35331151   0.545   6.035   3.551 -0.2007  0.4476 -0.1489
   60MOL   C35431152   0.624   6.077   3.440 -0.5969  0.6046  0.5111
   60MOL   H35531153   0.916   6.267   3.833 -0.5035  0.4184 -0.7928
   60MOL   H35631154   1.008   6.412   3.874  1.8812 -0.0762 -1.0071
   60MOL   H35731155   0.963   6.482   3.658  0.2613  0.2255  1.4747
   60MOL   H35831156   0.776   6.172   3.179 -1.6278  0.4099  0.9464
   60MOL   H35931157   0.952   6.312   3.072  0.1099  1.3424 -0.1230
   60MOL   H36031158   1.080   6.479   3.216  0.9444  1.5288  4.4435
   60MOL   H36131159   1.016   6.513   3.447  2.1026 -0.1623  0.5500
   60MOL   H36231160   0.674   6.225   3.798 -0.9225 -0.6434 -0.1331
   60MOL   H36331161   0.504   6.054   3.762 -0.0519  2.4724  1.6548
   60MOL   H36431162   0.467   5.961   3.540  1.2458 -1.2739  0.8820
   60MOL   H36531163   0.605   6.041   3.340  1.2526 -0.3320  0.4889
   60MOL   C36631164   0.775   6.505   3.761 -0.1501  0.3363  0.2130
   60MOL   C36731165   0.670   6.567   3.676  0.6436 -0.1564  0.5659
   60MOL   N36831166   0.551   6.602   3.761  0.2002 -0.2270 -0.0880
   60MOL   C36931167   0.438   6.529   3.778 -0.4154  0.2279 -0.3990
   60MOL   C37031168   0.346   6.605   3.856  0.2515 -0.4041  0.1109
   60MOL   C37131169   0.216   6.550   3.863 -0.1535  0.6134  0.2483
   60MOL   C37231170   0.182   6.433   3.794 -0.7659  0.1068  0.3115
   60MOL   C37331171   0.270   6.364   3.719  0.3395 -0.3146  0.4589
   60MOL   C37431172   0.399   6.411   3.715 -0.1464  0.3038 -0.3384
   60MOL   C37531173   0.417   6.719   3.905  0.4431  0.0909 -0.1778
   60MOL   C37631174   0.541   6.713   3.851  0.5448  0.6791  0.7214
   60MOL   C37731175   0.634   6.814   3.880 -0.0457  0.7736 -0.5874
   60MOL   C37831176   0.604   6.909   3.976 -1.1599  0.2878  0.2195
   60MOL   C37931177   0.474   6.912   4.033 -0.7185 -0.0694  0.4300
   60MOL   C38031178   0.385   6.821   3.991  0.0067  0.2157  0.0882
   60MOL   H38131179   0.719   6.430   3.818  0.8441 -0.4331  0.1931
   60MOL   H38231180   0.815   6.590   3.818 -0.6876 -0.1487  1.3257
   60MOL   H38331181   0.639   6.483   3.613 -1.4834  0.4574  0.7500
   60MOL   H38431182   0.138   6.604   3.914  0.1417 -1.7036  3.2592
   60MOL   H38531183   0.085   6.393   3.819 -0.0378 -0.2597  2.6950
   60MOL   H38631184   0.240   6.281   3.656 -3.1333  1.9034 -0.9662
   60MOL   H38731185   0.470   6.364   3.649  2.7025 -1.7908  3.9233
   60MOL   H38831186   0.734   6.809   3.841  0.0621  0.5571 -0.2796
   60MOL   H38931187   0.673   6.988   4.002  1.2418 -1.5913 -0.2847
   60MOL   H39031188   0.446   6.998   4.092  3.5636  0.0612  2.4585
   60MOL   H39131189   0.290   6.828   4.042 -0.7706 -2.5874 -0.8860
   60MOL   C39231190   0.715   6.676   3.574  0.0961 -0.8646 -0.2451
   60MOL   C39331191   0.602   6.749   3.499 -0.4738 -1.3383 -0.3261
   60MOL   N39431192   0.651   6.855   3.404  0.3077  0.3384 -0.2075
   60MOL   C39531193   0.623   6.992   3.413 -0.5865 -0.0217  0.3095
   60MOL   C39631194   0.689   7.058   3.303  0.2424 -0.2439  0.2062
   60MOL   C39731195   0.683   7.198   3.299  0.4396 -0.0328 -0.4628
   60MOL   C39831196   0.611   7.279   3.396 -0.0212  0.6684 -0.1745
   60MOL   C39931197   0.537   7.210   3.498 -0.1137 -0.0013  0.2309
   60MOL   C40031198   0.548   7.068   3.502 -0.0220  0.3190 -0.1303
   60MOL   C40131199   0.758   6.958   3.227 -0.2192 -0.1118  0.2730
   60MOL   C40231200   0.733   6.835   3.290 -0.1974 -0.6734 -0.3157
   60MOL   C40331201   0.790   6.722   3.235  0.3808 -0.7766  0.0617
   60MOL   C40431202   0.889   6.737   3.137 -0.1834 -0.5466  0.4074
   60MOL   C40531203   0.931   6.860   3.083 -0.0474 -0.0489 -0.3930
   60MOL   C40631204   0.855   6.972   3.124  0.2707  0.4234  0.6260
   60MOL   H40731205   0.789   6.744   3.616 -0.7275  1.0574 -1.8348
   60MOL   H40831206   0.761   6.620   3.493  1.7714  0.3146 -0.1267
   60MOL   H40931207   0.545   6.810   3.568  0.3375  0.0259 -0.8553
   60MOL   H41031208   0.738   7.247   3.219 -0.7437  0.6396 -0.8866
   60MOL   H41131209   0.609   7.387   3.389  3.4208  0.7946 -0.2760
   60MOL   H41231210   0.474   7.262   3.568  0.4578  0.2410  0.5733
   60MOL   H41331211   0.484   7.022   3.576 -3.1349 -0.4343 -3.1543
   60MOL   H41431212   0.751   6.626   3.269 -0.1710 -1.5928 -2.7665
   60MOL   H41531213   0.936   6.648   3.097  0.3954  0.5102 -1.3048
   60MOL   H41631214   1.001   6.866   3.001 -1.2872 -1.3088 -1.5881
   60MOL   H41731215   0.864   7.072   3.086  0.6309 -0.5980 -2.1190
   60MOL   C41831216   0.507   6.654   3.425  0.1568  0.0615 -0.4836
   60MOL   C41931217   0.379   6.729   3.377  0.1891 -0.5597 -0.1090
   60MOL   N42031218   0.330   6.686   3.249 -0.1653 -1.0072  0.2544
   60MOL   C42131219   0.324   6.764   3.135 -0.5053 -0.8160 -0.3316
   60MOL   C42231220   0.255   6.691   3.032 -0.0119  0.7833  0.4981
   60MOL   C42331221   0.223   6.762   2.920  0.5776 -0.7019  0.1619
   60MOL   C42431222   0.270   6.893   2.900  0.0839 -0.0159  0.0239
   60MOL   C42531223   0.351   6.955   2.993 -0.4505  0.2276  0.9609
   60MOL   C42631224   0.371   6.898   3.114 -0.0653 -0.4995  0.0367
   60MOL   C42731225   0.233   6.559   3.082 -0.0039 -0.1477  0.1175
   60MOL   C42831226   0.280   6.558   3.215 -0.5102 -0.5566 -0.8436
   60MOL   C42931227   0.271   6.441   3.297 -0.3347 -0.0670 -0.6340
   60MOL   C43031228   0.209   6.330   3.243  0.3974 -0.0690 -0.1440
   60MOL   C43131229   0.161   6.331   3.109 -0.3821  0.0451 -0.0440
   60MOL   C43231230   0.173   6.445   3.030 -0.2008  0.7168  0.2071
   60MOL   H43331231   0.554   6.610   3.337 -0.9212  1.0140 -1.5507
   60MOL   H43431232   0.468   6.573   3.487  0.3012 -0.9603 -1.6840
   60MOL   H43531233   0.406   6.834   3.365  1.3492 -0.8939 -0.5498
   60MOL   H43631234   0.150   6.725   2.849  2.4261 -1.3250 -1.4793
   60MOL   H43731235   0.249   6.946   2.808 -0.2091 -0.4613 -0.1640
   60MOL   H43831236   0.395   7.052   2.976  1.0346 -0.4165  1.0345
   60MOL   H43931237   0.433   6.953   3.184  0.0643 -0.0539 -0.4266
   60MOL   H44031238   0.308   6.447   3.398 -2.2547  0.7990  0.0540
   60MOL   H44131239   0.186   6.247   3.308 -2.3738  1.5010  0.9777
   60MOL   H44231240   0.113   6.242   3.071 -0.9183 -0.0870  0.9111
   60MOL   H44331241   0.135   6.444   2.929 -0.9342  0.5104  0.4874
   60MOL   C44431242   0.270   6.714   3.494 -0.1028  0.1456  0.5758
   60MOL   C44531243   0.153   6.815   3.478 -0.2285  0.5595 -0.1232
   60MOL   N44631244   0.042   6.777   3.385 -0.7214 -0.5029 -0.5059
   60MOL   C44731245   8.221   6.851   3.277  0.3313  0.2875  0.4426
   60MOL   C44831246   8.123   6.779   3.202 -0.4526 -0.6757 -0.4602
   60MOL   C44931247   8.068   6.837   3.087  0.0204  0.0815 -0.9082
   60MOL   C45031248   8.100   6.975   3.057  1.0386  1.0983  0.0741
   60MOL   C45131249   8.199   7.044   3.123 -0.5325  0.1597  0.4551
   60MOL   C45231250   0.026   6.984   3.237 -0.6604  0.1034 -0.3343
   60MOL   C45331251   8.114   6.652   3.270 -0.5111  0.3182  0.2927
   60MOL   C45431252   8.194   6.658   3.385 -0.2454 -0.6346  0.1472
   60MOL   C45531253   8.195   6.549   3.474 -0.4467  0.1078  0.2406
   60MOL   C45631254   8.110   6.436   3.455  0.8034  0.5209 -0.3224
   60MOL   C45731255   8.024   6.435   3.345  0.5487 -0.5073  0.1893
   60MOL   C45831256   8.028   6.541   3.250 -0.9222 -0.0990 -0.1987
   60MOL   H45931257   0.233   6.612   3.501  0.6465 -0.1229  0.6818
   60MOL   H46031258   0.321   6.721   3.590 -1.8406  2.6286  1.3530
   60MOL   H46131259   0.196   6.911   3.451 -1.6071  1.2386  0.0574
   60MOL   H46231260   7.993   6.783   3.032 -0.8683  0.5206 -0.1514
   60MOL   H46331261   8.050   7.028   2.977  1.3595  0.9797 -0.2079
   60MOL   H46431262   0.007   7.138   3.082 -0.2537 -0.6777 -1.2848
   60MOL   H46531263   0.105   7.039   3.285 -2.0595  2.3158 -0.4757
   60MOL   H46631264   0.028   6.558   3.563 -1.6545 -1.1873  1.2197
   60MOL   H46731265   8.093   6.372   3.540 -0.3900  0.6462 -0.4578
   60MOL   H46831266   7.952   6.354   3.335 -1.9469  1.9532 -2.9509
   60MOL   H46931267   7.966   6.552   3.162 -0.7441 -1.1767 -0.4677
   60MOL   C47031268   0.094   6.831   3.623 -0.3224 -0.7344 -0.0326
   60MOL   C47131269   8.185   6.895   3.650 -0.2903  0.4788 -0.3968
   60MOL   N47231270   8.140   6.852   3.785 -0.1751 -0.4339  0.4880
   60MOL   C47331271   8.036   6.754   3.809  0.8485  0.1074 -0.4750
   60MOL   C47431272   8.001   6.747   3.952 -0.3057 -0.0536 -0.1200
   60MOL   C47531273   7.898   6.660   3.992  0.4166  0.2625 -0.0308
   60MOL   C47631274   7.822   6.587   3.896  0.8149  0.0351  0.8023
   60MOL   C47731275   7.853   6.591   3.758  0.0963 -0.4232 -0.7164
   60MOL   C47831276   7.959   6.675   3.719 -0.2250 -0.0749 -0.4781
   60MOL   C47931277   8.099   6.842   4.018 -0.9442 -0.4932 -0.3396
   60MOL   C48031278   8.188   6.888   3.911 -0.2434 -0.8564 -0.5734
   60MOL   C48131279   0.071   6.968   3.953  0.0970  0.4410  0.9570
   60MOL   C48231280   0.086   7.005   4.087  0.1105 -0.0470  0.0474
   60MOL   C48331281   0.002   6.963   4.186  0.7504  0.5005 -0.0575
   60MOL   C48431282   8.126   6.875   4.152 -0.1847 -0.0652  0.2786
   60MOL   H48531283   0.082   6.727   3.655  0.9806 -0.6863  0.6583
   60MOL   H48631284   0.171   6.870   3.690 -1.1730  0.4541  0.2613
   60MOL   H48731285   8.110   6.863   3.577 -1.4947  0.3462  0.8831
   60MOL   H48831286   7.866   6.660   4.096  0.7560  3.1379  0.1007
   60MOL   H48931287   7.736   6.525   3.918 -0.1970  1.4832  1.0257
   60MOL   H49031288   7.800   6.537   3.680 -1.5884 -2.0863  1.4840
   60MOL   H49131289   7.987   6.673   3.615 -3.4720 -1.1990 -1.3953
   60MOL   H49231290   0.135   7.014   3.880 -2.9032  2.7990 -0.2551
   60MOL   H49331291   0.168   7.072   4.109 -0.2868  0.6922 -0.6774
   60MOL   H49431292   0.022   6.995   4.287 -0.2008 -1.9027  0.9018
   60MOL   H49531293   8.052   6.837   4.221 -0.2449  0.6300  0.6061
   60MOL   C49631294   8.203   7.050   3.643 -0.4764 -0.0670 -0.3706
   60MOL   C49731295   8.090   7.122   3.730 -0.2588  0.1902  0.0623
   60MOL   N49831296   8.084   7.260   3.693  0.4330 -0.1435  0.1861
   60MOL   C49931297   8.003   7.318   3.589 -0.2806 -0.0627 -0.3737
   60MOL   C50031298   8.024   7.461   3.585  0.2029 -1.1322 -0.2552
   60MOL   C50131299   7.945   7.534   3.489 -0.5834  0.1590  0.3172
   60MOL   C50231300   7.851   7.471   3.403  0.1355  0.1093  0.0773
   60MOL   C50331301   7.835   7.331   3.406 -0.0964  0.4181  0.6519
   60MOL   C50431302   7.913   7.258   3.498  0.1145 -0.1499 -0.0479
   60MOL   C50531303   8.127   7.487   3.686  0.6563  0.5217 -0.2491
   60MOL   C50631304   8.158   7.365   3.752 -0.2420  0.0687  0.6712
   60MOL   C50731305   0.027   7.362   3.851 -0.3228  0.2426  0.0640
   60MOL   C50831306   0.086   7.476   3.907 -0.6108 -0.4214 -0.6402
   60MOL   C50931307   0.049   7.596   3.848 -0.4574  0.0583  0.4128
   60MOL   C51031308   8.191   7.603   3.732  0.7491 -0.1175  0.3735
   60MOL   H51131309   0.068   7.090   3.685 -1.4150  1.2008  0.5217
   60MOL   H51231310   8.204   7.091   3.542 -0.1770 -2.5301 -1.4112
   60MOL   H51331311   8.094   7.110   3.838 -0.4899 -0.3774  0.0090
   60MOL   H51431312   7.948   7.642   3.491  1.0931  0.1166  0.9944
   60MOL   H51531313   7.790   7.533   3.340 -1.5667 -1.1756  0.3995
   60MOL   H51631314   7.771   7.291   3.329 -0.5106  1.7527  0.2878
   60MOL   H51731315   7.903   7.151   3.507 -0.2990 -0.0415  0.8014
   60MOL   H51831316   0.056   7.265   3.889  1.9721 -0.2929 -2.9275
   60MOL   H51931317   0.144   7.478   3.997 -1.9657  1.2035  0.2103
   60MOL   H52031318   0.093   7.684   3.892 -2.4997  0.5240  1.5642
   60MOL   H52131319   8.162   7.698   3.689  0.6731  1.0335  2.8537
   60MOL   H52231320   7.995   7.077   3.704  0.6863 -1.6659 -0.2936
   61MOL     C131321   2.436   0.288   6.889  0.1632  0.2392  0.3426
   61MOL     C231322   2.440   0.441   6.895 -0.6380 -0.2586 -0.2198
   61MOL     N331323   2.473   0.489   7.030 -0.5670 -0.4572 -0.4378
   61MOL     C431324   2.401   0.584   7.100  0.4776  0.0953  0.1583
   61MOL     C531325   2.466   0.619   7.226 -0.2844  0.2484  0.2653
   61MOL     C631326   2.410   0.716   7.311 -0.2937  0.1906  0.7104
   61MOL     C731327   2.291   0.774   7.277  0.3301  0.4669 -0.1689
   61MOL     C831328   2.224   0.737   7.157 -0.2770  0.0439 -0.3336
   61MOL     C931329   2.282   0.641   7.070 -0.2071  0.4761 -0.7806
   61MOL    C1031330   2.584   0.542   7.227 -0.0115 -0.2435 -0.4654
   61MOL    C1131331   2.585   0.459   7.110  0.3957  0.0460 -0.6516
   61MOL    C1231332   2.690   0.368   7.092 -0.5614  0.2100  0.9508
   61MOL    C1331333   2.788   0.352   7.194 -0.4934 -0.2643  0.2772
   61MOL    C1431334   2.802   0.439   7.300 -0.0173  0.4826  0.0322
   61MOL    C1531335   2.692   0.524   7.320  0.4938 -0.6255 -1.4839
   61MOL    H1631336   2.534   0.239   6.889  0.1397  0.1922  0.3605
   61MOL    H1731337   2.389   0.270   6.793 -3.0469 -0.0279  1.9070
   61MOL    H1831338   2.342   0.481   6.870  0.8387  2.3723 -1.9940
   61MOL    H1931339   2.460   0.747   7.401 -1.8222  0.5612  1.4530
   61MOL    H2031340   2.243   0.852   7.334 -1.6187  0.4516 -1.6997
   61MOL    H2131341   2.130   0.779   7.125  0.0166  0.8699 -0.1456
   61MOL    H2231342   2.225   0.614   6.982  0.2646 -0.1082 -0.9112
   61MOL    H2331343   2.692   0.305   7.004 -0.3523  0.3604  0.8447
   61MOL    H2431344   2.863   0.276   7.181  0.9986  1.0204  1.1851
   61MOL    H2531345   2.885   0.425   7.367  0.0950  0.6126 -0.0790
   61MOL    H2631346   2.696   0.593   7.403 -0.2994 -2.4365  0.0877
   61MOL    H2731347   2.374   0.254   6.972 -0.4421  0.4006 -0.0397
   61MOL    C2831348   2.544   0.498   6.800  0.3410  0.0999  0.3303
   61MOL    C2931349   2.520   0.475   6.645 -0.1006 -0.7586 -0.0248
   61MOL    N3031350   2.387   0.465   6.592  0.2606 -0.4185 -0.1179
   61MOL    C3131351   2.351   0.388   6.474 -0.3572 -0.3251  0.0952
   61MOL    C3231352   2.219   0.418   6.434  0.3086  0.5794  0.1257
   61MOL    C3331353   2.166   0.351   6.321 -0.1167 -0.3197 -0.4981
   61MOL    C3431354   2.235   0.250   6.254 -0.2248 -0.0825 -0.2647
   61MOL    C3531355   2.365   0.221   6.296  0.0212  0.2355  0.0407
   61MOL    C3631356   2.422   0.292   6.405 -0.5464  0.7115  0.4441
   61MOL    C3731357   2.175   0.521   6.518 -0.5195 -0.0140  0.5234
   61MOL    C3831358   2.280   0.560   6.607  0.7814 -0.3012  0.2542
   61MOL    C3931359   2.260   0.666   6.695  0.2468  0.2289 -0.1616
   61MOL    C4031360   2.143   0.740   6.693  0.0324  0.7293 -0.1799
   61MOL    C4131361   2.041   0.704   6.600 -0.8113 -0.3284 -0.5950
   61MOL    C4231362   2.062   0.599   6.514 -0.8631  0.1789  0.5791
   61MOL    H4331363   2.559   0.603   6.826 -0.0614  0.2004  0.1584
   61MOL    H4431364   2.635   0.444   6.827 -0.1453  0.3788  2.6083
   61MOL    H4531365   2.562   0.375   6.632  2.5781  0.6206 -2.6046
   61MOL    H4631366   2.060   0.368   6.314 -0.3165 -0.7207  1.3684
   61MOL    H4731367   2.189   0.205   6.168 -2.2790  2.9647 -0.8362
   61MOL    H4831368   2.425   0.148   6.245 -2.0445  0.1672 -2.4069
   61MOL    H4931369   2.527   0.278   6.429 -1.1280 -1.8385  1.6253
   61MOL    H5031370   2.347   0.680   6.758  0.7250 -1.2391 -0.4891
   61MOL    H5131371   2.126   0.823   6.760 -3.3738  0.1232 -0.2080
   61MOL    H5231372   1.948   0.759   6.600  0.4311  1.8869 -2.2760
   61MOL    H5331373   1.986   0.571   6.442 -0.9198  1.0362  0.3024
   61MOL    C5431374   2.594   0.589   6.572  0.4227  0.5842 -1.3233
   61MOL    C5531375   2.744   0.566   6.563  1.3400  0.2616  0.0636
   61MOL    N5631376   2.768   0.435   6.496  0.2335  0.0528 -0.2467
   61MOL    C5731377   2.830   0.324   6.567  0.2070 -0.5818 -0.4365
   61MOL    C5831378   2.853   0.219   6.465  0.1324 -0.3415 -0.5757
   61MOL    C5931379   2.930   0.100   6.496 -0.0465 -0.6258  0.6600
   61MOL    C6031380   2.980   0.083   6.621 -0.4053 -0.0160 -0.5028
   61MOL    C6131381   2.956   0.180   6.720  0.3395  0.0251  0.1971
   61MOL    C6231382   2.881   0.299   6.695 -0.4486 -0.3979  0.4083
   61MOL    C6331383   2.797   0.264   6.341  0.6888  0.2372 -0.9801
   61MOL    C6431384   2.749   0.397   6.361 -0.0465  0.1753  0.0186
   61MOL    C6531385   2.678   0.469   6.256  0.0280 -0.1713 -0.4575
   61MOL    C6631386   2.666   0.408   6.127 -0.3054  0.0300  0.2447
   61MOL    C6731387   2.717   0.275   6.111  0.0268 -0.0135 -0.3725
   61MOL    C6831388   2.774   0.201   6.219  0.2859  0.0325 -0.5188
   61MOL    H6931389   2.549   0.598   6.473  0.0546 -1.5058 -1.3571
   61MOL    H7031390   2.572   0.684   6.620  1.3392  0.2324 -0.1891
   61MOL    H7131391   2.779   0.546   6.664 -1.5313 -0.6662  0.9031
   61MOL    H7231392   2.956   0.027   6.421  0.9912 -0.1562  0.5537
   61MOL    H7331393   3.033   8.222   6.652 -2.5999 -1.4076 -0.6092
   61MOL    H7431394   2.994   0.178   6.820 -3.0337 -1.0825  1.5194
   61MOL    H7531395   2.852   0.369   6.773 -2.9204 -1.5733  0.5916
   61MOL    H7631396   2.645   0.571   6.271  1.0739  0.5536 -2.6977
   61MOL    H7731397   2.629   0.455   6.038  1.2938  1.6883  0.4385
   61MOL    H7831398   2.692   0.235   6.013  1.2332 -1.3921 -0.1424
   61MOL    H7931399   2.797   0.096   6.215 -1.7125 -0.4747  0.6474
   61MOL    C8031400   2.827   0.682   6.519  0.3873  0.3221  0.3439
   61MOL    C8131401   2.805   0.823   6.585  0.5584  0.5624  0.4552
   61MOL    N8231402   2.763   0.821   6.725 -0.1730  0.0579 -0.2591
   61MOL    C8331403   2.650   0.890   6.775 -0.0691 -0.0300 -0.0639
   61MOL    C8431404   2.649   0.878   6.918 -0.0260 -0.5359  1.6438
   61MOL    C8531405   2.537   0.925   6.993 -0.6363 -0.6994 -0.7440
   61MOL    C8631406   2.429   0.993   6.923 -0.4940  0.4034  0.3798
   61MOL    C8731407   2.436   1.015   6.784  0.2894  0.3871  0.6692
   61MOL    C8831408   2.545   0.957   6.712  0.1435 -0.3051 -0.1694
   61MOL    C8931409   2.764   0.809   6.948  0.4479  0.0458 -0.7695
   61MOL    C9031410   2.828   0.763   6.832 -0.1091 -0.4918  0.1061
   61MOL    C9131411   2.942   0.681   6.841  0.0648  0.1684 -0.1708
   61MOL    C9231412   2.987   0.638   6.963 -0.6184 -0.2524  0.2725
   61MOL    C9331413   2.930   0.690   7.082  0.3756  0.1859 -0.2588
   61MOL    C9431414   2.817   0.768   7.069 -0.1068  0.1426 -0.1962
   61MOL    H9531415   2.928   0.642   6.533  0.9423  1.1614 -1.1661
   61MOL    H9631416   2.823   0.703   6.412  2.5569  1.1702  0.3954
   61MOL    H9731417   2.720   0.857   6.526 -0.7565 -1.2562  1.2402
   61MOL    H9831418   2.524   0.911   7.099 -1.7415 -2.0626 -1.0386
   61MOL    H9931419   2.349   1.036   6.982 -0.9472 -1.3164  1.0207
   61MOL   H10031420   2.363   1.073   6.730  1.8712  0.2097 -1.7255
   61MOL   H10131421   2.543   0.980   6.606 -0.6065 -1.3033 -0.3858
   61MOL   H10231422   2.991   0.637   6.755  0.9669 -0.7475  0.8047
   61MOL   H10331423   3.072   0.573   6.977 -1.5621 -1.4881  0.3259
   61MOL   H10431424   2.942   0.642   7.178  0.2500 -1.2368 -0.9457
   61MOL   H10531425   2.761   0.790   7.159 -1.3369  0.9820 -1.1483
   61MOL   C10631426   2.914   0.918   6.551 -0.1236  0.5490  0.0634
   61MOL   C10731427   3.061   0.882   6.591 -0.2118  0.1858 -0.0231
   61MOL   N10831428   3.146   0.865   6.473 -0.1958  0.2630  0.9381
   61MOL   C10931429   3.195   0.748   6.416 -1.1791  0.3366  0.0323
   61MOL   C11031430   3.252   0.779   6.284 -0.5824 -0.0198 -0.3610
   61MOL   C11131431   3.311   0.675   6.215  0.0136  0.6071 -0.7895
   61MOL   C11231432   3.320   0.544   6.262 -0.3762  0.2852 -0.3248
   61MOL   C11331433   3.251   0.516   6.382  0.1418 -0.1313  0.0690
   61MOL   C11431434   3.188   0.612   6.457  0.1300  0.2443  0.0395
   61MOL   C11531435   3.236   0.913   6.267 -0.6794  0.4276  0.4331
   61MOL   C11631436   3.167   0.966   6.379 -0.3974  0.0042  0.1446
   61MOL   C11731437   3.119   1.105   6.379  0.1363 -0.0519 -0.2273
   61MOL   C11831438   3.154   1.189   6.272  0.4849  0.6005  0.0113
   61MOL   C11931439   3.227   1.134   6.164  0.8487 -1.1297 -0.1724
   61MOL   C12031440   3.270   1.002   6.163 -0.3720 -0.2561  0.7092
   61MOL   H12131441   2.919   0.935   6.444 -2.2304  1.1578  0.0463
   61MOL   H12231442   2.881   1.000   6.614 -1.2479  0.5790 -0.5518
   61MOL   H12331443   3.064   0.786   6.643  0.6815 -0.6095 -1.5046
   61MOL   H12431444   3.359   0.689   6.119  1.5305 -3.4517 -0.7346
   61MOL   H12531445   3.378   0.479   6.200  0.0379 -0.3276  0.6882
   61MOL   H12631446   3.264   0.413   6.412 -1.1545 -0.0891  0.8068
   61MOL   H12731447   3.128   0.583   6.542 -0.4792  2.6610  0.4735
   61MOL   H12831448   3.059   1.146   6.459  1.3935 -1.0976  1.2722
   61MOL   H12931449   3.131   1.294   6.266  0.4589  0.5697 -0.4355
   61MOL   H13031450   3.259   1.193   6.079  0.4102  0.5121  0.7668
   61MOL   H13131451   3.319   0.951   6.081  1.1314  0.3968  1.1786
   61MOL   C13231452   3.119   0.979   6.697  0.1705  0.1579  0.2599
   61MOL   C13331453   3.270   0.973   6.736 -0.2486  0.4894 -0.3373
   61MOL   N13431454   3.303   1.085   6.825  0.1488  0.4045  0.1237
   61MOL   C13531455   3.374   1.199   6.793  0.0690 -0.5701 -0.6187
   61MOL   C13631456   3.365   1.295   6.898 -0.0342 -0.5011  0.1212
   61MOL   C13731457   3.418   1.424   6.882 -0.8729 -0.2842  0.7009
   61MOL   C13831458   3.499   1.453   6.768  0.1100  0.7621  0.0648
   61MOL   C13931459   3.511   1.355   6.668  0.3277 -0.8644  0.1906
   61MOL   C14031460   3.448   1.234   6.680 -0.0273 -0.1455  0.4952
   61MOL   C14131461   3.289   1.230   7.008 -0.0269 -0.4814  0.0737
   61MOL   C14231462   3.251   1.104   6.957  0.1053  0.0060 -0.2591
   61MOL   C14331463   3.168   1.016   7.043 -0.2572 -0.8991  0.0345
   61MOL   C14431464   3.136   1.056   7.175  0.8472 -0.0496 -0.3133
   61MOL   C14531465   3.189   1.176   7.223 -0.3147 -0.2359 -0.0163
   61MOL   C14631466   3.263   1.262   7.142  0.5071  0.0062 -0.6654
   61MOL   H14731467   3.096   1.080   6.664  1.6772  0.9147  1.4639
   61MOL   H14831468   3.064   0.966   6.791  0.4259 -0.4402  0.3301
   61MOL   H14931469   3.322   1.001   6.644  1.1809  0.4622  0.4512
   61MOL   H15031470   3.409   1.499   6.958 -0.4532 -0.9057  1.3735
   61MOL   H15131471   3.539   1.550   6.745 -0.1707  0.7321 -0.5657
   61MOL   H15231472   3.566   1.377   6.578 -2.0704  0.1701 -1.0522
   61MOL   H15331473   3.445   1.172   6.592  1.5793 -1.2178  1.1803
   61MOL   H15431474   3.122   0.921   7.023  0.0106 -0.8791 -0.7050
   61MOL   H15531475   3.085   0.988   7.242  1.8989  0.6817  1.2609
   61MOL   H15631476   3.175   1.198   7.327  1.2031 -1.3133  0.4334
   61MOL   H15731477   3.300   1.351   7.189  0.6464 -0.0197 -0.7257
   61MOL   C15831478   3.306   0.832   6.787 -0.3308  0.9174 -0.1426
   61MOL   C15931479   3.448   0.812   6.834 -0.4355 -0.1709 -0.5055
   61MOL   N16031480   3.456   0.699   6.919  0.4609  0.4501  0.4867
   61MOL   C16131481   3.457   0.701   7.059 -0.0821 -0.2236  0.0010
   61MOL   C16231482   3.464   0.568   7.103 -0.1188  0.3499  0.2309
   61MOL   C16331483   3.490   0.546   7.242  0.4612 -0.4880  0.0302
   61MOL   C16431484   3.495   0.651   7.335  1.1054  0.4797 -0.4610
   61MOL   C16531485   3.481   0.784   7.286 -0.7955  0.1990 -0.0467
   61MOL   C16631486   3.457   0.810   7.152 -0.0874  0.0885 -0.0784
   61MOL   C16731487   3.454   0.481   6.987 -0.8945  0.4199  0.1999
   61MOL   C16831488   3.445   0.568   6.877  0.0069 -0.6715  0.3088
   61MOL   C16931489   3.432   0.514   6.745  0.2019  0.4787  0.4430
   61MOL   C17031490   3.431   0.375   6.726  1.3476  0.4006 -0.1355
   61MOL   C17131491   3.439   0.288   6.837 -0.1915 -0.5233 -0.4077
   61MOL   C17231492   3.463   0.345   6.964 -0.2572  0.3031  0.3978
   61MOL   H17331493   3.229   0.807   6.861 -1.2185  1.1332 -0.9844
   61MOL   H17431494   3.285   0.753   6.716 -0.6467  0.2653  0.6629
   61MOL   H17531495   3.462   0.898   6.900  0.9239  0.3514 -1.4617
   61MOL   H17631496   3.507   0.445   7.275  1.6294 -0.2113  0.3082
   61MOL   H17731497   3.518   0.627   7.438 -1.0636 -0.2401 -0.1195
   61MOL   H17831498   3.477   0.859   7.363  3.5984 -1.3705  1.8436
   61MOL   H17931499   3.439   0.909   7.113 -1.3740 -0.3832 -0.7043
   61MOL   H18031500   3.423   0.584   6.664  1.9376  1.5170  1.1137
   61MOL   H18131501   3.425   0.337   6.625  0.9711 -0.1447  0.0889
   61MOL   H18231502   3.444   0.180   6.828  1.7273 -0.5239  0.4690
   61MOL   H18331503   3.479   0.272   7.042  1.0227  1.4460  1.2122
   61MOL   C18431504   3.564   0.825   6.738 -0.2370 -0.6820  0.6919
   61MOL   C18531505   3.675   0.922   6.776 -0.4590 -0.4692 -0.0132
   61MOL   N18631506   3.721   0.899   6.917 -0.5625 -0.0795  0.1408
   61MOL   C18731507   3.720   1.005   7.010 -0.0249  0.3786  0.2277
   61MOL   C18831508   3.766   0.952   7.134 -0.8909 -1.0822  0.6836
   61MOL   C18931509   3.768   1.027   7.253 -0.1422 -0.3714 -0.3014
   61MOL   C19031510   3.741   1.167   7.242 -0.2635 -0.6528 -0.3483
   61MOL   C19131511   3.694   1.221   7.117  0.2347 -0.3666  0.2336
   61MOL   C19231512   3.674   1.141   7.007 -0.4651  0.6964  0.5335
   61MOL   C19331513   3.807   0.820   7.110 -0.4241  0.2565 -0.2079
   61MOL   C19431514   3.780   0.790   6.976  0.1857 -0.3074 -0.4899
   61MOL   C19531515   3.818   0.667   6.919  0.2942  0.0132  0.4429
   61MOL   C19631516   3.866   0.566   7.004  0.0490 -0.8359  0.4254
   61MOL   C19731517   3.879   0.590   7.144  0.8500  0.2252  0.7664
   61MOL   C19831518   3.849   0.711   7.194 -0.7293 -0.2027 -0.3265
   61MOL   H19931519   3.605   0.724   6.730  0.6361 -0.3214  0.5955
   61MOL   H20031520   3.536   0.857   6.638  0.6363 -0.3060  0.5559
   61MOL   H20131521   3.629   1.020   6.773 -1.4546 -1.0011 -4.2068
   61MOL   H20231522   3.812   0.985   7.342 -0.3216  0.2803  0.0979
   61MOL   H20331523   3.750   1.236   7.325  0.5923 -1.7176  0.4539
   61MOL   H20431524   3.660   1.323   7.108  1.1919  0.0365  1.0284
   61MOL   H20531525   3.636   1.186   6.916 -0.9554 -0.1297  0.3241
   61MOL   H20631526   3.783   0.645   6.819  0.9736 -1.2967  0.4818
   61MOL   H20731527   3.884   0.465   6.970  0.5453 -0.4257 -0.5470
   61MOL   H20831528   3.909   0.516   7.216  0.5806 -1.2934 -0.6332
   61MOL   H20931529   3.861   0.729   7.300  0.8887  0.2101 -0.5588
   61MOL   C21031530   3.796   0.924   6.673  0.4848  1.0459  0.0201
   61MOL   C21131531   3.918   1.011   6.711  0.2637  0.0496 -0.1117
   61MOL   N21231532   4.047   0.961   6.669 -0.1722  0.1749  0.4368
   61MOL   C21331533   4.161   0.943   6.738  0.5133  0.5979  0.4944
   61MOL   C21431534   4.272   0.913   6.654 -1.1574 -0.4400 -0.0464
   61MOL   C21531535   4.406   0.902   6.711 -0.4203 -0.1832  0.0775
   61MOL   C21631536   4.417   0.908   6.849  0.1426  0.1424 -0.3442
   61MOL   C21731537   4.314   0.947   6.934  0.1782  0.0215  0.7214
   61MOL   C21831538   4.188   0.970   6.872  0.6010  0.4695  0.9742
   61MOL   C21931539   4.218   0.895   6.523 -0.5278  1.1188 -0.0673
   61MOL   C22031540   4.077   0.921   6.537  0.0559  0.3967 -0.3804
   61MOL   C22131541   3.996   0.909   6.414  0.3083  0.1129  0.0994
   61MOL   C22231542   4.058   0.868   6.295  1.0312 -0.5452 -0.1127
   61MOL   C22331543   4.191   0.827   6.289  0.0154 -0.6058 -0.0613
   61MOL   C22431544   4.275   0.852   6.399 -0.5905 -0.3178 -0.0783
   61MOL   H22531545   3.826   0.822   6.650 -0.1516  0.6994  0.6835
   61MOL   H22631546   3.756   0.966   6.581 -0.5028  1.8666  0.8025
   61MOL   H22731547   3.923   1.018   6.820  2.3995 -0.0528 -0.1966
   61MOL   H22831548   4.491   0.873   6.651  0.8137  0.8395  1.3193
   61MOL   H22931549   4.514   0.886   6.891  0.4725  2.0000 -0.0926
   61MOL   H23031550   4.331   0.968   7.038  2.5537 -0.1898  0.3881
   61MOL   H23131551   4.104   1.005   6.929 -0.4760 -0.7198  0.1637
   61MOL   H23231552   3.895   0.947   6.422  1.0368  2.1522 -0.1030
   61MOL   H23331553   3.995   0.857   6.208  0.9994 -1.4059  0.0050
   61MOL   H23431554   4.239   0.788   6.200 -1.3973 -0.3214 -0.9623
   61MOL   H23531555   4.381   0.829   6.393  0.0944  2.7704 -0.9707
   61MOL   C23631556   3.894   1.160   6.659 -0.7792  1.1651 -0.1552
   61MOL   C23731557   4.014   1.260   6.688 -0.2341 -0.1291  0.0311
   61MOL   N23831558   4.034   1.364   6.589  0.2032  0.9808 -0.2537
   61MOL   C23931559   4.131   1.362   6.492 -0.1250  0.5137  0.3694
   61MOL   C24031560   4.135   1.493   6.434  0.1553  0.2905 -0.3315
   61MOL   C24131561   4.238   1.518   6.338  0.6036  0.1270 -0.8399
   61MOL   C24231562   4.322   1.413   6.291  0.3701 -0.0559  0.5867
   61MOL   C24331563   4.309   1.283   6.344  0.3638  1.1143  1.7682
   61MOL   C24431564   4.218   1.257   6.448  0.4059  0.8652 -0.0663
   61MOL   C24531565   4.029   1.569   6.491  1.1770  0.0220 -0.4189
   61MOL   C24631566   3.962   1.485   6.585 -0.4253 -0.5694 -0.0638
   61MOL   C24731567   3.846   1.521   6.651 -0.6292  0.7849  0.0682
   61MOL   C24831568   3.802   1.655   6.628  0.0321  0.7297 -0.3444
   61MOL   C24931569   3.871   1.742   6.544 -0.5849 -0.5399 -0.0317
   61MOL   C25031570   3.985   1.704   6.473  0.1223  0.2671  0.1308
   61MOL   H25131571   3.897   1.152   6.550  0.2290  1.6025 -0.1659
   61MOL   H25231572   3.796   1.199   6.687 -0.7474 -0.4348  2.3666
   61MOL   H25331573   4.104   1.202   6.672 -0.2210 -0.2293  0.4521
   61MOL   H25431574   4.234   1.612   6.284  3.7756  0.4089 -0.6725
   61MOL   H25531575   4.391   1.434   6.211  1.6001  1.7994  2.0956
   61MOL   H25631576   4.370   1.201   6.307 -1.2649  1.2389 -1.4084
   61MOL   H25731577   4.213   1.155   6.481 -0.5462  0.2695 -2.0047
   61MOL   H25831578   3.789   1.466   6.724  0.6694 -0.0806  0.4404
   61MOL   H25931579   3.733   1.703   6.696  0.3356  0.2545  0.3052
   61MOL   H26031580   3.834   1.844   6.534  0.2050 -0.2183  0.3036
   61MOL   H26131581   4.042   1.766   6.405 -0.8794  0.0169 -0.9720
   61MOL   C26231582   4.010   1.315   6.835 -0.0811  0.0752 -0.3622
   61MOL   C26331583   4.109   1.427   6.868  0.4052  0.1545  0.2997
   61MOL   N26431584   4.079   1.483   7.003 -0.3450  0.2385  0.1273
   61MOL   C26531585   4.040   1.617   7.024 -0.8676  0.0450 -0.3245
   61MOL   C26631586   4.019   1.634   7.161 -0.3855 -0.5956 -0.3125
   61MOL   C26731587   3.998   1.759   7.214 -0.1019  0.4418  0.0062
   61MOL   C26831588   3.989   1.873   7.132 -0.4714  0.2271  0.4064
   61MOL   C26931589   3.994   1.856   6.996  0.0052 -0.6904  0.0318
   61MOL   C27031590   4.028   1.729   6.940  0.1359  0.6470  0.3869
   61MOL   C27131591   4.031   1.508   7.225 -0.1884 -0.5130  0.4452
   61MOL   C27231592   4.072   1.418   7.121  0.0965 -0.4280 -0.4436
   61MOL   C27331593   4.092   1.281   7.151  0.6437 -0.0129  0.0104
   61MOL   C27431594   4.087   1.236   7.287 -0.5138  0.2388 -0.4471
   61MOL   C27531595   4.051   1.326   7.387  0.0574  0.8121  0.0811
   61MOL   C27631596   4.030   1.457   7.356  0.2106 -0.2152  0.0181
   61MOL   H27731597   3.908   1.347   6.856  0.0647  0.5027 -0.2916
   61MOL   H27831598   4.013   1.231   6.904  1.4978  1.4727  1.3240
   61MOL   H27931599   4.094   1.506   6.794 -0.9199 -1.0036 -0.6950
   61MOL   H28031600   3.995   1.775   7.321 -0.7207  0.0937  0.0431
   61MOL   H28131601   3.976   1.971   7.175 -1.3813 -0.2637  1.2812
   61MOL   H28231602   3.960   1.934   6.929 -2.1052 -1.7333 -0.1336
   61MOL   H28331603   4.029   1.718   6.833  0.7925 -1.8251  0.6085
   61MOL   H28431604   4.111   1.210   7.072 -1.0146 -0.5777  0.1023
   61MOL   H28531605   4.097   1.130   7.305 -1.9803  0.1591 -0.0552
   61MOL   H28631606   4.050   1.290   7.488 -0.1733  3.1041  0.9373
   61MOL   H28731607   4.000   1.529   7.431 -0.3635  0.1210 -0.5259
   61MOL   C28831608   4.253   1.380   6.863  0.1455 -0.2458 -0.2368
   61MOL   C28931609   4.366   1.479   6.882  0.2108 -0.1444  0.5495
   61MOL   N29031610   4.496   1.403   6.882 -0.0841  0.4874  0.2914
   61MOL   C29131611   4.578   1.392   6.994  0.1690  0.1633  0.1151
   61MOL   C29231612   4.704   1.351   6.950  0.6781  0.0238 -0.0656
   61MOL   C29331613   4.807   1.346   7.043 -0.0238 -0.3611 -0.3059
   61MOL   C29431614   4.786   1.365   7.181  0.2425  0.5397  0.1876
   61MOL   C29531615   4.660   1.416   7.222 -0.1934 -0.3632 -0.5886
   61MOL   C29631616   4.559   1.431   7.127  0.3350 -0.2654 -0.0510
   61MOL   C29731617   4.694   1.319   6.812 -0.2586  0.2515  0.1475
   61MOL   C29831618   4.560   1.340   6.771  0.2262 -0.0374 -0.3585
   61MOL   C29931619   4.524   1.312   6.639  0.2726 -0.3647  0.3835
   61MOL   C30031620   4.614   1.265   6.540  0.0394  0.4354 -0.0683
   61MOL   C30131621   4.745   1.250   6.587  0.6035 -0.1208  0.1833
   61MOL   C30231622   4.784   1.281   6.718  0.0153 -0.2881  0.4825
   61MOL   H30331623   4.254   1.307   6.944 -1.4194  1.0849  1.0208
   61MOL   H30431624   4.275   1.323   6.773 -1.3201 -1.5077  0.1815
   61MOL   H30531625   4.351   1.517   6.983 -0.8083  3.2259 -0.8032
   61MOL   H30631626   4.899   1.312   6.998 -0.7540 -1.1529 -1.2409
   61MOL   H30731627   4.874   1.344   7.240  1.2316  0.9613 -1.1195
   61MOL   H30831628   4.637   1.440   7.324  0.9258  0.7348 -0.5871
   61MOL   H30931629   4.466   1.479   7.153 -1.5737 -3.2369 -1.0990
   61MOL   H31031630   4.419   1.318   6.614  0.5172 -1.9209 -1.1045
   61MOL   H31131631   4.580   1.237   6.441  2.2246  3.0734 -1.6379
   61MOL   H31231632   4.818   1.219   6.514 -0.6489 -0.2131 -1.0552
   61MOL   H31331633   4.878   1.263   6.769 -0.9289 -2.0999  1.6510
   61MOL   C31431634   4.348   1.597   6.778  0.0015 -0.2294 -0.2132
   61MOL   C31531635   4.456   1.704   6.763 -0.4488 -0.6171 -0.1382
   61MOL   N31631636   4.427   1.787   6.653 -0.4790 -0.1779  0.5724
   61MOL   C31731637   4.476   1.764   6.526  0.3098 -0.1555 -0.0676
   61MOL   C31831638   4.432   1.869   6.441 -0.3953  0.5479  0.0084
   61MOL   C31931639   4.474   1.868   6.303  0.0829  0.2438 -0.0789
   61MOL   C32031640   4.548   1.761   6.250  0.2489 -0.2758 -0.4281
   61MOL   C32131641   4.579   1.654   6.333 -0.5215 -0.0716 -0.3237
   61MOL   C32231642   4.555   1.656   6.474  0.2972 -0.6803 -0.2694
   61MOL   C32331643   4.345   1.956   6.522  0.0803  0.5355  0.4581
   61MOL   C32431644   4.335   1.893   6.650  0.3126  0.1010 -0.4736
   61MOL   C32531645   4.260   1.954   6.752  0.5233 -0.3545  0.0920
   61MOL   C32631646   4.201   2.080   6.732 -0.0586 -1.0052  0.0278
   61MOL   C32731647   4.216   2.147   6.612 -0.0188  0.3944 -0.0579
   61MOL   C32831648   4.274   2.078   6.506  0.0589  0.7387  0.5867
   61MOL   H32931649   4.329   1.545   6.684  0.5660  0.7259 -0.8626
   61MOL   H33031650   4.263   1.657   6.810  0.6112  0.0535  0.8634
   61MOL   H33131651   4.539   1.644   6.727  0.8938 -0.2135  2.1950
   61MOL   H33231652   4.443   1.949   6.239  1.3921  0.4816 -0.4218
   61MOL   H33331653   4.589   1.763   6.149 -1.3473  0.0142 -1.0812
   61MOL   H33431654   4.643   1.575   6.299 -0.2159 -0.8312  1.9180
   61MOL   H33531655   4.595   1.576   6.535 -2.5710 -1.6486  0.3877
   61MOL   H33631656   4.237   1.908   6.847  0.2136  0.3433  0.3529
   61MOL   H33731657   4.161   2.130   6.819  1.4260  1.0366 -0.4167
   61MOL   H33831658   4.174   2.246   6.607  1.2105  0.8642 -1.3773
   61MOL   H33931659   4.269   2.126   6.410 -1.1253  2.0133  1.2659
   61MOL   C34031660   4.506   1.779   6.890  0.6706 -0.1960 -0.5858
   61MOL   C34131661   4.592   1.903   6.860 -0.7251  0.3543  0.1262
   61MOL   N34231662   4.602   2.001   6.975  0.6473 -0.3461 -0.0576
   61MOL   C34331663   4.589   2.135   6.963 -0.0127 -0.4746 -0.0482
   61MOL   C34431664   4.616   2.203   7.086 -0.1528  0.4667 -0.1665
   61MOL   C34531665   4.619   2.343   7.093 -0.4791  0.2216  0.1272
   61MOL   C34631666   4.600   2.426   6.979  0.5246 -0.4917  0.4324
   61MOL   C34731667   4.564   2.355   6.860 -0.0632 -0.6814 -0.0698
   61MOL   C34831668   4.560   2.218   6.851  0.8456  0.3842  0.2899
   61MOL   C34931669   4.626   2.097   7.179  0.9766  0.4813 -0.2776
   61MOL   C35031670   4.627   1.968   7.114 -0.1054 -0.3208 -0.5516
   61MOL   C35131671   4.660   1.852   7.187  0.1601 -0.3533 -0.8741
   61MOL   C35231672   4.678   1.861   7.329 -0.0302 -0.5621 -0.0472
   61MOL   C35331673   4.660   1.984   7.393  0.3166  0.5186 -0.4716
   61MOL   C35431674   4.652   2.102   7.313 -0.3365  0.5481  0.2560
   61MOL   H35531675   4.422   1.807   6.955  1.2054  1.5360 -0.6014
   61MOL   H35631676   4.568   1.715   6.952  0.5399  0.7781  0.5876
   61MOL   H35731677   4.546   1.960   6.779  0.2270 -1.4842 -1.7293
   61MOL   H35831678   4.643   2.391   7.187  0.2026 -1.6533  0.9336
   61MOL   H35931679   4.615   2.533   6.978  0.7153 -0.5054  1.1711
   61MOL   H36031680   4.529   2.408   6.772 -2.2059 -0.8704  0.6518
   61MOL   H36131681   4.523   2.178   6.758 -0.0066 -1.3122  1.3379
   61MOL   H36231682   4.672   1.753   7.146  1.1917 -0.2287 -0.8980
   61MOL   H36331683   4.700   1.768   7.379  0.7112 -0.2601  0.1962
   61MOL   H36431684   4.678   1.989   7.499  0.5885 -0.3445 -0.4691
   61MOL   H36531685   4.654   2.197   7.364  3.0714  1.1589 -0.9620
   61MOL   C36631686   4.731   1.854   6.814 -0.3474 -0.2468 -0.1513
   61MOL   C36731687   4.825   1.955   6.751  0.5264 -0.4065 -0.5642
   61MOL   N36831688   4.970   1.922   6.766  0.0605  0.1939  0.1665
   61MOL   C36931689   5.062   1.999   6.840  0.1018  0.1373 -0.5040
   61MOL   C37031690   5.190   1.934   6.833  0.2861  0.0891 -0.5546
   61MOL   C37131691   5.299   1.985   6.910  0.4780 -0.9975  0.0787
   61MOL   C37231692   5.278   2.105   6.992 -0.6382 -0.2611  0.2902
   61MOL   C37331693   5.158   2.174   6.986  0.2821 -0.1526 -0.0666
   61MOL   C37431694   5.050   2.122   6.909  0.0789  0.1488 -0.1231
   61MOL   C37531695   5.182   1.823   6.756 -0.9706  0.3607 -0.3075
   61MOL   C37631696   5.041   1.816   6.713  0.3203  0.4919 -0.1364
   61MOL   C37731697   5.005   1.704   6.635 -0.5314 -0.2132 -0.2282
   61MOL   C37831698   5.095   1.603   6.595  0.4501 -0.1448  0.2619
   61MOL   C37931699   5.228   1.610   6.641  0.2364  0.4605 -0.4084
   61MOL   C38031700   5.270   1.717   6.726  0.4870  0.3321 -0.1680
   61MOL   H38131701   4.778   1.803   6.898  1.9280 -0.2500 -1.4095
   61MOL   H38231702   4.709   1.784   6.734  0.8245 -1.6311  0.7204
   61MOL   H38331703   4.825   2.051   6.803  1.7686 -1.2049  0.9351
   61MOL   H38431704   5.390   1.927   6.901  0.3424 -0.9839 -1.3400
   61MOL   H38531705   5.356   2.135   7.060 -1.8014  2.5489  0.4342
   61MOL   H38631706   5.134   2.266   7.037 -1.3529  0.3517 -1.7379
   61MOL   H38731707   4.960   2.179   6.892  0.1482 -0.3634 -2.2663
   61MOL   H38831708   4.906   1.713   6.593  0.3408  0.2187 -2.2308
   61MOL   H38931709   5.064   1.521   6.532 -0.7454  0.4055  0.1351
   61MOL   H39031710   5.300   1.538   6.607 -0.1141 -0.4501  0.7771
   61MOL   H39131711   5.369   1.725   6.769 -0.0150  1.5375  0.7881
   61MOL   C39231712   4.776   1.988   6.607  0.1630 -0.4204 -0.2113
   61MOL   C39331713   4.875   2.071   6.525  0.4917 -0.4349  0.2706
   61MOL   N39431714   4.842   2.070   6.382  0.3699 -0.5340  0.0045
   61MOL   C39531715   4.906   1.989   6.290  0.4052 -0.6851 -0.0037
   61MOL   C39631716   4.839   1.994   6.164 -0.3102 -0.2817  0.7026
   61MOL   C39731717   4.882   1.912   6.057 -0.0445 -0.6225 -0.0868
   61MOL   C39831718   4.986   1.816   6.080 -0.1435  0.0345  0.8086
   61MOL   C39931719   5.042   1.797   6.208  0.7802  1.1812 -0.4903
   61MOL   C40031720   4.999   1.881   6.312  0.1269  0.4830 -0.0017
   61MOL   C40131721   4.730   2.091   6.178 -0.1629  0.7314 -0.3300
   61MOL   C40231722   4.731   2.133   6.318 -0.4165  0.2146  0.2611
   61MOL   C40331723   4.632   2.218   6.368  0.2786 -0.0771  0.3214
   61MOL   C40431724   4.528   2.271   6.285  0.2160  0.4927  0.1698
   61MOL   C40531725   4.524   2.232   6.151  0.8050  0.1148  0.5931
   61MOL   C40631726   4.625   2.146   6.097 -0.0528  0.4339 -0.9194
   61MOL   H40731727   4.769   1.896   6.549  1.0160 -0.5371 -0.1342
   61MOL   H40831728   4.679   2.037   6.609 -0.5375 -1.8137  0.5660
   61MOL   H40931729   4.974   2.025   6.533  1.8841  2.1336 -1.6039
   61MOL   H41031730   4.838   1.926   5.959  0.0728  1.4302  0.1429
   61MOL   H41131731   5.021   1.762   5.993 -1.4656  1.4559 -0.6318
   61MOL   H41231732   5.125   1.730   6.223 -1.2530 -1.4088 -0.4426
   61MOL   H41331733   5.045   1.876   6.409  0.0428  1.0727  0.0689
   61MOL   H41431734   4.642   2.251   6.470 -0.8804  0.6778  0.2040
   61MOL   H41531735   4.462   2.343   6.329 -0.5420 -0.4279  0.5702
   61MOL   H41631736   4.450   2.270   6.083 -0.3141  0.1792  1.8144
   61MOL   H41731737   4.613   2.119   5.993 -0.1939 -0.0242 -0.7847
   61MOL   C41831738   4.891   2.215   6.582 -0.2566 -0.4180 -0.7386
   61MOL   C41931739   5.044   2.268   6.570 -0.9019 -0.0203 -0.4940
   61MOL   N42031740   5.097   2.256   6.433  0.0113 -0.0492 -0.5588
   61MOL   C42131741   5.200   2.168   6.394  0.3143 -0.0684  1.3025
   61MOL   C42231742   5.232   2.188   6.253 -0.2480 -0.2598 -0.2393
   61MOL   C42331743   5.335   2.102   6.203 -0.5134 -1.0476  0.3646
   61MOL   C42431744   5.395   1.997   6.276 -0.2334 -0.2731 -0.8753
   61MOL   C42531745   5.357   1.981   6.411  0.5923  0.2183  0.0917
   61MOL   C42631746   5.259   2.067   6.466  0.0654 -0.9297  0.0137
   61MOL   C42731747   5.147   2.297   6.214  0.2452 -0.2250  0.4316
   61MOL   C42831748   5.056   2.318   6.321 -0.6851  0.1183 -0.0827
   61MOL   C42931749   4.953   2.411   6.298 -0.3537  0.0466 -0.4580
   61MOL   C43031750   4.940   2.478   6.176 -0.1633 -0.3852  0.0748
   61MOL   C43131751   5.037   2.458   6.075 -0.7491  0.3875  0.3741
   61MOL   C43231752   5.140   2.366   6.092  0.0117 -0.0301 -0.0308
   61MOL   H43331753   4.824   2.282   6.528 -0.1154 -0.1241 -0.5483
   61MOL   H43431754   4.868   2.223   6.688  2.3568 -1.8393 -0.0221
   61MOL   H43531755   5.093   2.194   6.635 -1.9278 -0.3480 -0.0893
   61MOL   H43631756   5.361   2.108   6.098 -5.6244  1.1567 -0.9303
   61MOL   H43731757   5.476   1.937   6.238 -0.9806 -0.2330 -2.5817
   61MOL   H43831758   5.400   1.901   6.470 -0.9340  0.8291  2.1331
   61MOL   H43931759   5.227   2.041   6.566 -1.5239 -1.1657 -0.5340
   61MOL   H44031760   4.896   2.440   6.385 -1.5423 -0.3921 -1.0825
   61MOL   H44131761   4.854   2.542   6.161  1.6572  1.6112 -2.3828
   61MOL   H44231762   5.024   2.496   5.975 -2.5052 -1.6473 -0.2058
   61MOL   H44331763   5.208   2.339   6.012  1.9122  1.0507  1.1954
   61MOL   C44431764   5.073   2.412   6.631 -0.3214 -0.6904 -0.1505
   61MOL   C44531765   5.217   2.456   6.614 -0.1359 -0.1408 -0.0300
   61MOL   N44631766   5.240   2.601   6.630  0.9563  0.0981  0.1742
   61MOL   C44731767   5.272   2.688   6.523 -0.5373  0.3808 -0.2337
   61MOL   C44831768   5.276   2.821   6.575 -0.1631 -0.0644  0.1507
   61MOL   C44931769   5.303   2.926   6.482 -0.6888  0.0036 -0.5199
   61MOL   C45031770   5.312   2.896   6.346  0.1838 -0.2683 -0.5699
   61MOL   C45131771   5.305   2.765   6.294 -0.4501  0.5524 -0.0465
   61MOL   C45231772   5.290   2.663   6.383  0.5915  0.9808  0.2808
   61MOL   C45331773   5.256   2.814   6.723  0.5755 -0.6142  0.2709
   61MOL   C45431774   5.228   2.672   6.748  0.3321  0.2249 -0.6006
   61MOL   C45531775   5.191   2.631   6.877 -0.1195 -0.4467 -0.3324
   61MOL   C45631776   5.180   2.721   6.983  0.4996  0.5011  0.1511
   61MOL   C45731777   5.209   2.859   6.963  0.7104  0.7906 -0.0247
   61MOL   C45831778   5.249   2.902   6.835  0.0582  0.2174 -0.4348
   61MOL   H45931779   5.022   2.498   6.588 -1.1542 -2.1251 -2.0497
   61MOL   H46031780   5.045   2.403   6.736 -0.1739 -0.6617 -0.1078
   61MOL   H46131781   5.250   2.437   6.512 -1.6268 -1.2167 -0.3210
   61MOL   H46231782   5.304   3.029   6.514  2.2543  0.3113 -1.4717
   61MOL   H46331783   5.331   2.982   6.283 -0.3932  1.0614  1.0514
   61MOL   H46431784   5.315   2.749   6.188 -2.3885  1.1072 -0.3335
   61MOL   H46531785   5.293   2.564   6.339  0.0377  0.2247  1.8796
   61MOL   H46631786   5.169   2.525   6.887  0.7481 -0.7597 -1.5207
   61MOL   H46731787   5.162   2.692   7.086 -0.8139  2.3861  0.4907
   61MOL   H46831788   5.203   2.940   7.034 -2.1266  1.6882 -1.2177
   61MOL   H46931789   5.263   3.006   6.810  2.7758  0.2311  1.0024
   61MOL   C47031790   5.316   2.373   6.701  0.9932  0.2359  0.3976
   61MOL   C47131791   5.464   2.401   6.676  0.9421 -0.1845  0.3280
   61MOL   N47231792   5.556   2.352   6.777  0.2633 -0.5312  0.7323
   61MOL   C47331793   5.596   2.425   6.883  0.0789 -0.3592  0.4354
   61MOL   C47431794   5.672   2.351   6.971  0.0133 -0.0006  0.2747
   61MOL   C47531795   5.731   2.415   7.081  0.7204  0.4981 -0.1136
   61MOL   C47631796   5.723   2.553   7.102 -1.0067 -0.5682 -0.3508
   61MOL   C47731797   5.641   2.623   7.016  0.4080  0.5311 -0.0419
   61MOL   C47831798   5.577   2.564   6.902 -0.4116  0.5917 -0.0918
   61MOL   C47931799   5.686   2.223   6.919 -0.6955 -0.3941  0.0136
   61MOL   C48031800   5.602   2.224   6.804  0.4014 -0.0333  0.1904
   61MOL   C48131801   5.590   2.105   6.732 -0.9868  0.1429  1.0010
   61MOL   C48231802   5.657   1.985   6.765  0.0347  0.0282  0.4049
   61MOL   C48331803   5.750   1.987   6.875 -0.1368  0.3548  0.0687
   61MOL   C48431804   5.762   2.108   6.951 -0.1207 -0.1440  0.6968
   61MOL   H48531805   5.295   2.388   6.807  0.4531 -0.9313  0.4697
   61MOL   H48631806   5.294   2.268   6.682  4.1890 -0.8623  2.4272
   61MOL   H48731807   5.462   2.510   6.671 -0.3157 -0.2599 -1.0706
   61MOL   H48831808   5.786   2.352   7.148  0.2288  1.1521  0.9158
   61MOL   H48931809   5.773   2.603   7.183 -0.0490 -1.2612 -0.5187
   61MOL   H49031810   5.637   2.729   7.033  0.7077  0.6297 -0.5734
   61MOL   H49131811   5.526   2.626   6.830 -0.6985  0.7255  0.2204
   61MOL   H49231812   5.528   2.114   6.644  2.5140  1.4182 -1.4611
   61MOL   H49331813   5.647   1.899   6.701  0.5646  0.7523 -0.6717
   61MOL   H49431814   5.795   1.893   6.903 -2.0683 -0.5365  0.2389
   61MOL   H49531815   5.836   2.125   7.029 -0.4535  0.3413  0.9096
   61MOL   C49631816   5.502   2.365   6.530 -0.0256  0.3462  0.0308
   61MOL   C49731817   5.653   2.368   6.499  0.0573 -0.5802  0.6487
   61MOL   N49831818   5.672   2.340   6.355  1.3482  0.9597  0.5651
   61MOL   C49931819   5.704   2.221   6.295 -0.5137 -0.0201  0.0796
   61MOL   C50031820   5.686   2.236   6.153 -0.1115 -0.1201 -0.2853
   61MOL   C50131821   5.704   2.121   6.072  0.0031 -0.4609 -0.2291
   61MOL   C50231822   5.737   1.999   6.130 -0.4030  0.2699  0.4117
   61MOL   C50331823   5.748   1.984   6.266  0.0026  0.2665 -0.3159
   61MOL   C50431824   5.737   2.097   6.346  0.8600 -0.5621 -0.3882
   61MOL   C50531825   5.660   2.370   6.125  0.0211  0.2605  0.1423
   61MOL   C50631826   5.649   2.431   6.252  0.0869  0.5873  0.3287
   61MOL   C50731827   5.606   2.560   6.265  0.0577 -0.7911 -0.1083
   61MOL   C50831828   5.582   2.642   6.150 -0.0373 -0.1939  0.1913
   61MOL   C50931829   5.595   2.585   6.023 -0.2608 -0.6977  0.4269
   61MOL   C51031830   5.632   2.451   6.009  0.0838 -1.3668 -0.4956
   61MOL   H51131831   5.463   2.269   6.494 -1.6332  1.2065 -0.5822
   61MOL   H51231832   5.448   2.439   6.471  0.7314  0.3860 -0.6146
   61MOL   H51331833   5.708   2.295   6.558  0.5148 -1.6277 -1.0324
   61MOL   H51431834   5.692   2.112   5.965  1.3143  0.5282 -0.4823
   61MOL   H51531835   5.748   1.905   6.077  1.5365  0.3397  0.6521
   61MOL   H51631836   5.761   1.887   6.311 -3.2920 -0.9837 -1.8998
   61MOL   H51731837   5.745   2.077   6.452 -0.7067  1.5964  0.1782
   61MOL   H51831838   5.595   2.602   6.364  0.0733  2.2206 -1.3508
   61MOL   H51931839   5.547   2.743   6.160 -1.4317 -0.7120  0.6138
   61MOL   H52031840   5.572   2.642   5.934 -1.9923  0.8377  1.8144
   61MOL   H52131841   5.635   2.407   5.910  0.8043  0.1874 -1.1700
   61MOL   H52231842   5.688   2.469   6.520  0.3048  0.1525 -2.8985
   62MOL     C131843   0.161   3.281   5.150  0.0578  0.1923 -0.1138
   62MOL     C231844   0.125   3.281   5.303 -0.1680 -0.6624  0.3749
   62MOL     N331845   0.028   3.175   5.346 -0.4268  0.0134  0.4324
   62MOL     C431846   8.142   3.201   5.417 -0.5288 -0.0208 -0.6637
   62MOL     C531847   8.077   3.077   5.445 -0.2752  0.1132 -0.3973
   62MOL     C631848   7.960   3.081   5.527 -0.2897 -0.0101  0.8076
   62MOL     C731849   7.909   3.205   5.578  0.7986 -0.4018  0.0608
   62MOL     C831850   7.969   3.325   5.538 -0.5663  0.6735 -0.4897
   62MOL     C931851   8.085   3.323   5.462 -0.5194 -0.0309  1.7137
   62MOL    C1031852   8.143   2.979   5.369 -0.4564 -0.3052 -0.8231
   62MOL    C1131853   0.030   3.036   5.316  0.8592  0.6682 -0.1733
   62MOL    C1231854   0.128   2.961   5.257 -0.3248  0.1750  0.1651
   62MOL    C1331855   0.107   2.820   5.227 -0.0694  0.1247 -1.0039
   62MOL    C1431856   8.208   2.763   5.261  0.4833 -0.0509  0.5121
   62MOL    C1531857   8.117   2.840   5.336  0.5189  0.2147 -0.3567
   62MOL    H1631858   0.258   3.238   5.124 -0.1757  0.1626 -0.9368
   62MOL    H1731859   0.174   3.388   5.135 -0.9815  0.2778 -0.4684
   62MOL    H1831860   0.076   3.376   5.322 -2.0651 -1.2773 -1.1810
   62MOL    H1931861   7.911   2.990   5.557 -0.7546 -0.0137  0.0267
   62MOL    H2031862   7.815   3.216   5.631  0.8678  1.0209 -0.1114
   62MOL    H2131863   7.922   3.417   5.568 -0.9093  0.5595 -0.6771
   62MOL    H2231864   8.131   3.421   5.457  2.1087 -1.3405 -1.8066
   62MOL    H2331865   0.221   3.002   5.224  0.1983  0.0298  1.4236
   62MOL    H2431866   0.186   2.759   5.185  3.0027  2.1810  1.5173
   62MOL    H2531867   8.185   2.660   5.235  0.0272 -0.2415  1.6451
   62MOL    H2631868   8.021   2.799   5.365 -0.3440  2.8729  0.6390
   62MOL    H2731869   0.079   3.238   5.092  1.1616  0.0364 -1.5773
   62MOL    C2831870   0.257   3.268   5.384 -0.0637  0.1944  0.3784
   62MOL    C2931871   0.352   3.387   5.368 -0.0219  0.2118 -0.4784
   62MOL    N3031872   0.291   3.516   5.360  0.3362  0.2910  0.3371
   62MOL    C3131873   0.210   3.573   5.457  0.9884 -0.3113  0.0788
   62MOL    C3231874   0.168   3.707   5.415 -0.0406  0.2029 -0.5663
   62MOL    C3331875   0.085   3.786   5.495 -0.2171 -0.9529  0.0362
   62MOL    C3431876   0.030   3.725   5.608  0.7199 -0.0016 -0.3483
   62MOL    C3531877   0.075   3.604   5.659  0.1102 -0.2927  0.8233
   62MOL    C3631878   0.168   3.529   5.587 -0.6592  0.1572  0.5868
   62MOL    C3731879   0.234   3.724   5.284 -0.2820  0.1725 -0.9618
   62MOL    C3831880   0.299   3.600   5.252  0.3731 -0.1621 -0.1253
   62MOL    C3931881   0.373   3.588   5.131  0.4796  0.3663 -0.5764
   62MOL    C4031882   0.371   3.691   5.044  0.3174  0.2176  0.0960
   62MOL    C4131883   0.296   3.810   5.065  0.1106  0.8915 -0.3836
   62MOL    C4231884   0.233   3.826   5.190  0.5272  0.2687 -0.1756
   62MOL    H4331885   0.235   3.254   5.490 -0.7146 -0.5856  0.1522
   62MOL    H4431886   0.314   3.183   5.348 -0.8997  1.0906 -3.3114
   62MOL    H4531887   0.400   3.368   5.272 -1.5907 -3.7009 -0.5682
   62MOL    H4631888   0.039   3.873   5.451 -0.8168 -1.0429  0.4791
   62MOL    H4731889   8.172   3.766   5.659  0.6445  0.3268 -0.7419
   62MOL    H4831890   0.042   3.570   5.756  2.0178  1.5504  2.1691
   62MOL    H4931891   0.199   3.432   5.623 -0.3285 -0.1900 -0.6102
   62MOL    H5031892   0.429   3.496   5.125  1.8829  1.3082 -2.6800
   62MOL    H5131893   0.427   3.677   4.953 -0.3745  0.1132 -0.3186
   62MOL    H5231894   0.304   3.888   4.991 -1.7820  1.3087 -0.1913
   62MOL    H5331895   0.184   3.920   5.209 -2.7563 -1.4635  0.3391
   62MOL    C5431896   0.458   3.402   5.480  0.1820  0.3597  0.6564
   62MOL    C5531897   0.582   3.308   5.463  1.0414  0.3612 -0.8870
   62MOL    N5631898   0.633   3.296   5.330  0.1562 -0.8767 -0.6945
   62MOL    C5731899   0.638   3.179   5.254 -0.7464  0.7230  0.2168
   62MOL    C5831900   0.676   3.212   5.123 -0.1073 -0.2728  0.3266
   62MOL    C5931901   0.689   3.113   5.027  0.9366  0.7660 -0.3110
   62MOL    C6031902   0.667   2.975   5.050 -0.2294 -0.1514  0.5926
   62MOL    C6131903   0.619   2.942   5.181  0.4303 -0.2617 -0.2463
   62MOL    C6231904   0.603   3.043   5.282  0.2569 -0.2905  0.8236
   62MOL    C6331905   0.707   3.351   5.123  0.0110  0.1214  0.3608
   62MOL    C6431906   0.682   3.399   5.253 -0.9948 -0.3334  0.0303
   62MOL    C6531907   0.694   3.535   5.280 -0.6357 -0.3525 -0.0278
   62MOL    C6631908   0.733   3.626   5.186 -0.0713  0.5152  0.1216
   62MOL    C6731909   0.760   3.581   5.057  0.4603  0.7003  0.5213
   62MOL    C6831910   0.745   3.445   5.027  0.0589  0.8766  1.2788
   62MOL    H6931911   0.494   3.503   5.493 -2.6268  1.2459  1.8477
   62MOL    H7031912   0.411   3.387   5.577  1.6200 -0.2855  1.2743
   62MOL    H7131913   0.546   3.209   5.491  1.6327 -0.0025 -1.3890
   62MOL    H7231914   0.730   3.145   4.932  0.0835 -1.3297 -1.4164
   62MOL    H7331915   0.665   2.901   4.972 -1.8844  0.5259 -0.0269
   62MOL    H7431916   0.591   2.838   5.196  2.0132 -0.8361 -1.1692
   62MOL    H7531917   0.560   3.013   5.376  1.1838  0.8248  1.6213
   62MOL    H7631918   0.671   3.576   5.377  2.1376 -2.8395  1.7939
   62MOL    H7731919   0.733   3.731   5.209  1.6328  0.8325 -1.1321
   62MOL    H7831920   0.783   3.654   4.981  1.9822  0.2130  0.5080
   62MOL    H7931921   0.750   3.409   4.925 -2.1275 -1.4727  1.9275
   62MOL    C8031922   0.695   3.341   5.567 -0.0396  0.0466  0.2560
   62MOL    C8131923   0.659   3.337   5.723  0.0863 -0.0437  0.5878
   62MOL    N8231924   0.543   3.252   5.757 -0.3438  0.3616 -0.5953
   62MOL    C8331925   0.419   3.293   5.819 -0.2225 -0.0628  0.0797
   62MOL    C8431926   0.324   3.186   5.817  0.0635 -0.5054 -0.2593
   62MOL    C8531927   0.198   3.210   5.875  0.0218  0.0475  0.3410
   62MOL    C8631928   0.172   3.331   5.939 -0.0016 -0.3023  0.2056
   62MOL    C8731929   0.262   3.438   5.946 -0.3754 -0.1751 -0.3456
   62MOL    C8831930   0.387   3.419   5.879 -0.2072  0.4630  0.8619
   62MOL    C8931931   0.391   3.075   5.758 -0.5227  0.5267 -0.2358
   62MOL    C9031932   0.528   3.113   5.731  0.3248 -0.7200  0.1570
   62MOL    C9131933   0.616   3.020   5.674 -1.4676 -0.2903 -0.1914
   62MOL    C9231934   0.576   2.888   5.647 -0.5680 -0.4929  0.0855
   62MOL    C9331935   0.445   2.841   5.678  0.0736 -0.0808 -0.1245
   62MOL    C9431936   0.352   2.939   5.730  0.1383  0.6015 -0.7828
   62MOL    H9531937   0.770   3.264   5.548  1.1986  0.7685  2.0581
   62MOL    H9631938   0.741   3.436   5.541 -1.1001 -0.2671 -3.0309
   62MOL    H9731939   0.620   3.439   5.733  0.4779  0.3583 -1.7921
   62MOL    H9831940   0.121   3.134   5.876 -0.5373  0.5801 -0.9146
   62MOL    H9931941   0.077   3.342   5.990 -0.3237 -0.3858 -0.3706
   62MOL   H10031942   0.251   3.528   6.004  2.7848  0.5678 -0.8473
   62MOL   H10131943   0.445   3.509   5.868 -0.4332  0.4283 -0.6432
   62MOL   H10231944   0.716   3.046   5.643 -1.4917 -2.1112 -1.9023
   62MOL   H10331945   0.649   2.820   5.605  1.9797  0.9756  2.0040
   62MOL   H10431946   0.414   2.740   5.655  0.8962 -0.3230 -0.1813
   62MOL   H10531947   0.251   2.921   5.764 -0.1040  2.1728 -0.6219
   62MOL   C10631948   0.774   3.329   5.824 -0.5437  0.1476 -0.2734
   62MOL   C10731949   0.860   3.455   5.813 -1.0029 -0.3170  1.4221
   62MOL   N10831950   0.797   3.571   5.872  0.0303  0.4982 -0.3685
   62MOL   C10931951   0.749   3.685   5.803 -0.8123 -0.8559 -0.2783
   62MOL   C11031952   0.695   3.781   5.899 -0.8722 -0.3437  0.2807
   62MOL   C11131953   0.656   3.910   5.848  0.3862  0.4036  0.4585
   62MOL   C11231954   0.647   3.941   5.713  0.1403  0.4728  0.5445
   62MOL   C11331955   0.712   3.850   5.625 -0.1914  0.0315 -0.0488
   62MOL   C11431956   0.763   3.726   5.666 -0.6582  0.2466 -0.0931
   62MOL   C11531957   0.700   3.716   6.023  0.7711  0.5400  0.1243
   62MOL   C11631958   0.761   3.590   6.007 -0.8235  0.4326  0.0100
   62MOL   C11731959   0.782   3.510   6.125 -0.8163 -0.2326  0.5198
   62MOL   C11831960   0.734   3.550   6.253 -0.4253  0.6648 -1.0947
   62MOL   C11931961   0.677   3.679   6.267 -0.0599  0.6393 -0.2890
   62MOL   C12031962   0.659   3.761   6.151  0.1122  0.5454 -0.0872
   62MOL   H12131963   0.733   3.326   5.925 -1.5209 -0.7873 -0.6806
   62MOL   H12231964   0.835   3.238   5.819 -0.4626  0.2350 -0.9109
   62MOL   H12331965   0.881   3.475   5.708  0.1903 -1.0558  1.5092
   62MOL   H12431966   0.626   3.984   5.921  0.2785  1.4080 -0.5894
   62MOL   H12531967   0.620   4.037   5.672 -1.0378 -0.2490 -0.3951
   62MOL   H12631968   0.717   3.871   5.519 -3.3563 -0.1049 -0.2665
   62MOL   H12731969   0.810   3.664   5.591 -1.7399  1.0550 -1.4743
   62MOL   H12831970   0.823   3.411   6.122 -1.1673 -0.3913  0.8973
   62MOL   H12931971   0.746   3.487   6.341 -0.0426  0.6410 -1.1613
   62MOL   H13031972   0.648   3.721   6.363 -0.8433  0.5105 -0.4654
   62MOL   H13131973   0.628   3.863   6.168 -2.7620  0.2380 -3.0551
   62MOL   C13231974   0.994   3.435   5.884  0.6008 -0.1208 -0.1638
   62MOL   C13331975   1.092   3.326   5.821 -0.1633 -0.1448  0.6916
   62MOL   N13431976   1.078   3.307   5.681  0.3518  0.4724 -0.5035
   62MOL   C13531977   1.039   3.188   5.618  0.2376  0.4644 -0.0179
   62MOL   C13631978   1.012   3.215   5.480  0.2449 -0.1598  0.0024
   62MOL   C13731979   0.958   3.113   5.404  0.1495 -0.2689  0.3522
   62MOL   C13831980   0.935   2.982   5.462 -1.3420 -0.8762 -0.8489
   62MOL   C13931981   0.971   2.955   5.599 -0.3400 -0.6409  0.4516
   62MOL   C14031982   1.027   3.057   5.672  0.2892 -0.6696  0.2771
   62MOL   C14131983   1.045   3.358   5.455  0.1445 -0.3595  0.4301
   62MOL   C14231984   1.086   3.406   5.582  0.0891  0.2919  0.6188
   62MOL   C14331985   1.130   3.539   5.591  1.0815  0.7478 -0.1305
   62MOL   C14431986   1.125   3.626   5.485  0.6714 -0.1311  0.3775
   62MOL   C14531987   1.072   3.590   5.360 -0.3035  0.1690  0.2295
   62MOL   C14631988   1.042   3.456   5.348 -0.0866 -0.1806 -0.3507
   62MOL   H14731989   1.046   3.530   5.893  0.9647 -0.3671  0.3115
   62MOL   H14831990   0.979   3.392   5.983  0.4753  1.5047  0.5235
   62MOL   H14931991   1.082   3.230   5.871  1.5851 -0.2826  0.8056
   62MOL   H15031992   0.935   3.131   5.300 -0.6702 -1.4630  0.3068
   62MOL   H15131993   0.887   2.903   5.406 -0.0662 -2.0006 -0.3762
   62MOL   H15231994   0.964   2.855   5.640  3.1120 -1.1443  0.0263
   62MOL   H15331995   1.052   3.035   5.775 -0.3974 -0.1551  0.5576
   62MOL   H15431996   1.141   3.573   5.693  0.9714  1.1843 -0.2638
   62MOL   H15531997   1.155   3.729   5.494  2.1413 -0.7012  2.2543
   62MOL   H15631998   1.071   3.660   5.279 -0.9530  1.9772  1.7702
   62MOL   H15731999   1.023   3.422   5.247 -1.0244  0.2054 -0.3139
   62MOL   C15832000   1.233   3.350   5.858  0.4281  0.1103 -0.5001
   62MOL   C15932001   1.265   3.334   6.006 -0.5252 -0.7947 -0.2735
   62MOL   N16032002   1.240   3.200   6.059 -0.0944  0.2025  0.4680
   62MOL   C16132003   1.136   3.170   6.149 -0.3284  0.5455 -0.2259
   62MOL   C16232004   1.140   3.031   6.182  0.0728 -0.1906 -0.1689
   62MOL   C16332005   1.032   2.981   6.263 -0.2660  0.0553 -0.0964
   62MOL   C16432006   0.956   3.067   6.341 -0.2181 -0.7027  0.6737
   62MOL   C16532007   0.957   3.207   6.317  0.0116 -0.4511 -0.1514
   62MOL   C16632008   1.046   3.258   6.219  0.0966 -0.0448  0.5119
   62MOL   C16732009   1.253   2.973   6.118  0.4568  0.0867  0.0689
   62MOL   C16832010   1.312   3.079   6.048  0.8954  0.0744 -0.4536
   62MOL   C16932011   1.429   3.048   5.972 -0.0872 -0.1489  0.1074
   62MOL   C17032012   1.478   2.911   5.960  0.5938 -0.7533  0.0811
   62MOL   C17132013   1.414   2.812   6.031  0.7021 -0.0090  0.8496
   62MOL   C17232014   1.299   2.839   6.106  0.8024 -0.3341  0.1274
   62MOL   H17332015   1.296   3.287   5.795  0.9657  0.9394 -0.8036
   62MOL   H17432016   1.251   3.453   5.825  0.4814 -0.3895 -2.0411
   62MOL   H17532017   1.197   3.403   6.056 -0.2799 -1.4924  1.0224
   62MOL   H17632018   1.030   2.874   6.280 -2.5593 -0.0558 -0.9689
   62MOL   H17732019   0.898   3.031   6.425 -0.5680 -2.0397 -0.1218
   62MOL   H17832020   0.890   3.263   6.381  1.3840  1.6799 -0.5350
   62MOL   H17932021   1.050   3.363   6.197 -0.6400  0.2378  1.6856
   62MOL   H18032022   1.486   3.126   5.923 -1.5603 -0.2139 -1.7777
   62MOL   H18132023   1.577   2.901   5.916  0.9750  1.2041  0.4811
   62MOL   H18232024   1.446   2.709   6.030 -0.1945 -0.2920  1.0172
   62MOL   H18332025   1.242   2.764   6.159 -2.6730  3.8295  2.5717
   62MOL   C18432026   1.404   3.389   6.046  0.2511  0.6812  0.6412
   62MOL   C18532027   1.423   3.545   6.032  0.8329  0.3387 -0.1510
   62MOL   N18632028   1.320   3.623   6.100  0.6827 -0.2063  0.3531
   62MOL   C18732029   1.233   3.715   6.039 -0.0164  0.9401 -0.4720
   62MOL   C18832030   1.127   3.744   6.124  0.2309 -0.2754  0.1190
   62MOL   C18932031   1.027   3.829   6.077  0.0014  0.5948  0.1757
   62MOL   C19032032   1.037   3.889   5.948  0.1396  1.2467  0.6165
   62MOL   C19132033   1.141   3.861   5.861 -0.3569  0.4325 -0.0476
   62MOL   C19232034   1.235   3.765   5.903 -0.0358 -0.7580  0.5035
   62MOL   C19332035   1.152   3.684   6.250 -0.1720 -0.0999  0.5299
   62MOL   C19432036   1.271   3.599   6.234  0.0269 -0.6311  0.2180
   62MOL   C19532037   1.310   3.512   6.338  0.0350 -0.0066  0.1560
   62MOL   C19632038   1.257   3.526   6.464 -0.5590  0.6125  0.4983
   62MOL   C19732039   1.147   3.608   6.493  0.7853  0.0148  0.4169
   62MOL   C19832040   1.103   3.697   6.385  0.5162  0.6705  0.0162
   62MOL   H19932041   1.432   3.344   6.141  0.9527  0.0674  0.1533
   62MOL   H20032042   1.481   3.343   5.983  0.1984  3.1730 -1.3421
   62MOL   H20132043   1.400   3.572   5.929  1.1527  2.1447  0.2363
   62MOL   H20232044   0.940   3.857   6.134 -0.8095 -2.5431  0.5210
   62MOL   H20332045   0.953   3.946   5.911 -1.0931 -1.3697 -0.7085
   62MOL   H20432046   1.155   3.895   5.760  2.9655  0.0175  0.2465
   62MOL   H20532047   1.315   3.737   5.836 -0.1331 -1.6971  0.7656
   62MOL   H20632048   1.393   3.444   6.334  0.2803  0.2330  1.0500
   62MOL   H20732049   1.288   3.454   6.538  0.5509  1.8956  1.3026
   62MOL   H20832050   1.092   3.618   6.585 -0.3566 -1.7175 -0.0575
   62MOL   H20932051   1.015   3.758   6.402 -0.1228  0.4298 -2.2672
   62MOL   C21032052   1.566   3.593   6.076  0.0759 -0.1532  0.1222
   62MOL   C21132053   1.688   3.537   6.005  0.2031 -0.7478 -0.1296
   62MOL   N21232054   1.657   3.531   5.860 -0.1443  0.3464  0.4012
   62MOL   C21332055   1.670   3.413   5.780 -0.1876  0.0930 -0.2408
   62MOL   C21432056   1.596   3.436   5.661 -0.0723 -0.1346  0.7820
   62MOL   C21532057   1.555   3.321   5.585  0.5283  0.3082 -0.4457
   62MOL   C21632058   1.598   3.195   5.619  0.0428 -0.5130  0.5160
   62MOL   C21732059   1.689   3.182   5.724 -0.2104  0.5772  0.5091
   62MOL   C21832060   1.725   3.286   5.808 -0.5162 -0.1741 -0.5699
   62MOL   C21932061   1.564   3.574   5.656  0.8198  0.4298  0.4987
   62MOL   C22032062   1.610   3.631   5.776 -0.3049 -0.5108  0.6383
   62MOL   C22132063   1.597   3.770   5.801 -0.2774 -0.3453  0.1758
   62MOL   C22232064   1.529   3.851   5.711 -0.4325  0.0022 -0.0695
   62MOL   C22332065   1.483   3.796   5.587  0.0540 -0.1291 -0.0331
   62MOL   C22432066   1.505   3.660   5.565  0.5240  0.0215  0.4941
   62MOL   H22532067   1.572   3.702   6.066  0.7629 -0.2262 -0.2544
   62MOL   H22632068   1.580   3.586   6.184  0.8446  1.4366  0.1467
   62MOL   H22732069   1.693   3.436   6.047 -1.6679  0.0188  2.0056
   62MOL   H22832070   1.499   3.336   5.494 -0.0504 -0.3517 -0.2025
   62MOL   H22932071   1.558   3.106   5.574 -1.4285 -0.5596  1.8656
   62MOL   H23032072   1.716   3.081   5.750 -0.1330  0.1373 -1.2239
   62MOL   H23132073   1.765   3.258   5.904  0.2965  0.6754 -0.6476
   62MOL   H23232074   1.621   3.807   5.899 -0.6726 -2.2737  1.0057
   62MOL   H23332075   1.503   3.952   5.738  1.5236  0.7595 -0.9680
   62MOL   H23432076   1.439   3.854   5.508  0.2038 -0.5073 -0.3942
   62MOL   H23532077   1.468   3.625   5.470  1.9120 -0.4683  0.1244
   62MOL   C23632078   1.820   3.619   6.034  0.7817  0.0461 -0.6801
   62MOL   C23732079   1.888   3.595   6.172  0.0870  0.0222 -0.8009
   62MOL   N23832080   1.935   3.460   6.176  0.1422  0.2363 -0.4488
   62MOL   C23932081   1.888   3.360   6.264 -0.1341 -0.4944  0.0458
   62MOL   C24032082   1.966   3.241   6.251  0.4420  0.4935  0.3449
   62MOL   C24132083   1.960   3.142   6.344  0.0698  0.4966  0.1858
   62MOL   C24232084   1.870   3.151   6.452 -0.4129 -0.6240 -0.4263
   62MOL   C24332085   1.783   3.259   6.459  0.4524 -0.2424  0.5272
   62MOL   C24432086   1.788   3.363   6.362  0.1290  0.0470  0.1644
   62MOL   C24532087   2.052   3.270   6.137  0.2249 -0.2378 -0.6844
   62MOL   C24632088   2.037   3.402   6.099 -0.1249 -0.3391 -0.4338
   62MOL   C24732089   2.119   3.452   5.996  0.7553  0.6586 -0.1268
   62MOL   C24832090   2.211   3.368   5.929 -0.2735 -0.0292  1.0512
   62MOL   C24932091   2.216   3.230   5.965  0.0302 -0.6046 -0.3933
   62MOL   C25032092   2.151   3.185   6.078  0.1526  0.4313  0.8373
   62MOL   H25132093   1.892   3.594   5.956  0.0652  0.0744 -1.3541
   62MOL   H25232094   1.808   3.723   6.005  0.4890  0.1103 -0.3267
   62MOL   H25332095   1.801   3.598   6.238  2.3984  2.1208  2.3111
   62MOL   H25432096   2.031   3.062   6.334  2.8854  2.9977 -0.6154
   62MOL   H25532097   1.874   3.080   6.534 -0.5768 -1.1947 -0.9100
   62MOL   H25632098   1.710   3.259   6.539 -0.3208 -0.3367 -0.1641
   62MOL   H25732099   1.721   3.447   6.375 -1.8393 -1.0428 -2.4611
   62MOL   H25832100   2.119   3.550   5.950  1.1690 -0.4275 -2.4739
   62MOL   H25932101   2.283   3.405   5.859 -0.3561 -0.2563  0.8443
   62MOL   H26032102   2.285   3.160   5.922 -0.8127 -1.1203 -0.9204
   62MOL   H26132103   2.167   3.087   6.120 -0.2435  1.2547  3.0249
   62MOL   C26232104   1.995   3.691   6.227 -0.5764  0.1114  0.4751
   62MOL   C26332105   1.942   3.833   6.244  0.5587 -0.0667  0.0136
   62MOL   N26432106   1.797   3.850   6.262 -0.1630  0.7630 -0.3327
   62MOL   C26532107   1.702   3.920   6.174  1.0290  0.8062  0.0808
   62MOL   C26632108   1.572   3.905   6.236  0.0838  0.2202  0.0485
   62MOL   C26732109   1.464   3.966   6.173 -0.3793  0.1741  0.5110
   62MOL   C26832110   1.480   4.035   6.054 -0.2771  0.0490 -0.0374
   62MOL   C26932111   1.603   4.044   5.989 -0.0892 -0.3454  0.7075
   62MOL   C27032112   1.717   3.992   6.050 -0.6790  0.4802 -0.0403
   62MOL   C27132113   1.584   3.832   6.358  0.6164 -0.3677 -0.3316
   62MOL   C27232114   1.723   3.798   6.371 -0.2175 -0.5329 -0.7167
   62MOL   C27332115   1.755   3.716   6.485 -0.1448 -0.3785  0.5630
   62MOL   C27432116   1.660   3.676   6.576  0.2574  0.0716 -0.1963
   62MOL   C27532117   1.524   3.710   6.565 -0.1244 -0.0976  0.0901
   62MOL   C27632118   1.490   3.797   6.461 -0.4211  0.0115  0.4179
   62MOL   H27732119   2.019   3.655   6.327 -0.5887 -3.5362 -0.7383
   62MOL   H27832120   2.087   3.693   6.168 -1.8574 -1.4989 -1.6977
   62MOL   H27932121   1.964   3.890   6.153 -1.4272  1.6823  0.5798
   62MOL   H28032122   1.370   3.943   6.221  1.0446 -0.2523  3.2475
   62MOL   H28132123   1.388   4.067   6.008 -0.6500  2.2434  2.0880
   62MOL   H28232124   1.604   4.090   5.891 -3.2707  1.3991  1.4108
   62MOL   H28332125   1.813   3.987   6.001 -0.6972  0.7580 -0.1035
   62MOL   H28432126   1.854   3.678   6.507  0.5626  2.5388  2.8084
   62MOL   H28532127   1.680   3.599   6.650 -3.2432 -1.8418 -1.1453
   62MOL   H28632128   1.450   3.681   6.638 -1.7521  2.1824 -0.5849
   62MOL   H28732129   1.392   3.838   6.440  0.4477  1.4633 -0.9701
   62MOL   C28832130   2.029   3.902   6.342 -0.2070 -0.4899 -0.2435
   62MOL   C28932131   1.999   4.058   6.358 -0.2687  0.2164  0.7876
   62MOL   N29032132   1.986   4.093   6.498  0.2812 -0.0855 -0.4006
   62MOL   C29132133   1.865   4.114   6.571 -0.1078 -0.3448 -0.1369
   62MOL   C29232134   1.888   4.160   6.701  0.2625 -0.2156 -0.2297
   62MOL   C29332135   1.778   4.208   6.777  0.1549 -0.1433 -0.0835
   62MOL   C29432136   1.647   4.192   6.732 -0.1015  0.1062  0.3575
   62MOL   C29532137   1.629   4.137   6.608  0.6832 -0.0936 -0.3548
   62MOL   C29632138   1.735   4.101   6.523 -0.5626  0.0304 -1.1876
   62MOL   C29732139   2.033   4.148   6.718 -0.4043  0.3325  0.7655
   62MOL   C29832140   2.089   4.113   6.592  0.0154  0.0528 -0.0484
   62MOL   C29932141   2.226   4.081   6.577  0.2423 -0.0801  0.7285
   62MOL   C30032142   2.315   4.102   6.685 -0.1359  0.4356  0.5608
   62MOL   C30132143   2.258   4.124   6.811  0.0613  0.3792 -0.2681
   62MOL   C30232144   2.123   4.165   6.823 -0.3696  0.1731 -0.4735
   62MOL   H30332145   2.012   3.845   6.433 -2.2564 -0.5452 -0.6224
   62MOL   H30432146   2.133   3.896   6.309  0.4200 -1.0880  1.7847
   62MOL   H30532147   1.899   4.085   6.323  0.6932  2.1176 -0.5963
   62MOL   H30632148   1.784   4.263   6.870  0.3566 -0.3281  0.0141
   62MOL   H30732149   1.562   4.211   6.796 -1.3754  0.3375 -1.3573
   62MOL   H30832150   1.527   4.118   6.577  0.2482 -0.2990  1.1808
   62MOL   H30932151   1.718   4.060   6.425 -1.4086  0.7154 -1.3313
   62MOL   H31032152   2.280   4.073   6.484 -0.6334 -0.8295  0.2884
   62MOL   H31132153   2.421   4.080   6.679 -0.3154 -0.5529  0.8693
   62MOL   H31232154   2.325   4.125   6.896 -0.9314 -1.1246  0.5587
   62MOL   H31332155   2.089   4.188   6.922 -1.1067  0.6510 -0.8346
   62MOL   C31432156   2.092   4.142   6.271 -0.4261  0.3591  0.4359
   62MOL   C31532157   2.023   4.248   6.172  0.0907 -0.3048  0.1620
   62MOL   N31632158   1.933   4.339   6.246  0.9567  0.0655 -0.0647
   62MOL   C31732159   1.807   4.363   6.197 -0.3795  0.3394  0.1094
   62MOL   C31832160   1.739   4.453   6.279 -0.4968  0.5110 -0.2148
   62MOL   C31932161   1.613   4.504   6.242  0.0088  0.5167 -0.1194
   62MOL   C32032162   1.559   4.472   6.118  0.0975 -0.3132 -0.0439
   62MOL   C32132163   1.625   4.382   6.034  0.0190  0.5166  0.5229
   62MOL   C32232164   1.746   4.323   6.071  0.8112 -0.0276 -0.4497
   62MOL   C32332165   1.824   4.496   6.386 -0.0202  0.0726 -0.1791
   62MOL   C32432166   1.943   4.423   6.361 -0.2488 -0.0266 -0.1701
   62MOL   C32532167   2.052   4.442   6.453  0.9906  0.3417 -0.4312
   62MOL   C32632168   2.036   4.519   6.569  0.6051 -0.5635 -0.5147
   62MOL   C32732169   1.916   4.588   6.591  0.3445  0.0514 -0.0263
   62MOL   C32832170   1.813   4.581   6.499 -1.1056  0.6444  0.4141
   62MOL   H32932171   2.178   4.187   6.322  0.6240 -1.1438  0.0307
   62MOL   H33032172   2.157   4.075   6.214  0.6783  2.5276 -0.8976
   62MOL   H33132173   1.958   4.183   6.112 -0.1092  1.3852 -1.5274
   62MOL   H33232174   1.558   4.576   6.300 -2.1186 -0.6954 -0.5844
   62MOL   H33332175   1.469   4.515   6.076 -0.1065 -0.3874  0.3100
   62MOL   H33432176   1.576   4.348   5.944  1.5096 -2.1368  0.6660
   62MOL   H33532177   1.804   4.253   6.013  0.6793 -1.4501  1.1006
   62MOL   H33632178   2.140   4.380   6.449  1.1573  0.3540  2.5038
   62MOL   H33732179   2.116   4.513   6.643  0.0670  0.9615  0.2039
   62MOL   H33832180   1.904   4.647   6.681  1.2096  0.4328 -0.1524
   62MOL   H33932181   1.722   4.637   6.510  0.0301  2.6020  0.0505
   62MOL   C34032182   2.135   4.321   6.091 -0.7912  0.3829  0.2817
   62MOL   C34132183   2.194   4.234   5.971  0.5446  0.3120  0.4106
   62MOL   N34232184   2.089   4.213   5.872 -0.0017 -0.0210  0.2983
   62MOL   C34332185   2.032   4.086   5.846  1.1320 -0.2321  0.4408
   62MOL   C34432186   1.938   4.098   5.740 -0.2501 -0.2810 -0.4414
   62MOL   C34532187   1.869   3.974   5.697  0.1983 -0.5990  0.6056
   62MOL   C34632188   1.900   3.857   5.759  1.2771  0.2568  0.5909
   62MOL   C34732189   2.001   3.840   5.854 -0.1821  0.6406  0.3443
   62MOL   C34832190   2.062   3.960   5.894 -0.2917 -0.0091 -0.2069
   62MOL   C34932191   1.925   4.236   5.700 -0.8997  0.2161 -0.6687
   62MOL   C35032192   2.019   4.304   5.791 -0.3130  0.0175  0.2132
   62MOL   C35132193   2.017   4.449   5.791  0.4123  0.3231 -0.1542
   62MOL   C35232194   1.940   4.516   5.693 -0.7072 -1.3202  0.2735
   62MOL   C35332195   1.851   4.444   5.610 -0.3408  0.3673  0.4360
   62MOL   C35432196   1.838   4.302   5.618 -0.4237  0.2124  0.3534
   62MOL   H35532197   2.095   4.416   6.055  0.3027  1.7160  2.4753
   62MOL   H35632198   2.211   4.331   6.169 -1.7179 -2.0476  1.5674
   62MOL   H35732199   2.221   4.145   6.027  0.4760  0.5612  0.8482
   62MOL   H35832200   1.791   3.973   5.623 -0.6928  0.2581  1.5067
   62MOL   H35932201   1.845   3.768   5.730 -2.2511  2.3896  0.3438
   62MOL   H36032202   2.041   3.747   5.891 -0.0539  1.3410  2.0247
   62MOL   H36132203   2.142   3.955   5.967 -0.8147 -0.1570  0.3558
   62MOL   H36232204   2.082   4.513   5.848 -0.2334 -0.9008  1.9997
   62MOL   H36332205   1.949   4.623   5.694  0.9480 -1.4170 -1.1979
   62MOL   H36432206   1.789   4.488   5.533  0.7750  0.0476 -0.6745
   62MOL   H36532207   1.759   4.247   5.569  0.0806 -1.4023  1.3382
   62MOL   C36632208   2.322   4.288   5.906 -0.1954  0.4182 -0.3797
   62MOL   C36732209   2.450   4.208   5.949  0.9680 -0.2935 -0.0400
   62MOL   N36832210   2.433   4.060   5.950  0.1615  0.5610  0.1748
   62MOL   C36932211   2.439   3.974   6.066 -0.5454  0.3948  0.5060
   62MOL   C37032212   2.397   3.847   6.030 -0.0907  0.3710 -0.0251
   62MOL   C37132213   2.375   3.747   6.127  0.6954  0.2598  0.0374
   62MOL   C37232214   2.391   3.780   6.264  0.1426 -0.6248  0.5816
   62MOL   C37332215   2.447   3.894   6.304  0.8037 -0.8246 -0.3826
   62MOL   C37432216   2.470   3.999   6.205  0.1437  0.4468 -0.2518
   62MOL   C37532217   2.385   3.846   5.885 -0.1940  0.4264  0.3078
   62MOL   C37632218   2.389   3.979   5.840  0.1536 -0.1769 -0.1166
   62MOL   C37732219   2.377   4.006   5.699 -0.1389  0.1319  0.7625
   62MOL   C37832220   2.348   3.900   5.612  0.5818 -0.6620 -0.2117
   62MOL   C37932221   2.344   3.768   5.652 -0.0819  0.1666  0.6187
   62MOL   C38032222   2.357   3.739   5.793  0.1406 -0.0953  0.1814
   62MOL   H38132223   2.327   4.292   5.797  0.3989 -0.4184 -0.3902
   62MOL   H38232224   2.328   4.394   5.931  1.4369 -0.0383  1.3597
   62MOL   H38332225   2.466   4.235   6.053  1.0095 -2.4933  0.5579
   62MOL   H38432226   2.332   3.656   6.091  1.0621  0.1444 -0.1119
   62MOL   H38532227   2.363   3.708   6.340  0.8679 -1.8941 -0.3260
   62MOL   H38632228   2.463   3.910   6.409  1.5078 -0.3383 -0.5605
   62MOL   H38732229   2.487   4.101   6.235 -0.9288  0.5039  0.1686
   62MOL   H38832230   2.386   4.105   5.657 -1.5409  0.0045  0.1448
   62MOL   H38932231   2.324   3.914   5.507  0.0689  1.3946  0.1568
   62MOL   H39032232   2.311   3.698   5.577  2.2471  0.5261 -0.8021
   62MOL   H39132233   2.347   3.638   5.832 -3.1424 -0.9379 -2.6292
   62MOL   C39232234   2.585   4.239   5.876 -0.3362 -0.1454 -0.0592
   62MOL   C39332235   2.714   4.174   5.932  0.2212 -0.4435  0.0478
   62MOL   N39432236   2.805   4.176   5.819 -0.6451 -0.7360  0.3397
   62MOL   C39532237   2.798   4.085   5.711  0.4542  0.1765  0.1246
   62MOL   C39632238   2.891   4.125   5.613  0.1035  0.6085 -0.0519
   62MOL   C39732239   2.897   4.057   5.489  0.4408 -1.0127 -0.6904
   62MOL   C39832240   2.819   3.943   5.465 -0.0951  0.1901  0.2869
   62MOL   C39932241   2.730   3.895   5.569 -0.9059  0.0555 -0.0932
   62MOL   C40032242   2.725   3.968   5.692 -0.7153  0.2572 -0.1906
   62MOL   C40132243   2.959   4.242   5.656  0.6298 -0.2303 -0.2093
   62MOL   C40232244   2.897   4.275   5.779 -0.0154 -0.3088 -0.0560
   62MOL   C40332245   2.945   4.389   5.852  0.1870 -0.2894 -0.4154
   62MOL   C40432246   3.043   4.471   5.791  0.8036 -0.0917 -0.6709
   62MOL   C40532247   3.077   4.451   5.659 -0.4175 -0.2873 -0.5819
   62MOL   C40632248   3.053   4.330   5.595  0.3375  0.5925 -0.3471
   62MOL   H40732249   2.571   4.215   5.771  1.5705 -0.6429 -0.2112
   62MOL   H40832250   2.602   4.346   5.887 -0.2469 -0.3821  2.4175
   62MOL   H40932251   2.698   4.067   5.946  0.1519 -0.2525  1.5488
   62MOL   H41032252   2.960   4.091   5.408 -1.3289  0.2230 -1.5702
   62MOL   H41132253   2.821   3.887   5.372  1.6969 -2.3893  1.7947
   62MOL   H41232254   2.669   3.808   5.549 -1.4236  0.5974 -0.9161
   62MOL   H41332255   2.658   3.940   5.772  0.1025 -0.9542  0.0834
   62MOL   H41432256   2.915   4.417   5.952  1.5381 -0.0200 -0.0782
   62MOL   H41532257   3.088   4.558   5.837  1.4264 -0.0670 -1.3065
   62MOL   H41632258   3.140   4.514   5.598 -0.2625  0.6386  0.5228
   62MOL   H41732259   3.088   4.302   5.496  2.8988  0.5980  0.5101
   62MOL   C41832260   2.763   4.221   6.071 -0.2280 -0.2471 -0.2826
   62MOL   C41932261   2.880   4.155   6.146  0.0908 -0.5042  0.7395
   62MOL   N42032262   2.833   4.038   6.221  1.0054  0.1525  0.0367
   62MOL   C42132263   2.812   4.042   6.358  0.3921 -0.4678 -0.0378
   62MOL   C42232264   2.781   3.911   6.407  0.6858  0.0198  0.3696
   62MOL   C42332265   2.750   3.886   6.542 -0.2886 -0.2646 -0.6205
   62MOL   C42432266   2.752   3.989   6.632  0.5464  0.6945  0.4119
   62MOL   C42532267   2.777   4.122   6.588 -0.6154  0.2815 -0.2103
   62MOL   C42632268   2.811   4.146   6.452  0.2255  0.3267 -0.0743
   62MOL   C42732269   2.772   3.828   6.289  0.0104 -0.2242 -0.1436
   62MOL   C42832270   2.820   3.904   6.175 -0.3237  0.0346 -0.2083
   62MOL   C42932271   2.830   3.844   6.047 -0.2404  0.4637 -0.4020
   62MOL   C43032272   2.815   3.706   6.043 -0.9312 -0.2514 -0.1771
   62MOL   C43132273   2.762   3.631   6.151 -0.4573 -1.0502  0.4583
   62MOL   C43232274   2.726   3.698   6.268 -0.0857 -0.2920 -0.2686
   62MOL   H43332275   2.772   4.329   6.080 -0.5079 -0.4378  3.0023
   62MOL   H43432276   2.679   4.200   6.138 -1.4151  0.8202 -1.4072
   62MOL   H43532277   2.914   4.226   6.222  0.9210 -0.0589 -0.0419
   62MOL   H43632278   2.717   3.790   6.579  0.3264 -0.1502  0.2260
   62MOL   H43732279   2.724   3.973   6.735  0.2214  0.5296  0.2982
   62MOL   H43832280   2.772   4.204   6.658 -2.8553  0.3969 -0.4630
   62MOL   H43932281   2.832   4.249   6.424  0.1365  0.3085 -0.2070
   62MOL   H44032282   2.857   3.895   5.956 -1.3638 -2.0811 -2.2357
   62MOL   H44132283   2.837   3.664   5.947  0.1116  0.7739 -0.3972
   62MOL   H44232284   2.750   3.526   6.126  0.1583 -1.1337  0.5028
   62MOL   H44332285   2.690   3.649   6.357 -1.5969  0.4599 -0.4589
   62MOL   C44432286   3.009   4.122   6.068  0.0621 -0.0812  0.4569
   62MOL   C44532287   3.119   4.051   6.151 -1.0520  0.1639  0.1760
   62MOL   N44632288   3.233   4.031   6.064  0.4427 -0.4131  0.1566
   62MOL   C44732289   3.273   3.901   6.020  0.3584  0.1128 -0.3637
   62MOL   C44832290   3.388   3.914   5.945  0.3930 -0.0046 -0.7435
   62MOL   C44932291   3.452   3.793   5.899  0.0483 -0.3109 -0.2126
   62MOL   C45032292   3.398   3.666   5.930  0.2022  0.1656  0.5593
   62MOL   C45132293   3.287   3.654   6.009  0.3133  0.4458 -0.4119
   62MOL   C45232294   3.222   3.772   6.057 -0.1650 -0.1250 -0.0782
   62MOL   C45332295   3.417   4.056   5.931  0.2386 -0.2648 -0.2658
   62MOL   C45432296   3.323   4.128   6.007 -0.1235 -0.3136  0.6191
   62MOL   C45532297   3.330   4.268   6.021  1.4243 -0.3630  0.2911
   62MOL   C45632298   3.422   4.339   5.939  0.4269  0.1875 -0.1051
   62MOL   C45732299   3.515   4.268   5.860 -0.0908 -0.0711 -0.0488
   62MOL   C45832300   3.515   4.130   5.857 -0.5936 -0.2078  0.5695
   62MOL   H45932301   2.981   4.064   5.980 -0.4348  1.2634 -0.2933
   62MOL   H46032302   3.056   4.213   6.029 -2.1675  0.5106 -0.9809
   62MOL   H46132303   3.093   3.947   6.171 -0.7643  0.3885  1.7482
   62MOL   H46232304   3.539   3.821   5.841  1.4979  0.8481  2.4732
   62MOL   H46332305   3.461   3.579   5.914 -1.1781 -0.4891 -1.4617
   62MOL   H46432306   3.257   3.558   6.050 -3.4512  2.2679  1.3140
   62MOL   H46532307   3.150   3.755   6.136  0.5196 -2.3324  0.1000
   62MOL   H46632308   3.259   4.316   6.087  3.2658  1.0840  1.2645
   62MOL   H46732309   3.425   4.447   5.930  0.4309  0.1949 -0.0107
   62MOL   H46832310   3.593   4.324   5.811 -0.2631 -1.0947 -1.5286
   62MOL   H46932311   3.598   4.083   5.807  1.2915  3.4832  0.0781
   62MOL   C47032312   3.160   4.107   6.287  0.8284 -0.5247 -0.1035
   62MOL   C47132313   3.306   4.066   6.339  0.1088 -0.2078 -0.2442
   62MOL   N47232314   3.341   4.163   6.444  0.3950  0.6936  0.0380
   62MOL   C47332315   3.441   4.258   6.428 -0.3652 -0.0248  0.7439
   62MOL   C47432316   3.461   4.335   6.544  0.4357  0.1105  0.2679
   62MOL   C47532317   3.564   4.433   6.542 -0.1153  0.3742  0.4219
   62MOL   C47632318   3.646   4.458   6.428  0.2946  0.6260  0.6216
   62MOL   C47732319   3.626   4.385   6.311  0.7007 -0.9095  0.9528
   62MOL   C47832320   3.529   4.285   6.309  0.0121  0.4132  0.1552
   62MOL   C47932321   3.365   4.294   6.630  0.6712  0.3065 -0.2617
   62MOL   C48032322   3.280   4.192   6.568 -0.7641  0.7975 -0.4167
   62MOL   C48132323   3.168   4.141   6.621 -0.3237  0.5322 -0.5308
   62MOL   C48232324   3.138   4.176   6.753  0.0598 -0.2615 -0.0956
   62MOL   C48332325   3.218   4.271   6.821  0.8296 -0.3663  0.4726
   62MOL   C48432326   3.327   4.331   6.760 -0.6550 -0.0296  0.7566
   62MOL   H48532327   3.143   4.215   6.281 -2.0763 -0.8661  1.3220
   62MOL   H48632328   3.084   4.081   6.361 -0.5713 -1.3329 -1.8070
   62MOL   H48732329   3.375   4.086   6.256 -0.8240  1.4987 -0.6140
   62MOL   H48832330   3.578   4.499   6.626 -0.7761  0.2732  0.6126
   62MOL   H48932331   3.724   4.533   6.424  0.8317  0.0205 -0.4437
   62MOL   H49032332   3.671   4.415   6.218 -1.1429  0.9547  0.6226
   62MOL   H49132333   3.524   4.231   6.216 -0.9574  1.3505 -0.3420
   62MOL   H49232334   3.116   4.067   6.562  0.0937  0.0003 -0.2379
   62MOL   H49332335   3.053   4.125   6.796  0.5196  0.5332  1.8221
   62MOL   H49432336   3.191   4.300   6.922  3.1370 -1.1627  1.3442
   62MOL   H49532337   3.379   4.407   6.816 -0.4773  0.0173  0.5306
   62MOL   C49632338   3.314   3.923   6.399  0.3434 -0.8170  0.5398
   62MOL   C49732339   3.452   3.884   6.452 -0.4065 -0.2512  0.5320
   62MOL   N49832340   3.449   3.765   6.537  0.2337 -0.6041 -0.4129
   62MOL   C49932341   3.467   3.761   6.677  0.4077 -0.6618  0.3058
   62MOL   C50032342   3.426   3.631   6.722  0.0900  0.1359  0.0697
   62MOL   C50132343   3.417   3.613   6.862 -0.2445  0.2731  0.0019
   62MOL   C50232344   3.455   3.712   6.955 -0.5363 -0.1998 -0.1563
   62MOL   C50332345   3.498   3.842   6.906 -0.7152 -0.0567  0.6406
   62MOL   C50432346   3.501   3.863   6.769 -0.1605  0.0675  0.2454
   62MOL   C50532347   3.400   3.554   6.599  0.3046 -0.0005 -0.2559
   62MOL   C50632348   3.425   3.634   6.489  0.2586  0.3753  0.6700
   62MOL   C50732349   3.411   3.590   6.354 -0.1670  0.0621  0.4984
   62MOL   C50832350   3.375   3.453   6.334 -0.4080 -0.3235  0.3916
   62MOL   C50932351   3.356   3.370   6.444 -0.5825  0.5472  0.2186
   62MOL   C51032352   3.365   3.419   6.574 -0.2417  0.2626  0.3853
   62MOL   H51132353   3.256   3.908   6.490  1.0616 -2.0571  0.8012
   62MOL   H51232354   3.261   3.852   6.335  2.5363 -1.6281 -0.4313
   62MOL   H51332355   3.503   3.966   6.503  0.3364 -0.5634  0.3004
   62MOL   H51432356   3.385   3.517   6.899  0.2745 -0.9103 -2.5142
   62MOL   H51532357   3.444   3.698   7.061  3.7504  0.2101  0.4213
   62MOL   H51632358   3.517   3.918   6.980  1.9109 -0.3315  0.3038
   62MOL   H51732359   3.526   3.960   6.727  0.2495  0.7745  2.0700
   62MOL   H51832360   3.415   3.665   6.276 -2.4736 -0.3204 -0.0371
   62MOL   H51932361   3.381   3.405   6.237  3.4766  0.8623 -0.0417
   62MOL   H52032362   3.342   3.264   6.423 -0.3477  0.9014 -1.8259
   62MOL   H52132363   3.363   3.355   6.660 -1.8962  2.2908  1.9218
   62MOL   H52232364   3.521   3.869   6.368  2.5661 -0.3428  2.8951
   63MOL     C132365   0.697   1.437   6.015 -0.3612 -0.6170  0.5177
   63MOL     C232366   0.740   1.368   6.148  0.4781  1.0528  0.3508
   63MOL     N332367   0.638   1.295   6.219  0.3655 -0.5896  0.2732
   63MOL     C432368   0.568   1.322   6.337 -0.5585 -0.1848  0.5519
   63MOL     C532369   0.476   1.219   6.374 -0.4540 -0.2907  0.3391
   63MOL     C632370   0.410   1.224   6.497 -0.8036 -0.2281 -1.0359
   63MOL     C732371   0.414   1.347   6.577  0.7217  1.0629 -0.6622
   63MOL     C832372   0.503   1.448   6.536  0.2161  0.4646 -0.3509
   63MOL     C932373   0.584   1.433   6.426  0.2869 -0.4990 -0.3424
   63MOL    C1032374   0.485   1.121   6.263 -0.8224  0.4090 -0.3733
   63MOL    C1132375   0.574   1.176   6.168  0.5215  0.4883 -0.1939
   63MOL    C1232376   0.602   1.108   6.046  0.0265 -0.1539  0.0321
   63MOL    C1332377   0.538   0.988   6.028  0.3548 -0.2437 -0.3396
   63MOL    C1432378   0.461   0.927   6.128  0.6135 -0.4461 -0.2368
   63MOL    C1532379   0.426   0.993   6.242  0.2279  0.3776  0.2697
   63MOL    H1632380   0.775   1.504   5.981  0.1176 -0.9255  1.0023
   63MOL    H1732381   0.619   1.510   6.039  0.9054  0.8739  0.1613
   63MOL    H1832382   0.756   1.458   6.207 -0.2152  2.8186 -2.0681
   63MOL    H1932383   0.346   1.143   6.528 -2.0921  0.7649 -1.0212
   63MOL    H2032384   0.361   1.359   6.670  2.4502  0.1534  0.4580
   63MOL    H2132385   0.518   1.534   6.600 -1.8639  0.4630  0.1721
   63MOL    H2232386   0.658   1.509   6.408  0.2612 -0.0961  1.2327
   63MOL    H2332387   0.671   1.133   5.967 -0.3706  0.9934  0.0388
   63MOL    H2432388   0.558   0.932   5.939 -0.0716 -0.9008 -0.0246
   63MOL    H2532389   0.411   0.832   6.120  0.8606 -0.7236  1.3328
   63MOL    H2632390   0.361   0.959   6.322  1.1495  1.4620  1.5082
   63MOL    H2732391   0.668   1.371   5.933  0.3495  0.7643 -0.8627
   63MOL    C2832392   0.869   1.285   6.128  0.3275  0.0843  0.2010
   63MOL    C2932393   0.974   1.319   6.232 -0.8352  0.4122  0.1938
   63MOL    N3032394   1.046   1.197   6.269 -0.0584  0.0462  0.0156
   63MOL    C3132395   1.051   1.149   6.404  0.0211  0.2475  0.5140
   63MOL    C3232396   1.137   1.035   6.410  0.1934 -0.2670 -0.3436
   63MOL    C3332397   1.157   0.972   6.529 -0.9194  0.1282 -0.0152
   63MOL    C3432398   1.104   1.029   6.647 -0.5409  1.0391 -0.5393
   63MOL    C3532399   1.036   1.150   6.645  0.3198 -0.0965  0.0634
   63MOL    C3632400   1.002   1.203   6.522  0.7267 -0.2670  0.7963
   63MOL    C3732401   1.199   1.018   6.282 -0.6905 -1.5299  0.0573
   63MOL    C3832402   1.137   1.113   6.195 -0.0246  0.5268 -0.1404
   63MOL    C3932403   1.168   1.132   6.061 -0.2549  0.2640  0.0954
   63MOL    C4032404   1.262   1.041   6.006 -0.3083  0.2566 -0.0215
   63MOL    C4132405   1.321   0.937   6.085  0.2843 -0.7281  0.2190
   63MOL    C4232406   1.289   0.924   6.224 -0.8790 -0.5984 -0.6665
   63MOL    H4332407   0.840   1.180   6.134 -2.0757  0.5996 -1.5650
   63MOL    H4432408   0.915   1.302   6.031 -0.7027  3.4567  0.2338
   63MOL    H4532409   0.924   1.357   6.321  0.4920  0.1650  1.0662
   63MOL    H4632410   1.216   0.882   6.535  0.9537  1.3547  0.2306
   63MOL    H4732411   1.116   0.988   6.746 -0.8159  1.3667 -0.3683
   63MOL    H4832412   0.992   1.182   6.739  1.0796  3.4610 -0.7352
   63MOL    H4932413   0.943   1.293   6.509 -0.6947 -1.1268  1.0975
   63MOL    H5032414   1.120   1.207   5.999  1.8759  2.3928  0.9072
   63MOL    H5132415   1.279   1.053   5.900 -1.3914 -0.5696 -0.2827
   63MOL    H5232416   1.394   0.872   6.040  2.2771  0.9977  0.8672
   63MOL    H5332417   1.322   0.838   6.280  0.3525 -0.8148 -1.6990
   63MOL    C5432418   1.077   1.423   6.184  0.4884  0.8389  0.4553
   63MOL    C5532419   1.029   1.568   6.183 -0.1182  0.2428 -0.3764
   63MOL    N5632420   0.950   1.607   6.301  0.0676  0.2912 -0.5255
   63MOL    C5732421   0.836   1.693   6.300  0.6616  0.0241  0.4853
   63MOL    C5832422   0.797   1.733   6.430  0.4746  0.1911  0.5376
   63MOL    C5932423   0.694   1.833   6.441  0.0063  0.2271 -0.2707
   63MOL    C6032424   0.632   1.882   6.327  0.4423 -0.5109 -0.0168
   63MOL    C6132425   0.667   1.831   6.202 -0.2845  0.2978 -0.5849
   63MOL    C6232426   0.768   1.741   6.188 -0.1622 -0.6399 -0.1304
   63MOL    C6332427   0.883   1.652   6.520  0.3890  0.3367 -0.6086
   63MOL    C6432428   0.980   1.588   6.438 -0.5715  0.3799 -0.0910
   63MOL    C6532429   1.090   1.525   6.502 -0.8585  0.2359  0.2932
   63MOL    C6632430   1.101   1.526   6.641 -0.4021  0.3548 -0.0973
   63MOL    C6732431   1.002   1.587   6.721  0.6127 -0.2294 -0.0794
   63MOL    C6832432   0.891   1.645   6.660 -0.3116 -0.3509 -0.0915
   63MOL    H6932433   1.177   1.422   6.228  0.1170  0.7433  1.3161
   63MOL    H7032434   1.094   1.399   6.080 -3.3515 -2.2361  0.4017
   63MOL    H7132435   0.958   1.573   6.101 -0.3555  2.3842 -0.0543
   63MOL    H7232436   0.691   1.864   6.544  2.4278 -3.7301  1.1262
   63MOL    H7332437   0.556   1.959   6.336  0.4238 -0.2827 -1.8526
   63MOL    H7432438   0.615   1.853   6.110  1.9760  2.7187 -1.3755
   63MOL    H7532439   0.780   1.700   6.088  0.8984 -0.3649 -0.1294
   63MOL    H7632440   1.170   1.488   6.440 -0.1027  1.5438  0.4729
   63MOL    H7732441   1.186   1.475   6.684  0.1049 -0.6092 -2.1921
   63MOL    H7832442   1.021   1.588   6.828  1.3041 -3.1527 -0.1289
   63MOL    H7932443   0.817   1.707   6.709  1.4463  2.3851 -0.8169
   63MOL    C8032444   1.139   1.684   6.165 -0.2109  0.2853  0.5119
   63MOL    C8132445   1.222   1.681   6.030  0.0324 -0.3421 -1.2431
   63MOL    N8232446   1.141   1.636   5.912 -0.3964 -0.0317  0.3534
   63MOL    C8332447   1.160   1.515   5.838  0.7464 -0.0325  0.4502
   63MOL    C8432448   1.057   1.502   5.737 -0.4471 -0.0506 -0.4671
   63MOL    C8532449   1.051   1.383   5.658  0.3256 -0.1815 -0.7770
   63MOL    C8632450   1.154   1.285   5.668  0.6129  0.0977 -0.1080
   63MOL    C8732451   1.254   1.304   5.766 -0.2373  0.5430 -0.6676
   63MOL    C8832452   1.263   1.417   5.847  0.1997 -0.5696 -0.2272
   63MOL    C8932453   0.988   1.623   5.745 -0.4240 -0.2604  1.0964
   63MOL    C9032454   1.032   1.703   5.854 -0.7056  0.3828 -0.0227
   63MOL    C9132455   0.969   1.829   5.887 -0.2438  0.4830  0.0116
   63MOL    C9232456   0.866   1.879   5.798 -0.0405  0.0192 -0.1312
   63MOL    C9332457   0.824   1.796   5.694  0.3638 -0.2236  0.5084
   63MOL    C9432458   0.880   1.670   5.663 -0.2169  0.4642 -0.0478
   63MOL    H9532459   1.078   1.774   6.162 -1.2560 -0.4126  0.6702
   63MOL    H9632460   1.199   1.685   6.256 -0.9876 -1.0233  1.0513
   63MOL    H9732461   1.306   1.613   6.040 -0.4958 -0.8802 -0.4620
   63MOL    H9832462   0.976   1.368   5.582 -1.8020  2.0160  0.7989
   63MOL    H9932463   1.151   1.197   5.606 -1.6134  0.1517 -0.1264
   63MOL   H10032464   1.334   1.232   5.772 -0.5757  0.0793 -1.6141
   63MOL   H10132465   1.344   1.435   5.916  1.7561 -0.3159 -2.0796
   63MOL   H10232466   1.006   1.890   5.968  1.5952  1.6877 -1.7042
   63MOL   H10332467   0.809   1.970   5.811 -0.4811 -0.3124  0.3122
   63MOL   H10432468   0.754   1.846   5.628  1.2273  0.5450  0.1501
   63MOL   H10532469   0.841   1.619   5.577 -4.2409  2.3403  0.5539
   63MOL   C10632470   1.297   1.815   6.005 -0.0740  0.1101 -0.1129
   63MOL   C10732471   1.417   1.835   6.109  0.9102 -0.5981 -0.0042
   63MOL   N10832472   1.518   1.730   6.086 -0.3196 -0.4517  0.0705
   63MOL   C10932473   1.546   1.625   6.174 -0.0352  0.3152 -0.5635
   63MOL   C11032474   1.647   1.543   6.116 -0.5149 -0.1091  0.0798
   63MOL   C11132475   1.700   1.435   6.191  0.1795  0.3505 -0.0824
   63MOL   C11232476   1.650   1.405   6.318 -0.6329 -0.0220 -0.2301
   63MOL   C11332477   1.549   1.479   6.369 -0.2512 -0.5448 -0.1384
   63MOL   C11432478   1.490   1.583   6.296 -0.3057 -0.0103 -0.0715
   63MOL   C11532479   1.675   1.596   5.980  0.2947  0.2397 -0.4522
   63MOL   C11632480   1.601   1.715   5.971 -0.2986 -0.6619 -0.9487
   63MOL   C11732481   1.602   1.788   5.853  0.7549 -0.6241  0.3572
   63MOL   C11832482   1.698   1.752   5.752 -0.0969  0.7812 -0.4346
   63MOL   C11932483   1.770   1.640   5.762 -1.0126  1.3232  0.0461
   63MOL   C12032484   1.764   1.561   5.878  0.8303 -0.1283 -0.1946
   63MOL   H12132485   1.340   1.788   5.909 -0.5908 -3.4317  0.5873
   63MOL   H12232486   1.236   1.904   5.992  0.1215  0.3263  0.4503
   63MOL   H12332487   1.365   1.817   6.203 -1.5113  0.3716 -1.1006
   63MOL   H12432488   1.767   1.362   6.149  1.1537 -0.1686  2.3062
   63MOL   H12532489   1.682   1.317   6.371 -0.2828 -1.6154 -2.9693
   63MOL   H12632490   1.515   1.455   6.468 -0.6672 -0.8898 -0.3655
   63MOL   H12732491   1.412   1.646   6.338  0.0300  0.4987 -0.2033
   63MOL   H12832492   1.546   1.878   5.834  0.7953 -0.4082  1.2152
   63MOL   H12932493   1.718   1.815   5.666  2.0144 -1.0375 -1.3300
   63MOL   H13032494   1.846   1.622   5.686 -0.0801  0.7338  1.1062
   63MOL   H13132495   1.833   1.479   5.892  3.2366  1.9529  0.3519
   63MOL   C13232496   1.473   1.974   6.124  0.8428 -0.2588  0.5085
   63MOL   C13332497   1.383   2.085   6.171  0.9436  0.1711 -0.3120
   63MOL   N13432498   1.266   2.054   6.251  0.4286  0.1797  0.2458
   63MOL   C13532499   1.131   2.073   6.220  0.7932 -0.0571  0.6019
   63MOL   C13632500   1.058   2.068   6.340  0.6349  0.3124 -0.1895
   63MOL   C13732501   0.924   2.110   6.341 -0.3137  0.6421  0.4131
   63MOL   C13832502   0.859   2.153   6.223  0.4595  0.2552 -0.0092
   63MOL   C13932503   0.935   2.155   6.105 -0.0040  0.4852 -0.4692
   63MOL   C14032504   1.068   2.112   6.098  0.2289 -0.6897  0.4699
   63MOL   C14132505   1.145   2.017   6.441  0.2735  0.0539  0.3050
   63MOL   C14232506   1.275   2.009   6.385 -0.6253 -0.0514 -0.3728
   63MOL   C14332507   1.384   1.969   6.464 -0.0953 -0.1162 -0.0264
   63MOL   C14432508   1.363   1.928   6.596  0.3243  0.3021 -0.4080
   63MOL   C14532509   1.233   1.927   6.654  0.1822  0.1115  0.1809
   63MOL   C14632510   1.126   1.980   6.577  0.5795  0.7430 -0.6320
   63MOL   H14732511   1.552   1.970   6.200  1.8663  1.9159 -0.3735
   63MOL   H14832512   1.521   2.010   6.033  0.8884  1.3459  1.1528
   63MOL   H14932513   1.341   2.143   6.089 -0.3506  0.8530  0.8101
   63MOL   H15032514   0.875   2.099   6.437 -1.3386 -2.3684 -0.4145
   63MOL   H15132515   0.756   2.178   6.239  0.2735 -0.9833  0.8626
   63MOL   H15232516   0.889   2.186   6.012  0.0126 -0.2584 -0.7369
   63MOL   H15332517   1.131   2.134   6.013 -0.4911  1.4449  0.4685
   63MOL   H15432518   1.483   1.972   6.420  0.3935 -1.5320  0.9813
   63MOL   H15532519   1.447   1.898   6.656 -1.2682 -2.9728  0.3434
   63MOL   H15632520   1.206   1.876   6.745 -1.2160 -3.8005 -2.3149
   63MOL   H15732521   1.032   1.985   6.629  0.4370 -1.7118 -0.5905
   63MOL   C15832522   1.463   2.204   6.231 -0.1398 -0.3528  0.9036
   63MOL   C15932523   1.582   2.263   6.161  0.1687 -0.2552  0.2827
   63MOL   N16032524   1.566   2.285   6.020  0.1207  0.1769  0.2358
   63MOL   C16132525   1.637   2.230   5.913 -0.1321  0.5808 -0.9995
   63MOL   C16232526   1.591   2.286   5.790 -0.3865 -0.1513 -0.1789
   63MOL   C16332527   1.655   2.245   5.669  0.2216 -0.5013  0.2642
   63MOL   C16432528   1.756   2.145   5.668  0.8190  0.1932  0.5020
   63MOL   C16532529   1.796   2.094   5.791  0.1399  0.0625  0.6370
   63MOL   C16632530   1.745   2.135   5.914 -0.6578  0.2508 -0.8037
   63MOL   C16732531   1.486   2.370   5.822 -0.4508 -0.4937 -0.5502
   63MOL   C16832532   1.467   2.365   5.959  0.4985 -0.2656  0.3592
   63MOL   C16932533   1.367   2.453   6.019 -0.8655  0.0136 -0.1072
   63MOL   C17032534   1.277   2.526   5.933  0.0220  0.0201 -0.5283
   63MOL   C17132535   1.302   2.520   5.793 -0.8628 -0.0995 -0.2513
   63MOL   C17232536   1.408   2.447   5.736 -0.3574  0.1225  0.4796
   63MOL   H17332537   1.401   2.280   6.280  1.9266  2.0259 -0.0462
   63MOL   H17432538   1.511   2.175   6.325  2.7415 -0.1765 -0.4731
   63MOL   H17532539   1.649   2.177   6.162 -0.1459 -0.5409  3.1248
   63MOL   H17632540   1.635   2.294   5.574 -1.3262  1.0612  1.3686
   63MOL   H17732541   1.786   2.117   5.568  0.5517 -2.1204  1.0334
   63MOL   H17832542   1.864   2.010   5.785 -0.6325 -0.4714 -0.7516
   63MOL   H17932543   1.792   2.106   6.007 -0.2717  1.0532 -0.7439
   63MOL   H18032544   1.356   2.468   6.125  0.0043  2.0001 -0.2768
   63MOL   H18132545   1.201   2.595   5.967  0.6695  0.8812 -0.8057
   63MOL   H18232546   1.244   2.573   5.719  0.5804  1.0386 -0.6025
   63MOL   H18332547   1.422   2.456   5.629 -1.7284  1.4765  0.4101
   63MOL   C18432548   1.651   2.376   6.245  0.5703  0.0126  0.2669
   63MOL   C18532549   1.734   2.329   6.381 -0.0245 -0.1088 -0.1333
   63MOL   N18632550   1.858   2.254   6.338  0.1696  0.3754 -0.4712
   63MOL   C18732551   1.864   2.113   6.333  0.1413  0.6682 -0.1935
   63MOL   C18832552   1.985   2.068   6.271  0.1112  0.6217  0.3978
   63MOL   C18932553   2.011   1.926   6.263  0.4881 -0.1520  0.2882
   63MOL   C19032554   1.911   1.832   6.313  0.1896  0.0957  0.2178
   63MOL   C19132555   1.793   1.882   6.371 -0.4658  0.9309 -0.1618
   63MOL   C19232556   1.766   2.019   6.379 -0.1143 -0.7683  0.4034
   63MOL   C19332557   2.050   2.189   6.239 -0.1461  1.1620  0.1656
   63MOL   C19432558   1.968   2.299   6.272  0.6984  0.2637 -0.0039
   63MOL   C19532559   2.003   2.432   6.241  0.0066  0.8242 -0.6068
   63MOL   C19632560   2.120   2.455   6.170 -0.3282 -0.1897  0.1825
   63MOL   C19732561   2.209   2.351   6.141 -0.4424 -0.1729  0.5427
   63MOL   C19832562   2.170   2.218   6.173  0.2353  0.4617 -0.2060
   63MOL   H19932563   1.711   2.446   6.188 -1.8243  2.4741  0.6537
   63MOL   H20032564   1.573   2.447   6.273  2.3568  1.8259  0.6833
   63MOL   H20132565   1.670   2.257   6.433  1.8893 -1.0959  0.9254
   63MOL   H20232566   2.103   1.890   6.218  1.0611  1.3949  0.2035
   63MOL   H20332567   1.925   1.725   6.314  1.0454  0.1926 -0.5577
   63MOL   H20432568   1.724   1.815   6.419  0.6639  0.4282  0.7674
   63MOL   H20532569   1.672   2.042   6.428 -1.7434 -0.6842 -2.6359
   63MOL   H20632570   1.927   2.509   6.253 -0.3229  0.1054  2.0942
   63MOL   H20732571   2.130   2.556   6.133  1.5309  0.1120  1.4587
   63MOL   H20832572   2.295   2.381   6.084  0.8422  0.5005  2.7685
   63MOL   H20932573   2.245   2.143   6.149  0.0311  0.0729  0.3691
   63MOL   C21032574   1.750   2.442   6.491 -0.0558 -0.4184  0.0740
   63MOL   C21132575   1.732   2.393   6.636 -0.1132 -0.4643 -0.4988
   63MOL   N21232576   1.829   2.293   6.681  0.1566  0.4559  0.2067
   63MOL   C21332577   1.805   2.168   6.734 -0.1035  0.0261  0.0928
   63MOL   C21432578   1.930   2.110   6.774  0.3413 -0.0475  0.0583
   63MOL   C21532579   1.923   1.985   6.838 -0.3454  0.7048 -0.5299
   63MOL   C21632580   1.798   1.921   6.857  0.5261  0.3313  0.6277
   63MOL   C21732581   1.678   1.979   6.815  0.1662  0.0039 -0.0784
   63MOL   C21832582   1.681   2.104   6.753  0.4507  0.4610  1.0339
   63MOL   C21932583   2.034   2.204   6.739  0.7142  0.4156 -0.4546
   63MOL   C22032584   1.968   2.322   6.689  0.1923  0.2991  0.0953
   63MOL   C22132585   2.043   2.430   6.635  0.9415  0.1281 -0.0443
   63MOL   C22232586   2.183   2.425   6.651 -0.4079 -0.1823  0.1839
   63MOL   C22332587   2.252   2.319   6.709 -0.2636  0.1160 -0.4462
   63MOL   C22432588   2.173   2.209   6.749  0.0887 -0.9036 -0.4751
   63MOL   H22532589   1.842   2.494   6.467 -1.3951  2.3374  0.7331
   63MOL   H22632590   1.685   2.528   6.479 -0.5473 -0.5985  1.3685
   63MOL   H22732591   1.633   2.347   6.630 -0.3710  0.1164 -0.7105
   63MOL   H22832592   2.017   1.936   6.860 -0.8898 -0.4540 -0.7486
   63MOL   H22932593   1.790   1.822   6.899  0.6274 -0.4643 -1.1568
   63MOL   H23032594   1.586   1.927   6.834 -0.8082  0.9669 -1.9474
   63MOL   H23132595   1.587   2.152   6.730  0.0585 -0.8390 -0.1785
   63MOL   H23232596   2.003   2.523   6.598  1.0129  0.5481  0.9009
   63MOL   H23332597   2.244   2.502   6.605 -1.4646 -0.8589 -2.4489
   63MOL   H23432598   2.358   2.317   6.731 -0.4593  0.6282  0.5736
   63MOL   H23532599   2.233   2.131   6.792  0.0238 -1.9292 -2.2134
   63MOL   C23632600   1.705   2.510   6.736 -0.3262  0.4073  0.4647
   63MOL   C23732601   1.573   2.592   6.733  0.1179 -0.1702 -0.3969
   63MOL   N23832602   1.454   2.494   6.736  0.1476 -0.2495  0.3865
   63MOL   C23932603   1.362   2.477   6.630  0.2055 -0.0831  0.3557
   63MOL   C24032604   1.275   2.373   6.667 -0.3116  0.5328 -0.4256
   63MOL   C24132605   1.164   2.349   6.585  0.6142  0.3939 -0.3127
   63MOL   C24232606   1.156   2.399   6.454 -0.5908 -0.4207  0.2880
   63MOL   C24332607   1.247   2.500   6.417 -0.3790 -0.7263 -0.4501
   63MOL   C24432608   1.342   2.548   6.510  0.9771  0.1803  0.3673
   63MOL   C24532609   1.310   2.324   6.796  0.5975 -0.4322  0.5180
   63MOL   C24632610   1.421   2.407   6.839  0.5217  0.6633  0.0882
   63MOL   C24732611   1.476   2.388   6.967  0.3696  0.0572 -0.1092
   63MOL   C24832612   1.444   2.279   7.048  0.9630 -0.1859 -0.5526
   63MOL   C24932613   1.322   2.209   7.012 -0.9162  0.4167  0.1935
   63MOL   C25032614   1.263   2.226   6.888 -0.1752 -0.5583  0.0338
   63MOL   H25132615   1.724   2.475   6.838  0.9177 -0.9541 -0.2122
   63MOL   H25232616   1.793   2.573   6.725 -1.0080  1.2041 -0.4096
   63MOL   H25332617   1.571   2.641   6.636 -1.5284  0.9117  0.1579
   63MOL   H25432618   1.089   2.280   6.623  0.9729  0.6366  0.8299
   63MOL   H25532619   1.079   2.372   6.383  0.9292 -0.6782 -1.2842
   63MOL   H25632620   1.244   2.549   6.321 -0.2657 -0.5113 -0.3425
   63MOL   H25732621   1.411   2.627   6.483 -0.0796  0.7538 -0.6744
   63MOL   H25832622   1.556   2.449   7.004 -0.7654  0.5821  1.5284
   63MOL   H25932623   1.487   2.275   7.147 -3.7441  2.5039  1.7725
   63MOL   H26032624   1.293   2.138   7.088  0.5722 -1.6972 -1.1675
   63MOL   H26132625   1.182   2.162   6.856  1.2163 -1.1112 -2.5332
   63MOL   C26232626   1.567   2.709   6.832 -0.3528  0.3069 -0.8418
   63MOL   C26332627   1.646   2.830   6.786 -0.2745  0.0553  0.1549
   63MOL   N26432628   1.592   2.893   6.660 -0.2830 -0.0809  0.4088
   63MOL   C26532629   1.655   2.887   6.533 -0.3746 -0.4779  0.0338
   63MOL   C26632630   1.573   2.952   6.435 -0.2767  0.0644 -0.4531
   63MOL   C26732631   1.612   2.956   6.297 -0.2864 -0.3575  0.3171
   63MOL   C26832632   1.730   2.890   6.257  0.0746 -0.2141 -0.0102
   63MOL   C26932633   1.810   2.819   6.351 -0.4521  0.4623  0.3925
   63MOL   C27032634   1.771   2.828   6.491 -0.2030 -0.1850  1.1281
   63MOL   C27132635   1.456   3.007   6.512 -0.5262  0.2081 -1.3669
   63MOL   C27232636   1.474   2.962   6.646  0.2364 -0.6710 -0.2681
   63MOL   C27332637   1.376   2.999   6.746 -0.6292  1.0487  0.0989
   63MOL   C27432638   1.257   3.064   6.708  0.0620  0.0795 -0.2896
   63MOL   C27532639   1.239   3.105   6.575 -0.0536  0.2444 -0.5249
   63MOL   C27632640   1.341   3.085   6.478  0.2608  0.1631  0.2558
   63MOL   H27732641   1.464   2.735   6.852 -0.1460 -1.0732  2.2010
   63MOL   H27832642   1.603   2.667   6.926 -0.9085 -0.8714 -1.1470
   63MOL   H27932643   1.747   2.798   6.761  0.5173  2.7398 -0.2725
   63MOL   H28032644   1.564   3.020   6.224  1.4858  1.7689  0.9568
   63MOL   H28132645   1.757   2.893   6.153  2.2709 -1.0247  0.5194
   63MOL   H28232646   1.902   2.774   6.318  0.2023  0.7427  1.8332
   63MOL   H28332647   1.836   2.789   6.568  2.5477 -0.0671 -1.0621
   63MOL   H28432648   1.368   2.949   6.842  0.7173  1.2991  0.3562
   63MOL   H28532649   1.191   3.099   6.786  0.6207  2.0649 -0.6846
   63MOL   H28632650   1.153   3.168   6.560 -0.7300  0.0688  2.3147
   63MOL   H28732651   1.324   3.117   6.377  1.4593 -0.5463 -0.1817
   63MOL   C28832652   1.667   2.936   6.898  0.3737 -0.3707 -0.4678
   63MOL   C28932653   1.756   2.909   7.019 -0.9188  0.9054 -0.3206
   63MOL   N29032654   1.871   2.827   6.972  0.5513 -0.6495  0.4511
   63MOL   C29132655   1.893   2.695   7.010 -0.6397 -0.5179  0.0170
   63MOL   C29232656   2.012   2.643   6.954  0.2994 -0.8870 -0.5643
   63MOL   C29332657   2.048   2.509   6.987  0.3423  0.0487 -0.1699
   63MOL   C29432658   1.969   2.424   7.070 -0.5103 -0.4760 -0.3601
   63MOL   C29532659   1.851   2.477   7.125 -0.3838 -0.2740 -0.1523
   63MOL   C29632660   1.816   2.611   7.098 -0.5240  0.0481 -0.0948
   63MOL   C29732661   2.064   2.750   6.872 -0.0347  0.4946  0.2845
   63MOL   C29832662   1.977   2.863   6.885  0.1031  0.1023  0.1288
   63MOL   C29932663   2.001   2.977   6.804 -0.1713  0.2879 -0.9933
   63MOL   C30032664   2.107   2.981   6.712  0.0001 -0.9647 -0.9526
   63MOL   C30132665   2.187   2.871   6.691  0.2169 -0.3844  0.3467
   63MOL   C30232666   2.174   2.760   6.781 -0.2676  0.1669 -0.6510
   63MOL   H30332667   1.696   3.024   6.841 -0.7282  0.5679  0.4020
   63MOL   H30432668   1.569   2.952   6.944  1.1493 -2.2079  1.9330
   63MOL   H30532669   1.702   2.845   7.089  0.6361  3.3233  3.2345
   63MOL   H30632670   2.132   2.472   6.930  0.6898  0.0133  0.3527
   63MOL   H30732671   1.997   2.320   7.064  2.8000  0.3770 -0.9994
   63MOL   H30832672   1.782   2.408   7.172  0.4403 -0.1812  1.2274
   63MOL   H30932673   1.724   2.639   7.148 -0.0267  1.0896  0.2475
   63MOL   H31032674   1.936   3.062   6.816  0.3393  0.5836 -0.3094
   63MOL   H31132675   2.113   3.063   6.642 -1.7121  0.7124  0.8287
   63MOL   H31232676   2.264   2.881   6.615  0.5618  1.6932  0.9408
   63MOL   H31332677   2.248   2.682   6.772  0.5164  0.7539  0.4840
   63MOL   C31432678   1.791   3.044   7.089  0.5003 -0.0173 -0.2548
   63MOL   C31532679   1.869   3.043   7.223  0.1583  0.0927  0.2957
   63MOL   N31632680   1.787   2.982   7.327 -0.2396 -0.2823  0.7074
   63MOL   C31732681   1.679   3.053   7.373 -0.3980  0.0839  0.3909
   63MOL   C31832682   1.601   2.980   7.473 -0.1037 -0.5735  0.0295
   63MOL   C31932683   1.487   3.036   7.532 -0.8140  0.1141  0.2637
   63MOL   C32032684   1.455   3.171   7.503 -0.8151 -0.1453  0.5789
   63MOL   C32132685   1.532   3.246   7.412  0.0719  0.3045 -0.4158
   63MOL   C32232686   1.632   3.180   7.339  0.7520 -0.1128 -0.5015
   63MOL   C32332687   1.672   2.864   7.497 -0.3881  0.4679  0.1080
   63MOL   C32432688   1.784   2.861   7.403 -0.4572 -0.8873  1.2524
   63MOL   C32532689   1.859   2.736   7.393  0.4514  0.6087 -0.1663
   63MOL   C32632690   1.825   2.625   7.473 -0.3286 -0.5603  0.1628
   63MOL   C32732691   1.724   2.636   7.568  1.1023 -0.2559 -0.7033
   63MOL   C32832692   1.659   2.758   7.586  0.5790  0.3015  0.1583
   63MOL   H32932693   1.831   3.123   7.026  2.0610 -0.6920 -0.1235
   63MOL   H33032694   1.689   3.080   7.104  1.0196  1.7459 -0.8168
   63MOL   H33132695   1.888   3.145   7.257 -0.1342 -0.6904  2.8991
   63MOL   H33232696   1.431   2.985   7.609 -0.4029 -0.3126  0.2858
   63MOL   H33332697   1.366   3.211   7.548 -1.2409 -0.7815  0.3123
   63MOL   H33432698   1.508   3.350   7.401  0.8528  0.4767 -0.5398
   63MOL   H33532699   1.691   3.240   7.271 -1.4325  1.0341 -1.4424
   63MOL   H33632700   1.944   2.718   7.329 -2.6571 -3.8640 -3.4226
   63MOL   H33732701   1.861   2.523   7.462 -2.6379 -1.4487  0.5753
   63MOL   H33832702   1.690   2.553   7.628  1.8577 -0.7967 -0.9978
   63MOL   H33932703   1.580   2.763   7.659 -0.4940  1.3164 -1.0589
   63MOL   C34032704   2.007   2.979   7.208  0.1771 -0.2078 -0.2390
   63MOL   C34132705   2.109   2.989   7.322  0.2642 -0.1591 -0.6345
   63MOL   N34232706   2.207   2.871   7.328 -0.1505 -0.3920  0.5305
   63MOL   C34332707   2.228   2.798   7.442 -0.2309  0.2374  0.2191
   63MOL   C34432708   2.328   2.698   7.409 -1.0690 -0.3462 -0.3245
   63MOL   C34532709   2.389   2.623   7.512 -0.1739  0.1872 -0.2409
   63MOL   C34632710   2.350   2.647   7.643 -0.4638 -0.0884 -0.2704
   63MOL   C34732711   2.247   2.740   7.679  0.0544 -0.0196 -0.3245
   63MOL   C34832712   2.181   2.811   7.576 -0.4955 -0.2872  0.8459
   63MOL   C34932713   2.366   2.717   7.276  0.0688  0.4104 -0.1269
   63MOL   C35032714   2.289   2.822   7.226 -0.1089  0.0262 -0.7331
   63MOL   C35132715   2.298   2.867   7.096 -0.5614 -0.2226 -0.1930
   63MOL   C35232716   2.389   2.809   7.009 -0.4999 -0.1618 -0.1751
   63MOL   C35332717   2.472   2.705   7.054  0.7192  0.3508  0.2518
   63MOL   C35432718   2.461   2.662   7.191 -0.4438  0.6272 -0.4786
   63MOL   H35532719   1.986   2.873   7.188 -0.4410 -0.6390  2.5283
   63MOL   H35632720   2.050   2.999   7.110  0.7832 -2.6521 -0.5130
   63MOL   H35732721   2.048   2.999   7.412  2.4232 -0.4553  0.9275
   63MOL   H35832722   2.467   2.552   7.485 -0.5149 -0.0538 -0.6085
   63MOL   H35932723   2.397   2.583   7.716 -0.4507  1.7683  1.3925
   63MOL   H36032724   2.213   2.755   7.780 -2.4805 -0.9729 -0.9987
   63MOL   H36132725   2.108   2.886   7.605 -2.2228 -2.0219  1.0865
   63MOL   H36232726   2.234   2.947   7.059 -0.5491  1.1292  2.5195
   63MOL   H36332727   2.398   2.846   6.908  0.6853 -2.3636 -0.9062
   63MOL   H36432728   2.546   2.660   6.989  0.2538 -0.7203  0.4547
   63MOL   H36532729   2.525   2.580   7.220 -2.1722 -0.0569  1.5484
   63MOL   C36632730   2.196   3.118   7.311 -0.2720  0.3879 -0.1643
   63MOL   C36732731   2.174   3.226   7.416 -0.0909  0.4509  0.4311
   63MOL   N36832732   2.194   3.178   7.551  0.0091 -0.6869 -0.4735
   63MOL   C36932733   2.093   3.164   7.642 -0.1545  0.0671  0.2693
   63MOL   C37032734   2.151   3.140   7.770 -0.0781  0.4929  0.3795
   63MOL   C37132735   2.072   3.109   7.879  0.1120 -0.0686 -0.5985
   63MOL   C37232736   1.930   3.104   7.859  0.1175 -0.8355  0.3269
   63MOL   C37332737   1.872   3.149   7.736 -0.2121  0.3363  0.1952
   63MOL   C37432738   1.955   3.175   7.624  0.4890  0.1871 -0.1548
   63MOL   C37532739   2.295   3.135   7.756 -0.4121 -0.0586 -0.0744
   63MOL   C37632740   2.313   3.158   7.617  0.4911 -1.2512 -0.0715
   63MOL   C37732741   2.444   3.154   7.570  0.2640 -0.7959  0.1748
   63MOL   C37832742   2.560   3.138   7.649  0.2360 -0.0702 -0.1210
   63MOL   C37932743   2.541   3.116   7.789 -0.3545  0.4295 -0.2337
   63MOL   C38032744   2.412   3.108   7.837  0.0255  1.0275 -0.2682
   63MOL   H38132745   2.302   3.097   7.301 -0.6632 -1.0141 -1.6208
   63MOL   H38232746   2.163   3.164   7.218  1.2872 -0.9189 -1.3727
   63MOL   H38332747   2.069   3.244   7.394 -0.3687  0.3219  1.5976
   63MOL   H38432748   2.115   3.084   7.974 -2.4685  3.4921  1.6491
   63MOL   H38532749   1.876   3.075   7.948  0.4743  1.0146  1.1740
   63MOL   H38632750   1.766   3.163   7.723 -0.6206 -2.2612  0.4392
   63MOL   H38732751   1.916   3.198   7.526 -0.8261 -0.4574  0.2117
   63MOL   H38832752   2.453   3.142   7.463 -0.6421  1.2198 -0.1385
   63MOL   H38932753   2.658   3.136   7.603 -0.1342  1.0268 -0.9670
   63MOL   H39032754   2.616   3.079   7.856 -0.3579 -0.5066 -0.7452
   63MOL   H39132755   2.410   3.090   7.944  0.1573 -1.6866 -0.6765
   63MOL   C39232756   2.256   3.355   7.400  0.0084  0.9257  0.4574
   63MOL   C39332757   2.236   3.442   7.274 -0.1207  0.1808 -0.4888
   63MOL   N39432758   2.103   3.429   7.204 -0.8356 -0.1888  0.0134
   63MOL   C39532759   2.076   3.383   7.076  0.4788  0.0923  0.3289
   63MOL   C39632760   1.938   3.416   7.037 -0.3438 -0.0093  0.4011
   63MOL   C39732761   1.901   3.385   6.906 -0.0787 -0.0328 -0.1751
   63MOL   C39832762   1.990   3.337   6.811  0.0169 -0.2514 -0.2148
   63MOL   C39932763   2.127   3.307   6.844  0.3653  0.2488 -0.4434
   63MOL   C40032764   2.161   3.330   6.976 -0.4306  0.1628 -0.1376
   63MOL   C40132765   1.876   3.466   7.157 -0.1443 -0.0400  0.5196
   63MOL   C40232766   1.977   3.474   7.254 -1.1080  0.6133  0.5303
   63MOL   C40332767   1.946   3.505   7.392  0.1526 -0.2920  0.3071
   63MOL   C40432768   1.816   3.529   7.431  0.1025  0.1873 -0.5318
   63MOL   C40532769   1.714   3.529   7.333 -0.4923 -0.4071 -0.4073
   63MOL   C40632770   1.747   3.507   7.198  0.4753  0.1818  0.0259
   63MOL   H40732771   2.237   3.421   7.484  1.6666  0.2318  1.3865
   63MOL   H40832772   2.361   3.329   7.411 -0.0452  0.3827 -0.2303
   63MOL   H40932773   2.308   3.407   7.200  0.0595  1.0300 -0.7184
   63MOL   H41032774   1.804   3.412   6.866  0.1736  0.0764 -0.7256
   63MOL   H41132775   1.958   3.324   6.709 -0.8813  0.7816 -0.0711
   63MOL   H41232776   2.193   3.264   6.770  1.6201  2.6481 -0.7862
   63MOL   H41332777   2.264   3.320   7.009  0.2712 -0.6824 -2.5020
   63MOL   H41432778   2.029   3.503   7.461  1.7202 -2.4816 -1.5762
   63MOL   H41532779   1.812   3.554   7.536 -1.4860 -0.5790 -0.3893
   63MOL   H41632780   1.610   3.547   7.356 -0.2304 -2.2748  2.4502
   63MOL   H41732781   1.669   3.506   7.123  0.2291 -2.1399  0.2583
   63MOL   C41832782   2.270   3.587   7.294  0.1060  0.1158 -0.7834
   63MOL   C41932783   2.308   3.669   7.168  0.1010  0.7989  0.5242
   63MOL   N42032784   2.200   3.759   7.134 -0.2465 -0.1328  0.1243
   63MOL   C42132785   2.135   3.758   7.008 -0.3504 -0.4722 -0.3040
   63MOL   C42232786   2.029   3.849   7.010  0.2878 -0.0260 -0.2222
   63MOL   C42332787   1.940   3.858   6.897 -0.4454 -0.1785 -0.1316
   63MOL   C42432788   1.959   3.775   6.785  0.1826 -0.5046  0.2616
   63MOL   C42532789   2.065   3.686   6.790  0.0437  0.6551  0.0669
   63MOL   C42632790   2.151   3.679   6.891 -0.9063  0.1540  0.1015
   63MOL   C42732791   2.039   3.923   7.131  0.4795  0.3994  0.2654
   63MOL   C42832792   2.147   3.872   7.211 -0.3345  0.1092 -0.1394
   63MOL   C42932793   2.173   3.914   7.342  0.8259  0.1251  0.5471
   63MOL   C43032794   2.111   4.036   7.386  0.6612 -0.2920 -0.5932
   63MOL   C43132795   2.012   4.097   7.300 -0.4243 -0.2196 -0.3331
   63MOL   C43232796   1.970   4.033   7.184  0.1183 -0.6024  0.4275
   63MOL   H43332797   2.191   3.635   7.351  0.3115  1.0756 -1.2928
   63MOL   H43432798   2.357   3.587   7.359 -0.1002  1.0555 -0.5014
   63MOL   H43532799   2.314   3.597   7.086 -2.0910  2.4255 -1.1231
   63MOL   H43632800   1.866   3.937   6.896 -0.2815 -0.0240 -0.2776
   63MOL   H43732801   1.883   3.785   6.709 -0.0566 -1.9973  0.3007
   63MOL   H43832802   2.067   3.619   6.705 -0.7204 -0.0903  0.6363
   63MOL   H43932803   2.225   3.601   6.877 -0.8430  0.4996 -1.6259
   63MOL   H44032804   2.245   3.864   7.405  2.0581 -1.3118 -1.9486
   63MOL   H44132805   2.129   4.076   7.485 -0.2736 -1.0957 -0.0891
   63MOL   H44232806   1.951   4.178   7.338  0.4780 -0.3545  1.4143
   63MOL   H44332807   1.876   4.066   7.142  1.4268  0.2571 -1.9120
   63MOL   C44432808   2.441   3.753   7.154  0.0966  0.3467 -0.0742
   63MOL   C44532809   2.566   3.668   7.138 -0.8893  0.7644  0.0556
   63MOL   N44632810   2.553   3.562   7.036  0.0861 -0.0294  0.2796
   63MOL   C44732811   2.558   3.421   7.063  0.6254  0.1945 -0.4770
   63MOL   C44832812   2.541   3.351   6.940 -0.5039  0.2545 -0.7190
   63MOL   C44932813   2.542   3.211   6.938  0.3985 -0.1732 -1.0633
   63MOL   C45032814   2.563   3.138   7.061  0.6289 -0.7338 -0.5687
   63MOL   C45132815   2.583   3.204   7.187  0.0217 -0.3947  0.4139
   63MOL   C45232816   2.580   3.346   7.182 -0.2138 -0.1156 -0.2584
   63MOL   C45332817   2.522   3.450   6.840 -0.7066 -0.4779 -0.5625
   63MOL   C45432818   2.536   3.578   6.902 -0.0880  1.2775 -0.3876
   63MOL   C45532819   2.523   3.695   6.829 -0.4317  0.1220 -0.1082
   63MOL   C45632820   2.490   3.694   6.692 -0.2121  0.5698  0.1749
   63MOL   C45732821   2.477   3.564   6.629  0.7226  0.0911 -0.2110
   63MOL   C45832822   2.507   3.446   6.698  0.0006 -0.3792 -0.8899
   63MOL   H45932823   2.429   3.820   7.068  0.8590 -0.0548 -0.4926
   63MOL   H46032824   2.445   3.830   7.231 -0.7761  0.4288 -0.1062
   63MOL   H46132825   2.578   3.618   7.234 -1.9031 -1.9086 -1.1705
   63MOL   H46232826   2.522   3.155   6.848  2.2906 -0.7435 -1.1492
   63MOL   H46332827   2.556   3.030   7.056 -0.3178 -0.7423  0.6111
   63MOL   H46432828   2.618   3.143   7.269  2.9842  1.8678  0.8977
   63MOL   H46532829   2.600   3.409   7.268 -0.0317  2.2255 -1.9728
   63MOL   H46632830   2.529   3.793   6.875 -0.5780  0.6303 -1.1700
   63MOL   H46732831   2.461   3.785   6.640 -0.6526  0.8617  0.9255
   63MOL   H46832832   2.436   3.556   6.530 -1.5747 -0.4742  0.7368
   63MOL   H46932833   2.490   3.356   6.642  0.4026 -0.1747 -1.3489
   63MOL   C47032834   2.702   3.755   7.115 -0.2753 -0.0890 -0.2269
   63MOL   C47132835   2.824   3.672   7.100  0.3027  0.7118 -0.6301
   63MOL   N47232836   2.928   3.755   7.038 -0.7444 -0.2669  0.1603
   63MOL   C47332837   2.964   3.748   6.907 -0.8096 -0.2449 -0.3230
   63MOL   C47432838   3.080   3.829   6.880 -0.6402 -0.0935 -0.7161
   63MOL   C47532839   3.142   3.834   6.750  0.5099 -0.1608 -0.1633
   63MOL   C47632840   3.082   3.760   6.644  0.1476  0.1233 -0.4542
   63MOL   C47732841   2.968   3.686   6.677 -0.2940 -0.5359  0.7561
   63MOL   C47832842   2.903   3.679   6.803 -0.1003  0.1896  0.8450
   63MOL   C47932843   3.115   3.893   7.011 -0.4001 -0.4537  0.5110
   63MOL   C48032844   3.018   3.848   7.103 -0.3012  0.1618 -1.0051
   63MOL   C48132845   3.034   3.888   7.236 -0.1616 -0.7298  0.5696
   63MOL   C48232846   3.133   3.977   7.275  0.1016 -0.4599 -0.2609
   63MOL   C48332847   3.223   4.031   7.183 -0.0265 -0.3507  0.2572
   63MOL   C48432848   3.210   3.988   7.047 -0.1741  0.2093  0.3536
   63MOL   H48532849   2.674   3.813   7.027 -0.1340  0.6758  0.2248
   63MOL   H48632850   2.702   3.826   7.198  0.5931 -2.4362  1.8561
   63MOL   H48732851   2.806   3.578   7.048 -0.0321 -0.0890  0.9131
   63MOL   H48832852   3.229   3.897   6.735 -0.1985  1.7136  3.0502
   63MOL   H48932853   3.117   3.760   6.542  0.3942  3.3264 -0.4279
   63MOL   H49032854   2.933   3.627   6.593  0.6269 -0.0238  0.0017
   63MOL   H49132855   2.823   3.608   6.818 -0.5467  0.3106 -0.8063
   63MOL   H49232856   2.965   3.877   7.318  1.3993  0.7974  2.1132
   63MOL   H49332857   3.152   4.006   7.378 -0.4442 -0.0376 -0.2758
   63MOL   H49432858   3.306   4.094   7.212 -0.8799  0.4301  1.0374
   63MOL   H49532859   3.273   4.038   6.976  0.6705  0.3225  1.1723
   63MOL   C49632860   2.877   3.599   7.232  0.3302  0.5769 -0.6313
   63MOL   C49732861   2.955   3.478   7.191  0.4231  0.1006  0.0574
   63MOL   N49832862   3.038   3.429   7.303  0.1207 -0.4742  0.0868
   63MOL   C49932863   3.010   3.320   7.382  0.0311 -0.4655  0.1623
   63MOL   C50032864   3.117   3.296   7.467 -0.2150  0.6865 -0.0760
   63MOL   C50132865   3.105   3.188   7.559 -0.4090 -0.1407 -0.5486
   63MOL   C50232866   2.989   3.108   7.565  0.6269  0.3369  0.4645
   63MOL   C50332867   2.891   3.123   7.465 -0.2382  0.0211  0.1191
   63MOL   C50432868   2.901   3.230   7.378  0.0817 -0.9189  0.4237
   63MOL   C50532869   3.220   3.401   7.444 -0.1011  0.3879 -0.1259
   63MOL   C50632870   3.163   3.487   7.344  0.6515  0.3679 -0.7400
   63MOL   C50732871   3.226   3.606   7.296 -0.0099  0.2233  0.0040
   63MOL   C50832872   3.353   3.636   7.355 -0.2196  0.3462  0.3058
   63MOL   C50932873   3.403   3.559   7.463 -0.0145 -0.0507 -0.3911
   63MOL   C51032874   3.347   3.433   7.502 -0.0113 -0.2346  0.6537
   63MOL   H51132875   2.926   3.670   7.298  2.0873 -1.4256  0.2624
   63MOL   H51232876   2.797   3.559   7.294  0.5623 -1.1069 -1.3799
   63MOL   H51332877   3.019   3.495   7.105  2.3642 -1.1054  1.2136
   63MOL   H51432878   3.184   3.151   7.621 -1.5711  0.0963  1.1084
   63MOL   H51532879   2.975   3.034   7.642  0.6544  1.0715  1.1896
   63MOL   H51632880   2.809   3.053   7.465  0.8391 -1.2766 -0.6232
   63MOL   H51732881   2.826   3.231   7.301  1.0164  0.3215 -0.4910
   63MOL   H51832882   3.197   3.667   7.212 -1.8977  2.9788  2.5426
   63MOL   H51932883   3.415   3.720   7.327  4.2224 -2.1942  2.0700
   63MOL   H52032884   3.495   3.593   7.508 -0.7887 -0.8175  1.8430
   63MOL   H52132885   3.391   3.373   7.579  0.6189  1.1334  1.3800
   63MOL   H52232886   2.879   3.404   7.167  0.6784  0.2925 -1.3431
   64MOL     C132887   2.362   3.097   5.092  0.1109 -0.2002 -0.0205
   64MOL     C232888   2.491   3.022   5.123 -0.4501  0.0790 -0.7475
   64MOL     N332889   2.607   3.079   5.059 -0.2404 -0.1008  0.4911
   64MOL     C432890   2.698   3.011   4.977  0.0303  0.3336  0.2033
   64MOL     C532891   2.808   3.096   4.942 -0.5776 -0.0519 -0.3827
   64MOL     C632892   2.899   3.062   4.848  0.3828 -0.4459  0.5240
   64MOL     C732893   2.886   2.939   4.787  0.0785  0.2026 -0.2097
   64MOL     C832894   2.789   2.843   4.829  0.3306  0.8928 -0.3338
   64MOL     C932895   2.688   2.880   4.920  0.4825 -0.0593  0.1997
   64MOL    C1032896   2.785   3.218   5.012 -0.6488 -0.0910  0.5769
   64MOL    C1132897   2.655   3.214   5.076 -0.5806 -0.1879  0.1260
   64MOL    C1232898   2.617   3.321   5.152  0.4693  0.0160  0.7053
   64MOL    C1332899   2.691   3.444   5.151 -0.1654 -1.0475 -0.5981
   64MOL    C1432900   2.809   3.450   5.076  0.4202  0.0886 -1.2608
   64MOL    C1532901   2.857   3.337   5.011  0.0999  0.4769  0.0197
   64MOL    H1632902   2.343   3.174   5.167 -1.4826 -1.1280  0.5495
   64MOL    H1732903   2.280   3.026   5.096  0.9342 -1.2423 -1.0546
   64MOL    H1832904   2.481   2.928   5.068 -0.3667 -0.3223 -0.0816
   64MOL    H1932905   2.981   3.128   4.824 -1.0738  1.0809 -0.3327
   64MOL    H2032906   2.964   2.908   4.719  1.5970  0.6197  1.3165
   64MOL    H2132907   2.777   2.746   4.784  1.7433 -1.3621  3.8848
   64MOL    H2232908   2.607   2.813   4.944  1.3490  0.0609  3.8133
   64MOL    H2332909   2.522   3.307   5.201 -0.2817  0.7443 -0.5084
   64MOL    H2432910   2.670   3.536   5.203 -1.0111 -0.1704 -2.4158
   64MOL    H2532911   2.872   3.538   5.076 -0.1889  0.6264  3.2911
   64MOL    H2632912   2.952   3.335   4.960  0.3516  1.3570  0.4463
   64MOL    H2732913   2.360   3.138   4.991  0.5611  1.2235  0.5338
   64MOL    C2832914   2.530   3.012   5.275 -0.2604 -0.9321  0.7810
   64MOL    C2932915   2.453   2.898   5.347 -0.8473  0.5861 -0.2636
   64MOL    N3032916   2.466   2.761   5.283  1.4378 -0.1238 -0.3470
   64MOL    C3132917   2.359   2.666   5.268  0.2190 -0.0678  0.3074
   64MOL    C3232918   2.398   2.551   5.196 -1.0923  0.9378  0.0122
   64MOL    C3332919   2.303   2.449   5.170 -0.1421  0.3827 -0.5078
   64MOL    C3432920   2.172   2.461   5.216  0.0613  0.1464  0.2418
   64MOL    C3532921   2.128   2.578   5.274 -0.1480  0.4093 -0.1736
   64MOL    C3632922   2.219   2.681   5.300  0.4541  0.5418 -0.5686
   64MOL    C3732923   2.539   2.569   5.173 -0.2043 -0.3912 -0.1455
   64MOL    C3832924   2.577   2.693   5.229  0.0148 -0.0573  0.5167
   64MOL    C3932925   2.708   2.735   5.228  0.6986  0.0279 -0.5289
   64MOL    C4032926   2.807   2.650   5.161  0.4056 -0.1344 -0.2930
   64MOL    C4132927   2.773   2.526   5.105 -0.3748  0.0354  0.9868
   64MOL    C4232928   2.637   2.487   5.103 -0.9034 -0.1065 -0.4342
   64MOL    H4332929   2.638   2.999   5.277 -0.1805 -0.1435  3.1282
   64MOL    H4432930   2.527   3.116   5.308  1.4900 -0.0636 -1.6467
   64MOL    H4532931   2.346   2.919   5.353 -1.2583 -1.3496 -0.2566
   64MOL    H4632932   2.346   2.361   5.124 -3.2978 -0.5020 -1.8734
   64MOL    H4732933   2.112   2.377   5.185  0.0890  0.1128  0.2791
   64MOL    H4832934   2.026   2.588   5.308 -0.5175 -1.2655 -0.7024
   64MOL    H4932935   2.189   2.766   5.360 -0.5927 -0.4339  0.3155
   64MOL    H5032936   2.739   2.825   5.279 -1.2502  1.2821 -1.5284
   64MOL    H5132937   2.907   2.692   5.159  0.3086  0.1452  0.3455
   64MOL    H5232938   2.851   2.460   5.069 -0.3375  1.5147 -1.8350
   64MOL    H5332939   2.608   2.395   5.055  0.0590 -0.8331  0.3327
   64MOL    C5432940   2.505   2.883   5.491 -0.3593 -0.4277  0.1580
   64MOL    C5532941   2.461   2.998   5.581 -0.3072 -0.5270 -0.4027
   64MOL    N5632942   2.323   3.032   5.580  0.1230  0.3810 -0.8476
   64MOL    C5732943   2.267   3.161   5.560 -0.1526 -0.3243 -0.0554
   64MOL    C5832944   2.122   3.158   5.565 -0.2298  0.2321 -0.1643
   64MOL    C5932945   2.048   3.279   5.537 -0.4526  0.5686  0.0028
   64MOL    C6032946   2.120   3.394   5.511  0.2265 -0.5809  0.4111
   64MOL    C6132947   2.262   3.400   5.497  0.3755  0.4600  0.7237
   64MOL    C6232948   2.334   3.283   5.531  0.6251  0.3313 -0.4433
   64MOL    C6332949   2.089   3.022   5.609  0.2482 -0.0006  0.7027
   64MOL    C6432950   2.215   2.947   5.609  0.6678  1.3727 -0.2512
   64MOL    C6532951   2.202   2.812   5.630  0.4999 -0.1643 -0.1922
   64MOL    C6632952   2.085   2.751   5.674  0.1834 -0.7703 -0.3796
   64MOL    C6732953   1.962   2.823   5.672 -0.8703 -0.2600  0.8953
   64MOL    C6832954   1.967   2.956   5.636  0.7669 -0.4295  0.9592
   64MOL    H6932955   2.473   2.790   5.538 -0.2965  0.0318  1.1407
   64MOL    H7032956   2.613   2.867   5.484 -0.0072  1.2030  1.5296
   64MOL    H7132957   2.510   3.077   5.524 -0.2088 -1.0110 -1.0044
   64MOL    H7232958   1.942   3.301   5.534 -0.7984 -0.9989 -0.0700
   64MOL    H7332959   2.060   3.483   5.515  0.8345 -0.1303 -0.3737
   64MOL    H7432960   2.326   3.484   5.476  1.0671  0.0250  1.0767
   64MOL    H7532961   2.441   3.291   5.521  0.7629 -0.6538  0.1638
   64MOL    H7632962   2.288   2.748   5.621  1.4920  1.1821 -0.5831
   64MOL    H7732963   2.075   2.646   5.698 -2.0960 -0.3642  0.5659
   64MOL    H7832964   1.868   2.773   5.692 -0.9499 -2.0026 -3.3025
   64MOL    H7932965   1.868   2.999   5.624  1.2360  0.8118  1.5131
   64MOL    C8032966   2.505   2.988   5.726 -0.0540 -0.0325 -0.8200
   64MOL    C8132967   2.654   3.005   5.740 -0.1903  0.3860 -0.3872
   64MOL    N8232968   2.709   3.125   5.682 -0.8248  0.0433  0.0257
   64MOL    C8332969   2.781   3.125   5.564  0.3160  0.3772  0.2185
   64MOL    C8432970   2.802   3.258   5.523  0.1201 -0.6454  0.5130
   64MOL    C8532971   2.874   3.276   5.399 -0.3905  0.3594 -0.1298
   64MOL    C8632972   2.930   3.171   5.328  0.1199 -0.2118 -0.6686
   64MOL    C8732973   2.909   3.040   5.375 -0.1282  0.1965  0.2878
   64MOL    C8832974   2.841   3.014   5.490  0.6782  0.0599 -0.4945
   64MOL    C8932975   2.741   3.336   5.626  0.4725  0.0641  0.6569
   64MOL    C9032976   2.681   3.256   5.718 -0.4815  0.2385 -0.6017
   64MOL    C9132977   2.600   3.313   5.825  0.8117 -0.1136  0.3858
   64MOL    C9232978   2.596   3.447   5.839  0.0426  0.1649  0.3703
   64MOL    C9332979   2.676   3.521   5.756 -0.0910 -0.5738  0.4863
   64MOL    C9432980   2.742   3.470   5.647  1.2912 -0.3600  0.1908
   64MOL    H9532981   2.471   3.076   5.781 -0.5602 -0.6638 -0.1262
   64MOL    H9632982   2.473   2.901   5.783  0.8847 -1.1892 -2.0285
   64MOL    H9732983   2.715   2.928   5.692  0.1113  0.7730 -0.6295
   64MOL    H9832984   2.901   3.377   5.372  2.2163  0.4282  2.4067
   64MOL    H9932985   2.991   3.186   5.239 -0.6499  1.3012 -0.9512
   64MOL   H10032986   2.953   2.955   5.324  1.0827 -1.1411  3.3925
   64MOL   H10132987   2.840   2.912   5.525  2.5504  1.1315  2.8429
   64MOL   H10232988   2.540   3.261   5.899 -0.9415  0.2237 -0.7843
   64MOL   H10332989   2.531   3.484   5.917 -0.1794  0.4282  0.0587
   64MOL   H10432990   2.678   3.629   5.754  1.9107 -0.5997 -0.7152
   64MOL   H10532991   2.801   3.538   5.588  0.2795 -0.2416 -0.7018
   64MOL   C10632992   2.695   2.983   5.890  0.5015  0.3101  0.0878
   64MOL   C10732993   2.650   2.850   5.952  0.1308 -0.2271  0.3178
   64MOL   N10832994   2.663   2.731   5.857  0.4491  0.0824  0.8408
   64MOL   C10932995   2.560   2.639   5.812  0.0811  0.9167 -0.3338
   64MOL   C11032996   2.611   2.558   5.707 -0.3273 -0.1713  0.4314
   64MOL   C11132997   2.523   2.466   5.642 -0.1330 -0.0333  0.2864
   64MOL   C11232998   2.395   2.447   5.698 -0.7856  0.0634 -0.2746
   64MOL   C11332999   2.348   2.533   5.799  0.0614  0.0541  0.0709
   64MOL   C11433000   2.429   2.628   5.856 -0.3459 -0.0726 -0.0942
   64MOL   C11533001   2.748   2.596   5.687 -0.0960  0.2111  0.0336
   64MOL   C11633002   2.778   2.694   5.791 -0.0035 -0.7088  1.0286
   64MOL   C11733003   2.907   2.756   5.800  0.6314 -0.2166 -0.5413
   64MOL   C11833004   3.006   2.712   5.714  0.4319  0.3588  1.1110
   64MOL   C11933005   2.978   2.613   5.618 -0.1940  0.3249  0.9429
   64MOL   C12033006   2.851   2.553   5.605 -0.1832  0.3783 -1.0998
   64MOL   H12133007   2.802   2.998   5.898  0.3632  1.5904 -0.3534
   64MOL   H12233008   2.658   3.062   5.955 -2.2164  0.2092 -1.2338
   64MOL   H12333009   2.546   2.868   5.981 -0.2637  0.8138 -1.6760
   64MOL   H12433010   2.550   2.407   5.556  1.2301  0.1344  0.5938
   64MOL   H12533011   2.325   2.375   5.657 -3.6116  2.0171  0.9536
   64MOL   H12633012   2.243   2.527   5.826 -0.7235  1.6652 -2.4162
   64MOL   H12733013   2.390   2.704   5.922 -1.3318 -0.2340 -0.4827
   64MOL   H12833014   2.943   2.829   5.870  0.1532 -1.8968  1.5296
   64MOL   H12933015   3.102   2.760   5.719 -0.5769  2.2884  2.7309
   64MOL   H13033016   3.051   2.584   5.544 -1.8270 -0.8205 -0.2506
   64MOL   H13133017   2.841   2.483   5.524  0.1616 -0.2776 -0.5832
   64MOL   C13233018   2.742   2.829   6.076  1.0736 -0.2842  0.4367
   64MOL   C13333019   2.726   2.921   6.202 -0.0389  0.9090 -0.7138
   64MOL   N13433020   2.593   2.948   6.247 -0.2907  0.4298 -0.4231
   64MOL   C13533021   2.535   3.076   6.261  0.6484  0.4747 -0.1926
   64MOL   C13633022   2.406   3.061   6.309 -0.1344 -0.5941 -0.3016
   64MOL   C13733023   2.328   3.180   6.333 -0.5043  0.0128  0.4187
   64MOL   C13833024   2.374   3.303   6.289 -0.0439 -0.5449  0.3407
   64MOL   C13933025   2.496   3.314   6.229  0.7256 -0.1192  0.2735
   64MOL   C14033026   2.583   3.206   6.228  0.6607 -0.3442 -0.0099
   64MOL   C14133027   2.378   2.924   6.332 -0.9105 -0.2947 -0.4001
   64MOL   C14233028   2.496   2.853   6.287  0.2428 -0.4530  0.3421
   64MOL   C14333029   2.496   2.713   6.298  0.6058  0.1076 -0.3652
   64MOL   C14433030   2.395   2.636   6.365  0.1089  0.2030 -0.1421
   64MOL   C14533031   2.273   2.703   6.379  0.4873 -0.3580  0.3679
   64MOL   C14633032   2.265   2.847   6.375  0.4075  0.0526  0.3035
   64MOL   H14733033   2.718   2.729   6.111 -0.4404 -0.3377 -0.6910
   64MOL   H14833034   2.848   2.832   6.053  1.0849  0.3462  0.5496
   64MOL   H14933035   2.764   3.022   6.188 -0.1764  0.9692 -0.6502
   64MOL   H15033036   2.233   3.168   6.384 -0.0374 -3.2279  0.6573
   64MOL   H15133037   2.308   3.388   6.304  0.4108 -0.2522  0.7127
   64MOL   H15233038   2.531   3.415   6.212  0.1704 -0.1255 -0.9673
   64MOL   H15333039   2.684   3.226   6.195  0.3149  2.0250  0.2685
   64MOL   H15433040   2.583   2.659   6.262  0.9159  0.1404  0.3080
   64MOL   H15533041   2.398   2.528   6.371 -1.1371 -0.0084 -2.6590
   64MOL   H15633042   2.187   2.645   6.408  1.6542 -1.8272  0.9444
   64MOL   H15733043   2.168   2.892   6.389  0.9927  1.7215 -0.8445
   64MOL   C15833044   2.808   2.866   6.315 -0.1446 -0.1758 -0.3597
   64MOL   C15933045   2.963   2.881   6.303  0.2050  0.4943  0.0951
   64MOL   N16033046   3.000   3.015   6.259  0.4865  0.0094  0.6644
   64MOL   C16133047   3.068   3.044   6.142  0.0907 -0.7606  0.0424
   64MOL   C16233048   3.070   3.186   6.127 -0.1844 -0.6319  0.2465
   64MOL   C16333049   3.120   3.240   6.008 -0.4835 -0.1016 -0.3818
   64MOL   C16433050   3.183   3.151   5.913  0.1230  0.0406  0.0722
   64MOL   C16533051   3.196   3.009   5.936  0.2930 -0.4790  0.2281
   64MOL   C16633052   3.132   2.964   6.049  0.0912  0.3967 -0.2903
   64MOL   C16733053   3.008   3.242   6.245 -0.0219  0.2629  0.4431
   64MOL   C16833054   2.969   3.135   6.326 -0.1526  0.0009  0.1189
   64MOL   C16933055   2.915   3.166   6.450  0.7282 -1.0393  0.8041
   64MOL   C17033056   2.876   3.291   6.492 -0.7431  0.4701  0.8085
   64MOL   C17133057   2.918   3.395   6.409  0.4250 -0.7237  0.2493
   64MOL   C17233058   2.987   3.376   6.289 -0.7612  0.2247  0.1338
   64MOL   H17333059   2.779   2.915   6.408 -1.7397 -0.3716 -0.7556
   64MOL   H17433060   2.802   2.758   6.327  0.9845  0.0533  2.8047
   64MOL   H17533061   2.989   2.824   6.214 -1.8146 -0.9932  0.4221
   64MOL   H17633062   3.132   3.347   5.997  0.2254 -0.0561  0.7517
   64MOL   H17733063   3.216   3.201   5.824 -0.2128  1.4000  0.6882
   64MOL   H17833064   3.226   2.936   5.863 -1.5601 -2.0584  0.9841
   64MOL   H17933065   3.133   2.861   6.080 -0.0659  0.7107  0.7873
   64MOL   H18033066   2.890   3.088   6.521  0.7224 -0.1978  1.7371
   64MOL   H18133067   2.840   3.311   6.591  1.0063 -2.3564  2.0804
   64MOL   H18233068   2.905   3.501   6.421 -2.4182 -0.7000 -2.4463
   64MOL   H18333069   3.009   3.462   6.227 -1.8978 -0.3309 -1.0653
   64MOL   C18433070   3.050   2.829   6.418 -0.3236 -0.0182 -0.3523
   64MOL   C18533071   3.033   2.677   6.442 -0.1914 -0.0864 -0.1725
   64MOL   N18633072   3.076   2.606   6.321 -0.5664  0.4413 -0.5921
   64MOL   C18733073   2.992   2.535   6.236  0.0963  0.8643  0.8242
   64MOL   C18833074   3.060   2.505   6.110 -0.1187  0.0432  0.6425
   64MOL   C18933075   2.988   2.447   6.000 -0.2985 -0.1812  0.0129
   64MOL   C19033076   2.851   2.421   6.018 -0.0050 -0.0425  0.6308
   64MOL   C19133077   2.785   2.436   6.144 -0.2048  0.4827  0.1765
   64MOL   C19233078   2.856   2.489   6.255 -0.3136 -0.4564  0.2567
   64MOL   C19333079   3.193   2.558   6.128  0.0123 -0.4154  0.6843
   64MOL   C19433080   3.202   2.617   6.259  0.0428 -0.6315 -0.6364
   64MOL   C19533081   3.326   2.685   6.300 -0.5044  0.2189  0.1467
   64MOL   C19633082   3.434   2.700   6.203  0.0891 -0.2178  0.3670
   64MOL   C19733083   3.423   2.641   6.073 -0.3360 -0.0284  0.1979
   64MOL   C19833084   3.302   2.577   6.040  0.2955 -0.5209 -0.2688
   64MOL   H19933085   3.150   2.863   6.393  0.3313  1.6045  4.0370
   64MOL   H20033086   3.027   2.880   6.511  1.8389 -0.6923  0.5879
   64MOL   H20133087   2.926   2.657   6.446 -0.1411 -0.7075 -1.5839
   64MOL   H20233088   3.037   2.418   5.908  0.9263 -0.1388  0.6358
   64MOL   H20333089   2.798   2.386   5.931  0.3925  5.1016 -1.8527
   64MOL   H20433090   2.678   2.424   6.149 -0.4213  2.4444  0.4933
   64MOL   H20533091   2.801   2.502   6.346 -2.0974  0.5576 -0.9364
   64MOL   H20633092   3.339   2.720   6.401  1.3680  1.8681 -0.6404
   64MOL   H20733093   3.530   2.747   6.222  0.0970  0.4060 -1.1467
   64MOL   H20833094   3.505   2.651   6.004 -0.2077  0.3875  0.4103
   64MOL   H20933095   3.301   2.547   5.936  2.7459 -2.8030  0.3118
   64MOL   C21033096   3.095   2.619   6.573 -0.1676  0.7351  0.1083
   64MOL   C21133097   3.021   2.659   6.700 -0.1203 -0.7005  0.6941
   64MOL   N21233098   2.876   2.642   6.706  0.3676 -0.1590  0.0853
   64MOL   C21333099   2.776   2.746   6.697  0.6065  0.3612 -0.1199
   64MOL   C21433100   2.642   2.697   6.681 -0.1782 -0.5732 -0.0742
   64MOL   C21533101   2.536   2.785   6.656  0.0613  0.0705 -1.1457
   64MOL   C21633102   2.561   2.926   6.669 -0.0536 -0.4130  0.2606
   64MOL   C21733103   2.688   2.974   6.684 -0.1084  0.0762  0.5551
   64MOL   C21833104   2.796   2.886   6.704  0.7208 -0.4831 -0.1874
   64MOL   C21933105   2.660   2.555   6.677 -0.4296 -0.2335 -0.4249
   64MOL   C22033106   2.801   2.527   6.672  0.3683  0.1749 -0.2375
   64MOL   C22133107   2.850   2.397   6.648 -0.1001 -0.3706 -0.0184
   64MOL   C22233108   2.760   2.291   6.630  0.2180  0.1543 -0.6977
   64MOL   C22333109   2.619   2.316   6.632 -0.1818  0.0911  0.0110
   64MOL   C22433110   2.569   2.449   6.646 -0.0490  0.4532 -0.6403
   64MOL   H22533111   3.110   2.512   6.560  0.0882  0.4965  2.1899
   64MOL   H22633112   3.191   2.670   6.568  0.7834 -1.0652 -0.3455
   64MOL   H22733113   3.040   2.767   6.701 -0.2299 -0.6888  1.6110
   64MOL   H22833114   2.442   2.746   6.621  0.2139 -0.3902 -1.0491
   64MOL   H22933115   2.479   2.995   6.659  0.9307  0.6803 -0.3883
   64MOL   H23033116   2.696   3.081   6.696 -3.5691  0.7130 -2.0780
   64MOL   H23133117   2.891   2.932   6.727  0.8865  0.9474 -3.3395
   64MOL   H23233118   2.956   2.382   6.663 -0.0678 -1.4260 -1.1795
   64MOL   H23333119   2.798   2.190   6.638  0.0466  0.2185  1.0002
   64MOL   H23433120   2.546   2.237   6.624  0.3410 -0.4666  0.6607
   64MOL   H23533121   2.464   2.476   6.650  0.1896  1.1488  1.2685
   64MOL   C23633122   3.095   2.606   6.821  0.4650  0.0284  0.4701
   64MOL   C23733123   3.166   2.719   6.896 -0.5136  0.0084 -0.4805
   64MOL   N23833124   3.063   2.811   6.959  0.5078  0.3714 -0.1638
   64MOL   C23933125   3.053   2.946   6.937 -0.7589 -0.2913  0.1914
   64MOL   C24033126   2.959   3.006   7.020  0.1653 -0.0500 -0.2788
   64MOL   C24133127   2.934   3.144   7.013 -0.1600  0.2999  0.5915
   64MOL   C24233128   3.015   3.224   6.931  0.5519 -0.1618  0.4462
   64MOL   C24333129   3.107   3.166   6.842 -0.0522 -0.1894 -0.6865
   64MOL   C24433130   3.122   3.031   6.845 -0.2696  0.9406  0.4674
   64MOL   C24533131   2.907   2.902   7.097  0.2779  0.5496  0.3747
   64MOL   C24633132   2.971   2.779   7.063  0.1978 -0.8339 -0.7029
   64MOL   C24733133   2.937   2.659   7.132  0.4917  0.5040 -0.0787
   64MOL   C24833134   2.830   2.658   7.216  0.2631  0.0619  0.6905
   64MOL   C24933135   2.766   2.779   7.257 -0.4147 -0.2520  0.3280
   64MOL   C25033136   2.808   2.901   7.200 -0.4324 -0.3187  0.3728
   64MOL   H25133137   3.020   2.564   6.889  0.8328  1.5390  1.8386
   64MOL   H25233138   3.158   2.519   6.802  0.7902 -0.0738  1.9284
   64MOL   H25333139   3.215   2.774   6.817 -0.2455 -1.2856 -1.2306
   64MOL   H25433140   2.862   3.196   7.074 -1.3834 -0.2930 -0.3127
   64MOL   H25533141   2.994   3.330   6.933 -0.1854 -0.3068  0.5360
   64MOL   H25633142   3.167   3.228   6.778 -0.3416  3.0742  2.0983
   64MOL   H25733143   3.185   2.982   6.773 -1.5144  0.0632 -0.0420
   64MOL   H25833144   2.987   2.568   7.100  1.6015  0.5447  1.5309
   64MOL   H25933145   2.787   2.562   7.238 -1.0482  0.5073  0.0790
   64MOL   H26033146   2.687   2.779   7.330  0.3860 -0.5148  1.2085
   64MOL   H26133147   2.760   2.996   7.213 -0.1544  0.4940 -3.8296
   64MOL   C26233148   3.272   2.669   7.002  0.0341 -0.1371  0.5870
   64MOL   C26333149   3.394   2.582   6.959 -0.0457  0.1772  0.3879
   64MOL   N26433150   3.448   2.609   6.829  0.2607 -0.4508  0.3887
   64MOL   C26533151   3.480   2.515   6.734  0.8360 -0.1973  0.3531
   64MOL   C26633152   3.525   2.579   6.613  0.5677 -0.1142  0.1376
   64MOL   C26733153   3.566   2.495   6.507  0.1834  0.6648 -0.3592
   64MOL   C26833154   3.559   2.360   6.515  0.5987 -0.3624 -0.7586
   64MOL   C26933155   3.502   2.298   6.627 -0.4255 -0.4445 -0.3550
   64MOL   C27033156   3.479   2.374   6.739 -0.2741  0.2187  0.1126
   64MOL   C27133157   3.529   2.719   6.633  0.1375  0.3391  0.3795
   64MOL   C27233158   3.486   2.734   6.772 -0.7385  0.5240 -0.1956
   64MOL   C27333159   3.481   2.861   6.831 -0.5750 -1.2499  0.0970
   64MOL   C27433160   3.532   2.974   6.763  0.9290  0.2312 -0.3694
   64MOL   C27533161   3.579   2.955   6.631 -0.0651  0.0056  0.2119
   64MOL   C27633162   3.573   2.831   6.562  0.3289  0.1355  0.0596
   64MOL   H27733163   3.310   2.756   7.057 -0.4473 -0.7938  1.9910
   64MOL   H27833164   3.221   2.619   7.084 -0.3045 -0.4472  0.1798
   64MOL   H27933165   3.342   2.487   6.945 -0.7261  0.7392 -0.9949
   64MOL   H28033166   3.611   2.539   6.419  0.2423 -1.2420 -1.3174
   64MOL   H28133167   3.576   2.296   6.430  0.7484  0.0227 -1.0157
   64MOL   H28233168   3.491   2.191   6.629 -1.0156 -0.3863 -0.3760
   64MOL   H28333169   3.456   2.322   6.831  0.1495 -0.9991 -0.4678
   64MOL   H28433170   3.462   2.877   6.936  0.0477 -0.7169  0.1311
   64MOL   H28533171   3.521   3.069   6.814  0.4168  0.2266 -0.4695
   64MOL   H28633172   3.607   3.036   6.565 -0.0209 -1.1719 -1.2396
   64MOL   H28733173   3.623   2.822   6.467  2.1456 -0.0915  1.0274
   64MOL   C28833174   3.512   2.563   7.056  0.2160 -0.0239  0.7671
   64MOL   C28933175   3.462   2.514   7.198 -0.6916  0.0463 -0.4569
   64MOL   N29033176   3.414   2.380   7.185  0.5714  0.6040 -0.0408
   64MOL   C29133177   3.286   2.335   7.220  0.0424  0.6310  0.0956
   64MOL   C29233178   3.273   2.195   7.199  0.2667 -0.3302 -0.1337
   64MOL   C29333179   3.145   2.136   7.217  0.1376  0.0728 -0.1257
   64MOL   C29433180   3.039   2.209   7.266 -0.3267  0.1138  0.1681
   64MOL   C29533181   3.055   2.346   7.286  0.6149  0.2441  0.1066
   64MOL   C29633182   3.175   2.409   7.271  0.1502  0.4110  0.7820
   64MOL   C29733183   3.402   2.152   7.155  0.6942  1.0106 -0.2548
   64MOL   C29833184   3.485   2.263   7.151 -0.4673  0.2312 -0.5744
   64MOL   C29933185   3.625   2.247   7.115  0.1763  0.3765  0.4695
   64MOL   C30033186   3.672   2.120   7.073  0.1947 -0.1221  0.1184
   64MOL   C30133187   3.582   2.013   7.058 -0.7087  0.6634 -0.5039
   64MOL   C30233188   3.458   2.027   7.115  0.4581 -0.0072  0.5649
   64MOL   H30333189   3.571   2.482   7.014  0.4997 -0.0319  1.1727
   64MOL   H30433190   3.580   2.647   7.067  1.4687 -0.6752 -1.6946
   64MOL   H30533191   3.375   2.576   7.219 -1.2160  0.0336 -2.4600
   64MOL   H30633192   3.129   2.032   7.194  1.4905 -0.5149  1.5189
   64MOL   H30733193   2.951   2.153   7.294  0.5573 -1.8629 -0.9027
   64MOL   H30833194   2.973   2.396   7.336  2.1225  3.0158 -0.1278
   64MOL   H30933195   3.175   2.514   7.293  0.7436  0.1178  2.2222
   64MOL   H31033196   3.698   2.326   7.124  1.3371 -0.3734 -2.0209
   64MOL   H31133197   3.775   2.113   7.043 -0.1686 -0.4183 -1.0908
   64MOL   H31233198   3.617   1.914   7.033 -0.1326  0.4643  1.0688
   64MOL   H31333199   3.390   1.943   7.122 -1.7005  1.4104 -2.1037
   64MOL   C31433200   3.553   2.535   7.320  0.3467  0.8627 -0.0922
   64MOL   C31533201   3.578   2.676   7.367  0.1994 -0.4977 -0.3384
   64MOL   N31633202   3.452   2.749   7.371 -0.0719 -0.2328 -0.0386
   64MOL   C31733203   3.428   2.871   7.307  0.2622  0.1998 -0.7105
   64MOL   C31833204   3.290   2.898   7.315  0.0149  0.5112 -0.9477
   64MOL   C31933205   3.236   3.010   7.248 -0.8064 -0.0557  0.0172
   64MOL   C32033206   3.315   3.101   7.179  0.2979  0.4495  1.0568
   64MOL   C32133207   3.450   3.070   7.157 -0.0285 -0.7367 -0.1420
   64MOL   C32233208   3.510   2.959   7.228  0.9640 -0.6769  0.2380
   64MOL   C32333209   3.229   2.796   7.405 -0.4356 -0.3183 -0.0779
   64MOL   C32433210   3.335   2.710   7.446 -0.5792 -0.0855  0.4755
   64MOL   C32533211   3.301   2.603   7.532 -0.4188  0.0465 -0.2779
   64MOL   C32633212   3.170   2.577   7.579 -0.1798 -0.9473 -0.5502
   64MOL   C32733213   3.064   2.661   7.537 -0.3693  0.2628  0.4769
   64MOL   C32833214   3.099   2.773   7.452  0.5289 -0.8845  0.0607
   64MOL   H32933215   3.506   2.476   7.398 -0.3237  1.0506 -0.3491
   64MOL   H33033216   3.653   2.492   7.312  0.7450  1.5659  1.0132
   64MOL   H33133217   3.641   2.727   7.294 -0.3123 -0.7570 -0.9582
   64MOL   H33233218   3.129   3.025   7.262 -1.0999 -0.0439 -2.0582
   64MOL   H33333219   3.277   3.197   7.146 -1.7097 -1.0400 -1.0917
   64MOL   H33433220   3.513   3.135   7.098 -0.5530  0.2518  0.3765
   64MOL   H33533221   3.617   2.947   7.232  1.1839  1.4205  1.6080
   64MOL   H33633222   3.383   2.544   7.570  0.0791  1.2383  0.5314
   64MOL   H33733223   3.145   2.494   7.643 -2.2013  0.4052  0.4430
   64MOL   H33833224   2.960   2.637   7.556 -0.7439  0.8481 -0.7761
   64MOL   H33933225   3.016   2.839   7.429  0.9978 -0.7053 -1.1517
   64MOL   C34033226   3.651   2.671   7.501  0.4052 -1.0472 -0.5237
   64MOL   C34133227   3.628   2.786   7.607 -0.6200 -0.3928 -0.1341
   64MOL   N34233228   3.687   2.757   7.743  0.7601  0.0710  0.0224
   64MOL   C34333229   3.621   2.757   7.867 -0.1143 -0.4658 -0.2326
   64MOL   C34433230   3.717   2.759   7.973 -0.1432  0.4791  0.1724
   64MOL   C34533231   3.673   2.793   8.106  0.1794 -0.2924 -0.1796
   64MOL   C34633232   3.531   2.810   8.128  0.3856  0.1993 -0.2114
   64MOL   C34733233   3.441   2.783   8.029 -0.0397  0.7850  0.0111
   64MOL   C34833234   3.482   2.767   7.899  0.1348  0.1910  0.4914
   64MOL   C34933235   3.846   2.742   7.912 -0.4382 -0.7227 -0.4053
   64MOL   C35033236   3.824   2.743   7.771 -0.1752 -1.2102  0.0217
   64MOL   C35133237   3.930   2.732   7.682 -0.5946 -1.0527 -0.9450
   64MOL   C35233238   4.061   2.729   7.732 -0.0236  0.3948  0.1933
   64MOL   C35333239   4.088   2.719   7.869  0.2531 -1.1257 -0.1424
   64MOL   C35433240   3.978   2.742   7.959  0.2883  0.2126 -0.2406
   64MOL   H35533241   3.606   2.588   7.554 -0.7828  0.6573  1.2171
   64MOL   H35633242   3.756   2.645   7.487  0.7219  0.7499 -1.8330
   64MOL   H35733243   3.521   2.807   7.608 -0.4864  0.4802  2.3155
   64MOL   H35833244   3.741   2.804   8.189  0.7983  2.2219 -1.0008
   64MOL   H35933245   3.490   2.843   8.222  0.5836  0.7214 -0.3031
   64MOL   H36033246   3.338   2.782   8.063  0.5243 -0.0074  1.7338
   64MOL   H36133247   3.401   2.756   7.828  0.3258  1.0210  0.1361
   64MOL   H36233248   3.926   2.740   7.574  4.3472  3.0750 -1.0065
   64MOL   H36333249   4.139   2.710   7.659  0.6519  0.0149  1.0004
   64MOL   H36433250   4.191   2.695   7.895  0.0390  0.4764  2.3158
   64MOL   H36533251   3.995   2.757   8.065 -0.5246  0.5718 -0.1570
   64MOL   C36633252   3.693   2.923   7.557 -0.1732  0.2712 -0.0016
   64MOL   C36733253   3.698   3.040   7.650  0.0095  0.1689 -0.2432
   64MOL   N36833254   3.790   3.149   7.610 -0.0267 -0.1905  1.0834
   64MOL   C36933255   3.916   3.175   7.674  0.3239  0.0220  0.2102
   64MOL   C37033256   3.982   3.284   7.611 -0.1903  0.3091  0.9400
   64MOL   C37133257   4.094   3.337   7.673 -0.1299 -0.6540  0.1351
   64MOL   C37233258   4.147   3.281   7.790 -0.1795  0.5290  0.0318
   64MOL   C37333259   4.093   3.162   7.838  0.7145  0.3240 -0.0838
   64MOL   C37433260   3.977   3.114   7.788 -0.3885  0.5290  0.0479
   64MOL   C37533261   3.900   3.329   7.504 -0.2667 -0.1485 -0.8508
   64MOL   C37633262   3.781   3.247   7.506  0.1350 -0.5529 -0.2461
   64MOL   C37733263   3.678   3.267   7.419 -0.2733 -0.2870 -0.4940
   64MOL   C37833264   3.687   3.372   7.322 -0.3499 -0.2584 -0.3271
   64MOL   C37933265   3.802   3.455   7.324  0.5791 -0.4207 -0.2743
   64MOL   C38033266   3.910   3.434   7.412 -0.1936  0.1632 -0.3017
   64MOL   H38133267   3.795   2.915   7.520 -0.1204  0.2597  0.1423
   64MOL   H38233268   3.630   2.954   7.474  2.4951  1.3159 -1.6834
   64MOL   H38333269   3.735   3.003   7.746 -2.0124  1.3031  1.0072
   64MOL   H38433270   4.138   3.431   7.643  0.3578 -0.6233  0.9413
   64MOL   H38533271   4.235   3.319   7.840  0.1713 -0.9925  0.5803
   64MOL   H38633272   4.132   3.102   7.918 -0.7451 -2.3026 -1.2575
   64MOL   H38733273   3.939   3.023   7.834  1.2999 -0.3798 -0.3352
   64MOL   H38833274   3.588   3.207   7.415  0.2649 -1.0344 -2.0424
   64MOL   H38933275   3.607   3.391   7.252 -0.6787 -0.1281  0.0808
   64MOL   H39033276   3.801   3.541   7.259 -3.2775 -0.8338 -0.8514
   64MOL   H39133277   3.998   3.497   7.413  1.7487 -2.4699  1.0186
   64MOL   C39233278   3.570   3.090   7.698  0.2076  0.5828 -0.1302
   64MOL   C39333279   3.572   3.173   7.827  0.1403  0.0492  0.0013
   64MOL   N39433280   3.453   3.256   7.835  0.2861  0.1085 -0.0660
   64MOL   C39533281   3.452   3.397   7.814 -0.4788 -0.0711 -0.4265
   64MOL   C39633282   3.316   3.437   7.824  0.2713  0.9195  0.2120
   64MOL   C39733283   3.288   3.577   7.814  0.2148  0.2538 -0.2563
   64MOL   C39833284   3.396   3.667   7.793  0.0132  0.2378 -0.0580
   64MOL   C39933285   3.528   3.620   7.779  0.5044 -1.0904  0.1791
   64MOL   C40033286   3.555   3.484   7.787 -0.8156  0.2122 -0.2709
   64MOL   C40133287   3.234   3.324   7.856 -0.5022 -0.3912  0.0509
   64MOL   C40233288   3.323   3.209   7.865 -0.1341  0.8446  0.2334
   64MOL   C40333289   3.280   3.077   7.893  0.6406  0.0395 -0.4074
   64MOL   C40433290   3.143   3.056   7.921 -0.0545 -0.2898  0.6610
   64MOL   C40533291   3.056   3.167   7.925 -0.4390 -0.8491  0.4158
   64MOL   C40633292   3.103   3.298   7.889 -0.3887 -0.5513 -0.2809
   64MOL   H40733293   3.512   3.137   7.618  0.1619 -0.7192 -0.8757
   64MOL   H40833294   3.507   3.009   7.735 -1.1052  2.7154  2.5682
   64MOL   H40933295   3.656   3.237   7.803 -1.0330  1.4396 -0.4901
   64MOL   H41033296   3.189   3.620   7.821 -0.1846 -0.6218 -0.5080
   64MOL   H41133297   3.378   3.772   7.771 -1.0340  0.1661  0.4364
   64MOL   H41233298   3.608   3.687   7.750  0.2117 -2.1746 -3.4108
   64MOL   H41333299   3.658   3.454   7.778 -0.6997 -0.2967  2.2457
   64MOL   H41433300   3.351   2.996   7.892  1.0964  0.4392 -1.6845
   64MOL   H41533301   3.107   2.961   7.957  3.3223 -1.3426  1.4686
   64MOL   H41633302   2.955   3.148   7.959 -0.6541  0.0851  0.3225
   64MOL   H41733303   3.047   3.388   7.905  4.9147  2.9668 -0.0490
   64MOL   C41833304   3.620   3.118   7.970 -0.1056 -0.0108  0.0152
   64MOL   C41933305   3.647   3.221   8.073 -0.5356  0.0283 -0.7477
   64MOL   N42033306   3.661   3.161   8.205 -0.7244 -0.2787  0.1359
   64MOL   C42133307   3.558   3.156   0.071 -0.7530  0.6925 -0.6877
   64MOL   C42233308   3.614   3.102   0.189  0.2835  0.1495 -0.2472
   64MOL   C42333309   3.529   3.101   0.303 -0.0215 -0.1114  0.2594
   64MOL   C42433310   3.394   3.149   0.295  0.4658 -0.0335  0.2800
   64MOL   C42533311   3.344   3.192   0.177  0.0793  0.3504  0.9495
   64MOL   C42633312   3.421   3.191   0.059 -0.4708  0.1285  0.2984
   64MOL   C42733313   3.753   3.073   0.167 -0.8670 -0.1767  0.0454
   64MOL   C42833314   3.773   3.094   0.030 -0.1937 -0.2738  0.2660
   64MOL   C42933315   3.899   3.065   8.196  0.1493  0.0617  0.5292
   64MOL   C43033316   4.007   3.012   0.042  0.9033  0.4068  0.0165
   64MOL   C43133317   3.985   2.987   0.180  0.1894 -0.1944 -0.1274
   64MOL   C43233318   3.860   3.015   0.241  0.3396 -0.4233  0.5207
   64MOL   H43333319   3.542   3.050   8.005 -0.1864 -0.3387 -0.7873
   64MOL   H43433320   3.711   3.059   7.959  1.0663  1.6563  0.4741
   64MOL   H43533321   3.565   3.293   8.077  0.3198  0.9003  2.3936
   64MOL   H43633322   3.564   3.052   0.392  1.8780 -1.9140 -1.4346
   64MOL   H43733323   3.336   3.143   0.386 -1.3488 -0.4322 -0.8788
   64MOL   H43833324   3.245   3.235   0.170  0.1143 -0.0511 -3.3068
   64MOL   H43933325   3.372   3.218   8.194  1.6138  1.2611 -0.5244
   64MOL   H44033326   3.915   3.087   8.092  0.0935 -0.6765  0.3665
   64MOL   H44133327   4.099   2.986   8.220  0.8164  0.9851 -0.4640
   64MOL   H44233328   4.065   2.943   0.237 -0.3497  0.1096  0.8853
   64MOL   H44333329   3.844   2.981   0.343 -2.4281  0.5492  0.4594
   64MOL   C44433330   3.769   3.316   8.044 -0.2250  0.0816 -0.7874
   64MOL   C44533331   3.811   3.423   8.151  0.3116  0.0899  0.0066
   64MOL   N44633332   3.956   3.445   8.145 -0.2562  0.0669 -0.1201
   64MOL   C44733333   4.047   3.391   0.009  0.4555  0.3301 -0.1497
   64MOL   C44833334   4.175   3.421   8.197  0.2027  0.0446  0.1415
   64MOL   C44933335   4.285   3.377   0.041 -0.2774  0.2508  0.4885
   64MOL   C45033336   4.264   3.296   0.152 -0.1061 -0.4594  0.1589
   64MOL   C45133337   4.131   3.263   0.202  0.1227 -0.4537  0.0087
   64MOL   C45233338   4.021   3.315   0.126  0.0721  0.4628  0.3471
   64MOL   C45333339   4.168   3.507   8.083 -0.0576 -0.3989  0.0860
   64MOL   C45433340   4.028   3.517   8.051 -0.5961  0.4830  0.0669
   64MOL   C45533341   3.984   3.580   7.932 -0.0165 -0.5430  0.4007
   64MOL   C45633342   4.081   3.653   7.857 -0.7320 -0.8611 -1.1850
   64MOL   C45733343   4.218   3.646   7.883  0.1228  0.2512 -0.4532
   64MOL   C45833344   4.258   3.575   7.995  0.3720  0.2234 -0.5215
   64MOL   H45933345   3.854   3.255   8.013 -0.1346 -0.2447  0.0784
   64MOL   H46033346   3.746   3.364   7.949 -0.6242 -1.3496 -1.4213
   64MOL   H46133347   3.783   3.394   0.025 -1.2106  4.5635  0.9690
   64MOL   H46233348   4.379   3.407   8.225 -0.2164  2.0778  1.8149
   64MOL   H46333349   4.344   3.259   0.214  0.7984  0.6358 -0.3448
   64MOL   H46433350   4.114   3.202   0.289 -0.3405  1.0894  1.0204
   64MOL   H46533351   3.920   3.292   0.157 -0.6088  0.7057 -1.6131
   64MOL   H46633352   3.883   3.585   7.895  0.7071  0.2387 -1.5406
   64MOL   H46733353   4.056   3.719   7.776 -0.1827  0.2602 -0.4536
   64MOL   H46833354   4.287   3.699   7.819  0.1786  1.0743  0.2774
   64MOL   H46933355   4.363   3.561   8.014  0.8269  0.8952 -2.4087
   64MOL   C47033356   3.721   3.542   8.133 -0.0331 -0.1530  0.8239
   64MOL   C47133357   3.762   3.677   8.200  0.0501  0.4714  1.1307
   64MOL   N47233358   3.662   3.775   8.170  0.3035  0.0635  0.5123
   64MOL   C47333359   3.667   3.867   8.061  0.4550 -0.3061 -0.7855
   64MOL   C47433360   3.558   3.955   8.071 -0.7642  0.1789  0.6834
   64MOL   C47533361   3.557   4.073   7.998 -0.2567 -1.2933 -0.3465
   64MOL   C47633362   3.649   4.100   7.900  0.0217  0.6292 -0.2096
   64MOL   C47733363   3.765   4.012   7.895  0.2569  0.4189  0.2199
   64MOL   C47833364   3.768   3.893   7.969  0.5298  0.1629 -0.1245
   64MOL   C47933365   3.468   3.897   8.177 -0.4189 -0.0805  1.2312
   64MOL   C48033366   3.540   3.786   0.007 -0.1874 -0.2191  0.0336
   64MOL   C48133367   3.477   3.708   0.102 -0.0236  0.0988 -0.0609
   64MOL   C48233368   3.353   3.746   0.156  0.3929 -0.1760 -0.6940
   64MOL   C48333369   3.291   3.862   0.111  0.2275 -0.0326 -0.8550
   64MOL   C48433370   3.347   3.934   0.006 -0.5367 -0.0383  0.6334
   64MOL   H48533371   3.704   3.560   8.027 -2.8242 -1.3513  1.0266
   64MOL   H48633372   3.625   3.507   8.171 -0.0799 -0.6671  0.2280
   64MOL   H48733373   3.848   3.720   8.150 -0.0297 -0.8690 -0.1928
   64MOL   H48833374   3.472   4.140   8.007 -0.1409 -1.0622 -0.9843
   64MOL   H48933375   3.637   4.181   7.829 -2.5275  1.4871  1.1604
   64MOL   H49033376   3.840   4.026   7.818  0.4218  3.5982  0.8835
   64MOL   H49133377   3.846   3.819   7.964 -0.8561 -1.2379 -1.5277
   64MOL   H49233378   3.525   3.617   0.135 -0.0087  0.2526  0.3451
   64MOL   H49333379   3.295   3.700   0.234  1.7318 -0.5912  0.0774
   64MOL   H49433380   3.191   3.884   0.147  1.5773  0.8328  2.5635
   64MOL   H49533381   3.289   4.012   8.186  1.0513  0.6613 -0.1885
   64MOL   C49633382   3.805   3.673   0.124  0.1818  0.0963 -0.2637
   64MOL   C49733383   3.815   3.812   0.192 -0.7529 -0.5692  0.2412
   64MOL   N49833384   3.886   3.821   0.315  0.3661 -1.1185  0.3547
   64MOL   C49933385   3.902   3.735   0.426  0.7023 -0.5010 -0.0109
   64MOL   C50033386   3.993   3.795   0.517  0.7625 -0.1862 -0.6097
   64MOL   C50133387   4.036   3.715   0.623 -0.1041  0.2898  0.0808
   64MOL   C50233388   3.992   3.585   0.646 -0.3900  0.0007  0.1210
   64MOL   C50333389   3.898   3.531   0.560 -1.0894  0.3596 -0.0212
   64MOL   C50433390   3.850   3.602   0.455  0.1373  0.3237  0.0414
   64MOL   C50533391   4.015   3.931   0.475  0.0316  0.8268 -0.0660
   64MOL   C50633392   3.956   3.945   0.346 -0.5779  0.8720 -0.3436
   64MOL   C50733393   3.972   4.063   0.269 -0.2021 -0.7828  0.3433
   64MOL   C50833394   4.042   4.175   0.323 -0.6863 -0.4374 -0.2304
   64MOL   C50933395   4.094   4.165   0.453  0.2689 -0.5503 -0.2961
   64MOL   C51033396   4.084   4.043   0.526 -0.7897  0.0411  0.2297
   64MOL   H51133397   3.739   3.603   0.175 -0.1121  0.1719 -0.5425
   64MOL   H51233398   3.899   3.618   0.120 -0.2185 -0.6109 -0.0711
   64MOL   H51333399   3.718   3.862   0.195  0.2835  1.6616 -1.8343
   64MOL   H51433400   4.099   3.765   0.695 -0.2070  1.1769 -0.4374
   64MOL   H51533401   4.018   3.536   0.739 -2.4051  1.0671  1.2799
   64MOL   H51633402   3.857   3.433   0.581  0.4869 -0.6212 -1.3469
   64MOL   H51733403   3.767   3.562   0.398  0.5400 -1.0494  0.4257
   64MOL   H51833404   3.932   4.065   0.168  0.5609  0.7413  0.0655
   64MOL   H51933405   4.045   4.262   0.260 -0.3618  1.0514  1.8018
   64MOL   H52033406   4.148   4.253   0.485 -3.0178  1.8051 -1.0378
   64MOL   H52133407   4.137   4.033   0.620 -3.3915 -0.6805  1.6789
   64MOL   H52233408   3.861   3.878   0.119 -1.1888 -0.0269  0.4495
   65MOL     C133409   1.560   0.092   0.151 -0.1861 -0.2741  0.2521
   65MOL     C233410   1.522   0.164   0.275  0.0109 -0.2160 -0.0806
   65MOL     N333411   1.413   0.262   0.250  0.4691 -0.9991 -0.5323
   65MOL     C433412   1.420   0.401   0.276 -0.0391  0.8197 -0.0857
   65MOL     C533413   1.301   0.466   0.251 -0.7247 -0.4484 -0.0008
   65MOL     C633414   1.292   0.609   0.262  0.2663  0.4029 -0.0999
   65MOL     C733415   1.400   0.688   0.309 -0.5772  1.2086 -0.2618
   65MOL     C833416   1.516   0.616   0.350 -0.3487  0.2791 -0.9570
   65MOL     C933417   1.527   0.479   0.331 -0.1041 -0.7794  0.3214
   65MOL    C1033418   1.216   0.364   0.213  0.2707  0.5263  0.6445
   65MOL    C1133419   1.282   0.239   0.217  0.0341  0.6425  0.2784
   65MOL    C1233420   1.214   0.122   0.191 -0.2839 -0.0641  0.3549
   65MOL    C1333421   1.076   0.119   0.152  0.7855 -0.5218 -0.5344
   65MOL    C1433422   1.007   0.247   0.147  0.9574 -0.4737  0.0230
   65MOL    C1533423   1.077   0.366   0.181 -0.1261  0.6599 -0.0997
   65MOL    H1633424   1.582   0.173   0.082 -0.1477 -0.1264  0.4380
   65MOL    H1733425   1.480   0.031   0.109 -1.5060  0.4635  1.6493
   65MOL    H1833426   1.606   0.212   0.324  1.1727 -0.5056 -1.7474
   65MOL    H1933427   1.194   0.643   0.231 -1.5516 -1.9770  2.7355
   65MOL    H2033428   1.398   0.796   0.311  1.5147  1.3024 -1.5634
   65MOL    H2133429   1.596   0.679   0.384 -3.5667  4.7486 -1.2693
   65MOL    H2233430   1.624   0.439   0.359  0.4190 -0.5862 -1.1867
   65MOL    H2333431   1.265   0.027   0.198 -0.5753 -0.1597  1.3461
   65MOL    H2433432   1.028   0.024   0.133  1.1461 -1.0546  1.0847
   65MOL    H2533433   0.899   0.251   0.138  1.0580  1.6695 -0.4985
   65MOL    H2633434   1.017   0.455   0.188 -2.5871 -0.9786  0.5262
   65MOL    H2733435   1.644   0.024   0.169 -0.5075 -0.2892  1.7082
   65MOL    C2833436   1.470   0.069   0.382 -0.3232  0.1985 -0.4774
   65MOL    C2933437   1.581   8.211   0.453  0.2729  0.4637 -0.5692
   65MOL    N3033438   1.705   0.055   0.490  0.3665 -0.0236 -0.1145
   65MOL    C3133439   1.837   0.010   0.471 -0.2436  0.8284 -0.3778
   65MOL    C3233440   1.935   0.103   0.529 -0.1746  0.2654 -0.2226
   65MOL    C3333441   2.076   0.071   0.526 -0.3967 -0.3289  0.8477
   65MOL    C3433442   2.112   8.173   0.478  0.9646 -0.0258  0.0496
   65MOL    C3533443   2.016   8.085   0.414 -0.6136 -0.5771  0.3886
   65MOL    C3633444   1.881   8.116   0.415  0.9220 -0.0677  0.2520
   65MOL    C3733445   1.861   0.210   0.580  0.2362 -0.3781  0.0747
   65MOL    C3833446   1.721   0.177   0.557  0.9242 -0.4933  0.8833
   65MOL    C3933447   1.627   0.269   0.596 -0.4006  0.0526  0.0382
   65MOL    C4033448   1.667   0.396   0.657  0.0145  0.3828  0.1902
   65MOL    C4133449   1.798   0.422   0.685 -0.8599  0.0286  0.1120
   65MOL    C4233450   1.893   0.327   0.648 -0.3367  0.6492  0.6772
   65MOL    H4333451   1.425   0.128   0.461  0.5151 -1.4061  1.2402
   65MOL    H4433452   1.393   0.001   0.346 -0.4307 -0.3506  0.7688
   65MOL    H4533453   1.607   8.143   0.372  0.6393  0.3429 -0.3513
   65MOL    H4633454   2.151   0.141   0.559 -0.7231 -0.2441  1.4200
   65MOL    H4733455   2.216   8.144   0.483  1.5629  2.2506  1.5794
   65MOL    H4833456   2.050   7.995   0.365 -0.8284 -0.5966  0.2772
   65MOL    H4933457   1.809   8.044   0.378  1.8669 -1.6195  1.3845
   65MOL    H5033458   1.527   0.251   0.558  0.0856  0.9440 -1.7141
   65MOL    H5133459   1.589   0.459   0.697  2.6471  1.3680  4.0818
   65MOL    H5233460   1.826   0.512   0.738 -2.1293 -0.4988  1.7086
   65MOL    H5333461   1.997   0.340   0.673  0.5093  0.5776 -2.6127
   65MOL    C5433462   1.538   8.123   0.576  0.2961 -1.2553  0.3917
   65MOL    C5533463   1.420   8.021   0.563  0.0604 -0.6638 -0.5859
   65MOL    N5633464   1.435   7.925   0.454 -0.4715 -1.0752 -0.3394
   65MOL    C5733465   1.348   7.910   0.345 -0.0197  0.2275  0.1101
   65MOL    C5833466   1.399   7.812   0.253  0.3249 -0.9112  0.0273
   65MOL    C5933467   1.337   7.790   0.130 -0.3615  0.6512 -0.0416
   65MOL    C6033468   1.224   7.863   0.102  0.0043 -0.5301 -0.0209
   65MOL    C6133469   1.174   7.967   0.181  0.4939  0.1348 -0.4147
   65MOL    C6233470   1.236   7.990   0.303 -0.0963 -0.3145 -0.2996
   65MOL    C6333471   1.504   7.748   0.324  0.4793  0.0903 -0.2509
   65MOL    C6433472   1.534   7.822   0.448  0.1810  0.1868  0.7315
   65MOL    C6533473   1.650   7.800   0.523  0.1696 -0.1675  0.3688
   65MOL    C6633474   1.732   7.693   0.487 -0.0692  0.4674  0.7083
   65MOL    C6733475   1.701   7.616   0.378  0.1019 -0.6778  0.9526
   65MOL    C6833476   1.596   7.646   0.296  0.1058 -0.1671  0.2594
   65MOL    H6933477   1.615   8.065   0.626  0.6789 -0.8279  0.3034
   65MOL    H7033478   1.518   8.197   0.654  0.0630 -0.4705 -0.3981
   65MOL    H7133479   1.332   8.085   0.555  0.1003 -0.6450 -0.8813
   65MOL    H7233480   1.368   7.712   0.063 -0.0058  0.9246 -0.1942
   65MOL    H7333481   1.184   7.838   0.005 -0.5139 -1.1174  0.3446
   65MOL    H7433482   1.087   8.024   0.153 -1.0164 -1.7307  0.3213
   65MOL    H7533483   1.201   8.072   0.364 -0.5954  0.0946 -1.1249
   65MOL    H7633484   1.678   7.862   0.607  0.1197 -0.8253  0.8760
   65MOL    H7733485   1.825   7.674   0.539  1.7411  1.6977 -1.9675
   65MOL    H7833486   1.754   7.528   0.344 -0.1828  0.3710 -2.4597
   65MOL    H7933487   1.583   7.595   0.202 -0.2774  0.0514  0.1928
   65MOL    C8033488   1.386   7.952   0.699  0.3063 -0.1692  0.5153
   65MOL    C8133489   1.248   7.882   0.683  0.0726 -0.3219 -0.1321
   65MOL    N8233490   1.258   7.740   0.639 -0.3760 -0.1452  0.1109
   65MOL    C8333491   1.160   7.684   0.555  0.1807  0.4270 -0.3527
   65MOL    C8433492   1.179   7.549   0.543 -0.4899  0.1252  0.7924
   65MOL    C8533493   1.082   7.473   0.477  0.4871  0.1250  0.2086
   65MOL    C8633494   0.971   7.534   0.417  0.4573 -0.2510 -0.2691
   65MOL    C8733495   0.948   7.671   0.432  0.5458  0.6371 -0.0318
   65MOL    C8833496   1.041   7.743   0.503  0.7534 -0.2413  0.1458
   65MOL    C8933497   1.301   7.524   0.608 -0.1262  0.6867  0.4859
   65MOL    C9033498   1.342   7.641   0.675  0.5951  0.1929 -0.7732
   65MOL    C9133499   1.438   7.633   0.774  0.3498  0.1145 -0.5662
   65MOL    C9233500   1.506   7.514   0.806  0.0534 -0.3066  0.2156
   65MOL    C9333501   1.469   7.396   0.746  0.6411 -0.7117 -0.6430
   65MOL    C9433502   1.373   7.404   0.633 -0.4442  0.2715  0.1098
   65MOL    H9533503   1.475   7.893   0.722  0.4648  0.0236  0.3986
   65MOL    H9633504   1.375   8.030   0.774  2.3543  0.9025 -0.2518
   65MOL    H9733505   1.196   7.935   0.603 -0.5020  1.1715  1.2105
   65MOL    H9833506   1.100   7.367   0.480  1.0567  0.2474  2.4033
   65MOL    H9933507   0.897   7.484   0.357  0.1457 -0.7057  0.4868
   65MOL   H10033508   0.858   7.712   0.387 -0.5745 -1.6408  0.0335
   65MOL   H10133509   1.018   7.847   0.520  1.1338 -0.5084  2.5301
   65MOL   H10233510   1.472   7.721   0.827 -1.1062  0.0011  0.5692
   65MOL   H10333511   1.583   7.518   0.881  1.4778 -0.6850 -1.1922
   65MOL   H10433512   1.511   7.298   0.766 -0.8550 -1.3484 -0.5809
   65MOL   H10533513   1.348   7.313   0.581 -2.0175  1.4572 -1.2638
   65MOL   C10633514   1.150   7.892   0.798  0.2366  0.3477 -0.7254
   65MOL   C10733515   1.100   8.036   0.840 -0.7567  0.1732 -0.0436
   65MOL   N10833516   1.050   8.115   0.728 -0.5519 -0.0584  0.0278
   65MOL   C10933517   1.104   0.010   0.687  0.1803 -0.5098 -0.3800
   65MOL   C11033518   1.028   0.068   0.582 -0.3288  0.5831  0.0311
   65MOL   C11133519   1.066   0.195   0.525  0.4611 -0.0393 -0.4706
   65MOL   C11233520   1.184   0.260   0.575  0.2974  0.4517 -0.9471
   65MOL   C11333521   1.265   0.197   0.671  0.8185  0.6214  0.5590
   65MOL   C11433522   1.222   0.079   0.734  0.1326  0.2385 -0.6576
   65MOL   C11533523   0.923   8.205   0.557 -0.1326  0.3206 -0.7527
   65MOL   C11633524   0.935   8.095   0.646 -0.4284  0.4331  0.7084
   65MOL   C11733525   0.843   7.989   0.647 -0.0888  0.2894  0.1557
   65MOL   C11833526   0.743   7.982   0.555  0.1542  0.6528 -0.6440
   65MOL   C11933527   0.720   8.090   0.467 -0.0459 -0.3549  0.7010
   65MOL   C12033528   0.810   8.197   0.469 -0.8301  0.6046  0.1404
   65MOL   H12133529   1.063   7.829   0.778 -1.4689  2.2284  0.4838
   65MOL   H12233530   1.211   7.860   0.882  1.2413  2.0514 -0.7777
   65MOL   H12333531   1.185   8.084   0.888 -0.3401 -0.5505 -0.0542
   65MOL   H12433532   0.998   0.242   0.456  0.2424 -1.2801 -1.1135
   65MOL   H12533533   1.213   0.359   0.543  4.5014 -0.3547  0.0555
   65MOL   H12633534   1.354   0.245   0.710  1.1752  0.1364  0.3421
   65MOL   H12733535   1.274   0.027   0.813  0.0868 -0.7223 -1.2599
   65MOL   H12833536   0.846   7.907   0.717  0.2501 -0.5876 -0.8666
   65MOL   H12933537   0.669   7.904   0.556 -0.2425  0.9905  2.2447
   65MOL   H13033538   0.633   8.083   0.404  1.1081  0.7354 -1.0828
   65MOL   H13133539   0.802   0.048   0.395 -0.3263 -1.6585 -2.3939
   65MOL   C13233540   0.985   8.025   0.948 -0.4311  0.6277 -0.5953
   65MOL   C13333541   1.029   7.952   1.081 -0.4359  0.2909  0.2119
   65MOL   N13433542   1.162   7.983   1.127  0.2837 -0.6754  0.4391
   65MOL   C13533543   1.270   7.887   1.139 -0.1707 -0.3663  0.2705
   65MOL   C13633544   1.388   7.960   1.171 -0.2599  1.0222  0.4427
   65MOL   C13733545   1.508   7.889   1.182 -0.1571 -0.8088  0.8589
   65MOL   C13833546   1.511   7.753   1.159  0.2445 -0.2358 -0.0431
   65MOL   C13933547   1.393   7.680   1.128  0.0137 -0.0184 -0.4435
   65MOL   C14033548   1.271   7.749   1.117 -0.5553  0.1375  0.0404
   65MOL   C14133549   1.357   8.095   1.184 -0.0140 -0.3109  0.1157
   65MOL   C14233550   1.210   8.109   1.165 -0.1372 -0.2602 -0.3839
   65MOL   C14333551   1.151   0.005   1.183  0.0804 -0.0550 -0.0802
   65MOL   C14433552   1.223   0.119   1.223  0.9610 -0.3370 -0.1551
   65MOL   C14533553   1.361   0.112   1.232  0.6174  0.1221 -0.5762
   65MOL   C14633554   1.425   8.219   1.209  0.1810 -0.0794  0.2829
   65MOL   H14733555   0.948   8.127   0.956 -1.2421  0.2728  0.2762
   65MOL   H14833556   0.891   7.984   0.910 -0.2491 -1.2833  0.9147
   65MOL   H14933557   1.022   7.846   1.057 -1.6492  0.5534 -0.6519
   65MOL   H15033558   1.592   7.955   1.197 -1.1641  0.6013  0.3241
   65MOL   H15133559   1.605   7.699   1.151 -0.5447 -1.3735 -1.8613
   65MOL   H15233560   1.384   7.574   1.111  0.1101  0.1790 -1.7228
   65MOL   H15333561   1.180   7.691   1.105 -0.4057 -0.3344  1.1271
   65MOL   H15433562   1.048   0.003   1.151 -0.2846  0.9900  0.9805
   65MOL   H15533563   1.168   0.212   1.225 -1.0006 -1.4927  2.5110
   65MOL   H15633564   1.425   0.198   1.245 -2.1741  2.0800  0.7642
   65MOL   H15733565   1.533   8.219   1.219  0.1750  1.0945  0.4544
   65MOL   C15833566   0.928   7.967   1.196  0.2935 -0.1465 -0.3444
   65MOL   C15933567   0.787   7.909   1.168 -0.0149  0.1201  0.4816
   65MOL   N16033568   0.790   7.761   1.147 -0.7233  0.1315  0.2911
   65MOL   C16133569   0.781   7.698   1.020 -0.3045  0.2337  0.3552
   65MOL   C16233570   0.817   7.563   1.036  0.2207 -0.1383  0.1179
   65MOL   C16333571   0.822   7.483   0.919  0.0550  0.1107 -0.6719
   65MOL   C16433572   0.774   7.532   0.793 -0.1540 -0.2900  0.0325
   65MOL   C16533573   0.742   7.663   0.784 -0.2966  0.2937 -0.5071
   65MOL   C16633574   0.742   7.744   0.894 -0.0974  0.2902  0.5703
   65MOL   C16733575   0.848   7.544   1.176  0.3597  0.4249 -0.1724
   65MOL   C16833576   0.828   7.668   1.240 -0.4686  0.2699  0.5510
   65MOL   C16933577   0.864   7.678   1.374  0.3186 -0.6012  0.2091
   65MOL   C17033578   0.898   7.569   1.454  0.1335  0.0455  0.0651
   65MOL   C17133579   0.913   7.446   1.390 -1.1116 -0.1861  0.1748
   65MOL   C17233580   0.898   7.440   1.251  0.0624 -0.2070 -0.0565
   65MOL   H17333581   0.962   7.915   1.286  0.1124 -1.8654 -1.2433
   65MOL   H17433582   0.919   8.071   1.227 -0.8422 -1.1368  2.9076
   65MOL   H17533583   0.755   7.942   1.069 -1.6176 -0.8337  0.6683
   65MOL   H17633584   0.863   7.383   0.922 -1.4872 -0.5313 -0.1185
   65MOL   H17733585   0.769   7.472   0.704  1.5718 -0.1049 -0.1989
   65MOL   H17833586   0.716   7.715   0.693  0.7907 -2.3449 -2.3979
   65MOL   H17933587   0.707   7.846   0.884  0.1313  0.2376 -0.7962
   65MOL   H18033588   0.857   7.773   1.426  1.0396 -1.0181  1.0776
   65MOL   H18133589   0.910   7.578   1.561  0.5364 -1.3651  0.1584
   65MOL   H18233590   0.939   7.357   1.445 -0.7560 -1.4616 -1.9992
   65MOL   H18333591   0.928   7.343   1.212 -1.8716 -0.5450 -0.7747
   65MOL   C18433592   0.680   7.960   1.266 -0.1205 -0.0524 -0.4613
   65MOL   C18533593   0.640   8.108   1.253  0.7491  0.0709  0.0861
   65MOL   N18633594   0.634   8.158   1.120 -0.1710  0.5320  0.4008
   65MOL   C18733595   0.703   0.036   1.065 -0.3184 -0.3635 -0.0251
   65MOL   C18833596   0.691   0.035   0.920  0.3276 -0.0242  0.5477
   65MOL   C18933597   0.764   0.125   0.845 -0.1885  0.2515 -0.1878
   65MOL   C19033598   0.840   0.227   0.906  0.6878  0.2872  0.9187
   65MOL   C19133599   0.853   0.230   1.049 -0.5136  0.3755 -0.0313
   65MOL   C19233600   0.777   0.140   1.127  0.0004 -0.2436 -0.3886
   65MOL   C19333601   0.592   8.162   0.892  0.4551 -1.0320 -0.0778
   65MOL   C19433602   0.550   8.103   1.017 -0.9441  0.2706  0.2319
   65MOL   C19533603   0.460   7.994   1.017  0.4461  0.4585 -0.0420
   65MOL   C19633604   0.407   7.955   0.893  0.6741  0.4261 -0.0946
   65MOL   C19733605   0.442   8.009   0.767  0.1598  0.2102 -1.4165
   65MOL   C19833606   0.535   8.112   0.774 -0.2252 -0.7090 -0.2635
   65MOL   H19933607   0.599   7.888   1.275 -0.2252  0.3938  2.9224
   65MOL   H20033608   0.731   7.960   1.362  1.4059  1.1471 -1.2521
   65MOL   H20133609   0.735   8.151   1.285  1.8634 -1.8049 -0.6228
   65MOL   H20233610   0.758   0.118   0.737 -1.0447 -0.8737 -0.0672
   65MOL   H20333611   0.901   0.297   0.849  0.6450 -0.3176  0.1277
   65MOL   H20433612   0.913   0.308   1.095 -0.2740 -0.2534  0.7341
   65MOL   H20533613   0.789   0.143   1.234 -0.4229 -2.2799 -0.2476
   65MOL   H20633614   0.416   7.955   1.108 -1.3374 -0.1294 -1.1242
   65MOL   H20733615   0.333   7.876   0.886 -0.5885  1.5074  0.8723
   65MOL   H20833616   0.404   7.995   0.667 -3.4052 -0.3093 -0.0461
   65MOL   H20933617   0.569   8.170   0.690 -1.2127 -0.1050 -0.2504
   65MOL   C21033618   0.514   8.160   1.330 -0.3691  0.3103 -1.2833
   65MOL   C21133619   0.539   8.166   1.487  0.3782  0.8056 -0.6559
   65MOL   N21233620   0.655   0.020   1.523  0.0427  0.3895  0.8087
   65MOL   C21333621   0.759   8.199   1.603 -0.0608 -0.1504  0.2172
   65MOL   C21433622   0.837   0.085   1.643 -0.3689 -0.6571  0.8063
   65MOL   C21533623   0.949   0.057   1.725  0.1960 -0.8214 -0.1081
   65MOL   C21633624   0.986   8.154   1.754  0.1384 -0.1461 -0.3976
   65MOL   C21733625   0.905   8.046   1.723  0.8161 -0.1755  0.4540
   65MOL   C21833626   0.794   8.069   1.646  0.3882  0.7079  0.1162
   65MOL   C21933627   0.788   0.202   1.577  0.6993  0.1038  0.4757
   65MOL   C22033628   0.685   0.160   1.491  0.3953  0.3315  0.8289
   65MOL   C22133629   0.617   0.252   1.408  0.2771 -0.5583 -0.0377
   65MOL   C22233630   0.652   0.386   1.406  0.5455  0.1089 -0.7833
   65MOL   C22333631   0.754   0.437   1.492  0.4103  0.7791 -0.1408
   65MOL   C22433632   0.827   0.337   1.569  0.4361 -0.5160 -0.2783
   65MOL   H22533633   0.488   0.033   1.295  0.4626  0.9806 -0.0256
   65MOL   H22633634   0.428   8.096   1.309 -0.6741  0.3418 -0.1390
   65MOL   H22733635   0.567   8.062   1.505  2.9014  1.3274 -1.4845
   65MOL   H22833636   1.005   0.146   1.746 -2.3289  1.4376 -2.5362
   65MOL   H22933637   1.077   8.133   1.807 -0.0039 -0.7244 -0.3856
   65MOL   H23033638   0.936   7.944   1.741 -0.1673 -0.6227 -0.3506
   65MOL   H23133639   0.726   7.988   1.626  0.9692  0.1952  0.2084
   65MOL   H23233640   0.533   0.222   1.348  0.6070  0.2482 -0.9223
   65MOL   H23333641   0.597   0.460   1.350 -0.1923  0.2980  0.1712
   65MOL   H23433642   0.785   0.540   1.504 -0.1145  1.0577 -1.0746
   65MOL   H23533643   0.911   0.379   1.623 -0.2535  0.9291 -0.3047
   65MOL   C23633644   0.409   8.195   1.576 -0.8733 -0.0052  0.3253
   65MOL   C23733645   0.294   8.092   1.565  0.2132 -0.4920  0.5000
   65MOL   N23833646   0.340   7.960   1.523 -0.1306 -0.2597  0.1016
   65MOL   C23933647   0.308   7.886   1.409 -0.0211 -0.4808  0.5551
   65MOL   C24033648   0.394   7.774   1.397  0.1996  0.2629  0.4580
   65MOL   C24133649   0.386   7.693   1.285  0.6750 -0.2039 -0.0067
   65MOL   C24233650   0.289   7.720   1.185 -0.3665 -0.2439  0.1524
   65MOL   C24333651   0.202   7.829   1.192 -0.6770 -0.3131  0.0341
   65MOL   C24433652   0.215   7.914   1.302  0.6691  0.9619 -0.2851
   65MOL   C24533653   0.476   7.775   1.517 -0.0083 -0.1565  0.0301
   65MOL   C24633654   0.421   7.880   1.594  0.2018  0.0509  0.4386
   65MOL   C24733655   0.478   7.910   1.720 -0.9626 -1.1444 -0.4809
   65MOL   C24833656   0.592   7.835   1.767 -0.0754 -0.0496 -0.0270
   65MOL   C24933657   0.645   7.731   1.689 -0.1659 -0.7300  1.0212
   65MOL   C25033658   0.587   7.698   1.567  0.6900  0.0028  0.4180
   65MOL   H25133659   0.426   0.003   1.678 -0.2852 -3.0172  1.3080
   65MOL   H25233660   0.367   0.060   1.537  2.6730  1.7085  0.2908
   65MOL   H25333661   0.229   8.123   1.483  1.3728  0.3280 -0.1280
   65MOL   H25433662   0.455   7.613   1.265  0.1842 -0.4458 -0.7471
   65MOL   H25533663   0.293   7.657   1.097 -1.5071 -1.5739  1.0222
   65MOL   H25633664   0.133   7.838   1.109 -0.7933  3.0404  0.4445
   65MOL   H25733665   0.150   8.000   1.305 -0.2709  0.2789 -0.7507
   65MOL   H25833666   0.447   8.000   1.772  0.4179 -1.2347  0.5278
   65MOL   H25933667   0.643   7.865   1.857 -1.4625  1.1774  0.3591
   65MOL   H26033668   0.737   7.681   1.719  0.3004  1.0420  2.6155
   65MOL   H26133669   0.614   7.616   1.502  0.8795  0.8525 -0.5932
   65MOL   C26233670   0.201   8.086   1.694  0.0677  0.1406  0.6608
   65MOL   C26333671   0.063   8.140   1.669 -0.1142 -0.0744  0.1734
   65MOL   N26433672   8.207   8.053   1.581 -0.1600  0.4657  0.1877
   65MOL   C26533673   8.179   8.078   1.444 -0.3376 -0.2093 -0.2197
   65MOL   C26633674   8.100   7.974   1.387 -0.9579  0.5916 -0.5783
   65MOL   C26733675   8.069   7.982   1.253 -0.3940  0.1267 -0.7348
   65MOL   C26833676   8.108   8.092   1.173  0.2473  0.5680 -0.8807
   65MOL   C26933677   8.196   8.192   1.228  0.9764  0.4893  0.5025
   65MOL   C27033678   0.001   8.185   1.361 -0.1422  0.1976  0.0909
   65MOL   C27133679   8.077   7.882   1.491  0.8055 -0.2084  0.0548
   65MOL   C27233680   8.147   7.931   1.608 -0.0125 -0.1928  0.3844
   65MOL   C27333681   8.136   7.855   1.727 -0.2301  0.4191  0.9193
   65MOL   C27433682   8.065   7.737   1.729 -0.2051 -0.1440 -0.3032
   65MOL   C27533683   7.981   7.704   1.627  0.1372  0.0654  0.4690
   65MOL   C27633684   7.981   7.780   1.503 -0.9471 -0.3651 -0.4441
   65MOL   H27733685   0.183   7.983   1.726  0.2920  0.2824  1.2636
   65MOL   H27833686   0.245   8.138   1.779 -0.2987 -0.0652  0.9800
   65MOL   H27933687   0.078   0.003   1.610  0.6552  1.0088  1.9870
   65MOL   H28033688   8.010   7.900   1.213 -1.8509  2.2763 -3.1624
   65MOL   H28133689   8.065   8.102   1.075  1.3695  0.4689 -1.3818
   65MOL   H28233690   0.001   0.052   1.172  2.7489 -0.7226 -0.4137
   65MOL   H28333691   0.063   0.032   1.408  1.2723 -0.5810 -0.5105
   65MOL   H28433692   8.202   7.888   1.806 -1.6616 -0.1121  2.3503
   65MOL   H28533693   8.060   7.686   1.824 -1.8648  2.2132  0.9211
   65MOL   H28633694   7.912   7.624   1.649 -1.7644  1.3518 -0.6516
   65MOL   H28733695   7.916   7.743   1.426 -0.6856 -0.3249 -0.6855
   65MOL   C28833696   0.002   8.198   1.800 -0.7565 -0.5799 -0.2417
   65MOL   C28933697   0.048   0.112   1.845 -0.3830 -0.0927 -0.5942
   65MOL   N29033698   0.011   0.208   1.740  0.3481  0.0788  0.3438
   65MOL   C29133699   0.099   0.276   1.655 -0.7897  0.4334  0.8768
   65MOL   C29233700   0.024   0.367   1.570 -0.5759  0.0749 -0.3589
   65MOL   C29333701   0.106   0.454   1.488  0.0310 -0.6907 -0.6968
   65MOL   C29433702   0.250   0.438   1.487 -0.1311 -0.2110  0.2354
   65MOL   C29533703   0.316   0.350   1.566 -0.0411 -0.1734  0.2154
   65MOL   C29633704   0.239   0.264   1.650 -0.0594 -0.1046  0.3649
   65MOL   C29733705   8.113   0.338   1.595 -0.1728  0.0712  0.1206
   65MOL   C29833706   8.107   0.252   1.703 -0.7656 -0.4038  0.1607
   65MOL   C29933707   7.979   0.214   1.755 -0.0349  0.1072  0.2854
   65MOL   C30033708   7.861   0.270   1.703  0.8338  0.2884 -0.2510
   65MOL   C30133709   7.870   0.343   1.588 -0.0978 -0.0033 -0.1199
   65MOL   C30233710   7.993   0.378   1.538  0.8984  0.4836 -0.1012
   65MOL   H30333711   8.121   8.192   1.788 -0.6832 -0.6902 -0.8848
   65MOL   H30433712   0.018   8.131   1.884 -0.3003 -0.3048 -0.1062
   65MOL   H30533713   0.157   0.103   1.843 -0.0195  3.1861  0.8013
   65MOL   H30633714   0.048   0.533   1.444 -1.3909 -1.1324  0.3545
   65MOL   H30733715   0.298   0.496   1.410 -0.0852  1.1474  1.2607
   65MOL   H30833716   0.424   0.345   1.575 -0.2755 -0.9688  3.1901
   65MOL   H30933717   0.293   0.201   1.720  0.3839 -0.1017  0.0295
   65MOL   H31033718   7.972   0.141   1.834 -0.0220 -1.2740 -0.9575
   65MOL   H31133719   7.767   0.234   1.743  0.2550  0.0431 -1.8185
   65MOL   H31233720   7.784   0.373   1.530  0.4279  0.0814 -0.8655
   65MOL   H31333721   8.008   0.435   1.447  1.0162 -1.2609 -1.2006
   65MOL   C31433722   0.006   0.166   1.990 -0.4670  0.0220 -0.5960
   65MOL   C31533723   0.061   0.089   2.112 -0.1333  0.0154 -0.7692
   65MOL   N31633724   0.204   0.091   2.134  0.2916 -0.0600 -0.9886
   65MOL   C31733725   0.290   8.214   2.104  0.4362 -0.8155 -0.2856
   65MOL   C31833726   0.425   0.024   2.148 -0.4024 -0.1337 -0.1604
   65MOL   C31933727   0.530   8.158   2.123  0.2415  0.0887 -0.1963
   65MOL   C32033728   0.505   8.032   2.069  0.3364 -0.6897 -1.4083
   65MOL   C32133729   0.372   7.985   2.038  0.1670 -0.7869  0.0653
   65MOL   C32233730   0.270   8.082   2.058  0.5038  0.2988 -0.6818
   65MOL   C32333731   0.422   0.151   2.203  0.0011 -0.1218  0.0425
   65MOL   C32433732   0.286   0.194   2.187  0.1350  0.2472 -0.0830
   65MOL   C32533733   0.248   0.324   2.227 -0.5679  0.5743  0.1967
   65MOL   C32633734   0.342   0.413   2.277  0.2120  0.0147  0.4576
   65MOL   C32733735   0.474   0.368   2.294 -1.0739 -0.1214 -0.6955
   65MOL   C32833736   0.513   0.243   2.259  0.2148 -0.2442  0.1252
   65MOL   H32933737   0.036   0.271   1.997 -1.0907  0.0307  2.1638
   65MOL   H33033738   8.125   0.166   1.998 -0.5989 -1.0524 -2.1262
   65MOL   H33133739   0.037   8.213   2.084  1.8575 -0.0414 -2.4082
   65MOL   H33233740   0.629   8.174   2.161  1.3307 -1.9943 -2.0320
   65MOL   H33333741   0.585   7.964   2.044  0.0422 -1.9484  0.8840
   65MOL   H33433742   0.352   7.885   2.002  0.5792  0.0990 -2.7189
   65MOL   H33533743   0.169   8.046   2.044  0.3958  0.5185 -0.4689
   65MOL   H33633744   0.148   0.362   2.210 -0.1548  0.7343 -1.9630
   65MOL   H33733745   0.305   0.507   2.314  0.0523 -0.6043  1.8801
   65MOL   H33833746   0.548   0.437   2.331 -1.1331 -0.7201  0.5595
   65MOL   H33933747   0.613   0.205   2.276  0.0340 -0.9925 -0.5012
   65MOL   C34033748   8.212   0.117   2.240  0.4544 -0.4709 -0.0959
   65MOL   C34133749   8.070   0.054   2.267 -0.3903 -0.6469 -0.9460
   65MOL   N34233750   8.050   8.161   2.186 -0.3045 -0.8025 -0.3782
   65MOL   C34333751   7.951   8.144   2.089 -0.0641  0.2099 -0.3508
   65MOL   C34433752   7.969   8.011   2.041 -0.0568  0.6766  0.3654
   65MOL   C34533753   7.879   7.965   1.946 -0.5278 -0.1510  0.1625
   65MOL   C34633754   7.777   8.050   1.902 -0.0371 -0.1706 -0.0641
   65MOL   C34733755   7.761   8.186   1.945 -0.2393 -0.3489  0.9760
   65MOL   C34833756   7.854   0.004   2.039 -0.6868 -0.1747  0.7689
   65MOL   C34933757   8.079   7.950   2.110  0.7647  0.0423 -0.3189
   65MOL   C35033758   8.131   8.047   2.198  0.5572  0.2323 -0.6704
   65MOL   C35133759   0.019   8.014   2.280  0.3649 -0.7048 -0.9901
   65MOL   C35233760   0.085   7.889   2.267 -0.1589  0.0987 -0.7681
   65MOL   C35333761   0.044   7.794   2.166  0.5506  0.3252 -0.1355
   65MOL   C35433762   8.159   7.831   2.090 -0.0074  0.4328 -0.7279
   65MOL   H35533763   0.054   0.091   2.321  1.1507  1.6373  0.0160
   65MOL   H35633764   8.202   0.223   2.263  2.5432 -0.4713  0.9562
   65MOL   H35733765   8.002   0.129   2.228  0.6749 -0.2336 -2.0556
   65MOL   H35833766   7.891   7.861   1.920  0.9695 -0.3394  1.4696
   65MOL   H35933767   7.709   8.011   1.828 -1.6590  0.3288  1.1349
   65MOL   H36033768   7.679   0.012   1.899 -0.7482  0.2869  2.6118
   65MOL   H36133769   7.854   0.105   2.078  0.7407  0.1377 -0.0198
   65MOL   H36233770   0.044   8.084   2.358 -1.3303  0.2317 -1.2592
   65MOL   H36333771   0.163   7.874   2.341 -0.3939 -1.1075 -0.7585
   65MOL   H36433772   0.094   7.701   2.147 -0.1947  0.2525 -1.7588
   65MOL   H36533773   8.114   7.771   2.012  2.0821 -0.0200 -1.6135
   65MOL   C36633774   8.039   0.043   2.418  0.3222 -0.1373  1.0970
   65MOL   C36733775   7.931   8.169   2.459 -0.0395  0.1109 -0.2105
   65MOL   N36833776   7.918   8.145   2.604  0.0084 -0.3060 -0.0067
   65MOL   C36933777   7.928   8.025   2.673  0.3033  0.4307 -0.1544
   65MOL   C37033778   7.921   8.052   2.816  0.3529 -0.4629  0.0123
   65MOL   C37133779   7.909   7.947   2.907  1.1036  0.4107 -0.2415
   65MOL   C37233780   7.932   7.815   2.864  0.0676  0.1000 -0.3589
   65MOL   C37333781   7.955   7.789   2.726 -0.6690 -0.6851  0.0708
   65MOL   C37433782   7.944   7.888   2.630 -1.1609 -0.5641 -0.1796
   65MOL   C37533783   7.911   8.197   2.831  0.0847  0.1129 -0.2155
   65MOL   C37633784   7.898   0.019   2.698 -0.0227  0.1779  0.7783
   65MOL   C37733785   7.884   0.156   2.686  0.0138 -0.3737  0.0988
   65MOL   C37833786   7.860   0.244   2.788 -0.3392 -0.0014 -0.8144
   65MOL   C37933787   7.869   0.192   2.920  0.0585 -0.5010  0.5338
   65MOL   C38033788   7.900   0.057   2.944 -0.5626  0.4695  0.1352
   65MOL   H38133789   8.134   0.004   2.455  0.5010 -1.2271 -0.4603
   65MOL   H38233790   8.036   0.144   2.458 -0.1199  0.1807  0.2630
   65MOL   H38333791   7.969   8.075   2.419  1.5900 -0.4126  2.4515
   65MOL   H38433792   7.886   7.970   3.010  1.7675  3.8521 -0.8106
   65MOL   H38533793   7.923   7.738   2.939 -0.7696 -0.9681 -1.5232
   65MOL   H38633794   7.968   7.689   2.688 -0.3694 -0.0803 -1.4532
   65MOL   H38733795   7.951   7.868   2.524 -0.4373  0.8557 -0.4200
   65MOL   H38833796   7.875   0.196   2.586 -0.1383 -0.6337  0.0086
   65MOL   H38933797   7.843   0.349   2.766 -1.5247  0.0766  0.4019
   65MOL   H39033798   7.865   0.257   3.007  1.6718  1.3006 -0.6861
   65MOL   H39133799   7.890   0.010   3.040  1.2347  0.8459  0.5112
   65MOL   C39233800   7.787   8.205   2.399 -0.1411  0.1336  0.0787
   65MOL   C39333801   7.678   8.098   2.406 -0.1700 -0.5225 -0.1622
   65MOL   N39433802   7.553   8.161   2.445  0.0707  0.1770 -0.0737
   65MOL   C39533803   7.466   8.123   2.546 -0.4340  0.6842 -0.0166
   65MOL   C39633804   7.351   8.207   2.547 -0.8069  0.3688 -0.2196
   65MOL   C39733805   7.261   8.190   2.657  0.8403 -0.5496 -0.5105
   65MOL   C39833806   7.277   8.100   2.758  0.1048  0.5177 -0.1267
   65MOL   C39933807   7.395   8.018   2.754  0.8352 -0.2355 -0.4587
   65MOL   C40033808   7.485   8.030   2.649  0.2078  0.3822  0.5822
   65MOL   C40133809   7.362   0.064   2.438 -0.1951  0.3849  0.8262
   65MOL   C40233810   7.484   0.034   2.371  1.0362  0.2775 -0.6495
   65MOL   C40333811   7.510   0.094   2.247  0.5702  0.3783  0.3642
   65MOL   C40433812   7.414   0.183   2.194  0.2271  0.5383 -0.2349
   65MOL   C40533813   7.303   0.223   2.265 -0.0089 -0.6379 -0.5276
   65MOL   C40633814   7.278   0.161   2.387  0.4462 -0.1239  0.0995
   65MOL   H40733815   7.747   0.072   2.436 -1.4937  0.2051 -1.5312
   65MOL   H40833816   7.798   0.003   2.293  3.4995 -0.7407  0.1772
   65MOL   H40933817   7.706   8.035   2.491 -1.0699 -0.1287  0.4224
   65MOL   H41033818   7.175   0.028   2.643 -0.3868 -2.1116 -0.4201
   65MOL   H41133819   7.206   8.096   2.840 -1.3065 -0.2616 -1.3725
   65MOL   H41233820   7.421   7.952   2.836  2.0021  1.8771  0.9247
   65MOL   H41333821   7.575   7.973   2.670  1.3421  1.8386 -0.2747
   65MOL   H41433822   7.596   0.068   2.187  0.7590 -1.2239  1.2921
   65MOL   H41533823   7.430   0.226   2.096 -1.1816 -2.9248 -2.0945
   65MOL   H41633824   7.232   0.291   2.221 -0.5490  0.4571  1.9451
   65MOL   H41733825   7.185   0.173   2.442  1.9138  0.7300  2.4974
   65MOL   C41833826   7.667   8.005   2.283  0.3594  0.3813  0.1112
   65MOL   C41933827   7.580   7.875   2.303 -0.2192  0.3330  0.3635
   65MOL   N42033828   7.570   7.804   2.181 -0.0004 -0.1313 -0.1886
   65MOL   C42133829   7.461   7.818   2.090 -0.6916  0.5220 -0.0323
   65MOL   C42233830   7.471   7.719   1.988 -0.0679 -0.0373 -0.1841
   65MOL   C42333831   7.356   7.702   1.911  0.2091  0.4724 -0.3163
   65MOL   C42433832   7.236   7.776   1.931  0.4534 -0.1496  1.0936
   65MOL   C42533833   7.241   7.885   2.024 -0.1675 -0.8082  0.6388
   65MOL   C42633834   7.355   7.906   2.104  0.4569  0.2704  0.2670
   65MOL   C42733835   7.605   7.670   1.990  0.3541 -0.3578 -0.8734
   65MOL   C42833836   7.661   7.721   2.111 -0.1293  0.4710  0.4007
   65MOL   C42933837   7.792   7.684   2.150  0.2785 -0.0109  0.4669
   65MOL   C43033838   7.875   7.606   2.060 -0.1576  0.0762 -0.7241
   65MOL   C43133839   7.817   7.551   1.946 -0.3616  0.0172  0.1942
   65MOL   C43233840   7.685   7.590   1.908 -0.2531  0.1253  0.2256
   65MOL   H43333841   7.626   8.058   2.198  1.2675  1.4421  0.3178
   65MOL   H43433842   7.765   7.965   2.258  0.7767  0.4569  1.5693
   65MOL   H43533843   7.478   7.904   2.331  0.1609  1.9282  0.1379
   65MOL   H43633844   7.348   7.631   1.830  2.2849  0.9821 -0.9986
   65MOL   H43733845   7.152   7.746   1.870  1.5359  0.7398 -0.8764
   65MOL   H43833846   7.153   7.948   2.029 -1.2675 -2.2100 -0.2135
   65MOL   H43933847   7.346   7.979   2.183  1.5802  0.0412  0.6232
   65MOL   H44033848   7.836   7.719   2.242 -1.1400 -0.6599  1.4202
   65MOL   H44133849   7.978   7.583   2.081  0.3522  0.7259 -2.4453
   65MOL   H44233850   7.868   7.483   1.880  0.5644 -1.0042  1.9103
   65MOL   H44333851   7.642   7.550   1.818 -0.0426 -1.5754  0.8575
   65MOL   C44433852   7.623   7.781   2.422  0.2366  0.5047 -0.1569
   65MOL   C44533853   7.568   7.638   2.413 -0.0328 -0.2261 -0.7561
   65MOL   N44633854   7.635   7.549   2.511  0.2558 -0.1057 -0.4525
   65MOL   C44733855   7.716   7.432   2.479 -0.2935 -0.6889  0.5107
   65MOL   C44833856   7.761   7.367   2.597  0.8412  0.0992 -0.3197
   65MOL   C44933857   7.826   7.243   2.591  0.1044  0.8174 -0.3119
   65MOL   C45033858   7.864   7.190   2.466  1.0409 -0.3587  0.3593
   65MOL   C45133859   7.821   7.262   2.348  0.5249 -0.1610 -0.4975
   65MOL   C45233860   7.743   7.379   2.353 -0.0530  0.6881  0.5089
   65MOL   C45333861   7.714   7.458   2.701 -0.5426  0.4037 -0.1792
   65MOL   C45433862   7.639   7.564   2.645 -0.1384  0.2210 -0.7392
   65MOL   C45533863   7.576   7.658   2.732  0.1929  0.1740  0.1291
   65MOL   C45633864   7.594   7.661   2.867 -0.6118  0.6181  0.3779
   65MOL   C45733865   7.670   7.554   2.923  0.1104  0.5034  0.0915
   65MOL   C45833866   7.726   7.451   2.841 -0.5857 -0.0825 -0.0076
   65MOL   H45933867   7.731   7.766   2.421  0.0607 -0.8830 -0.1469
   65MOL   H46033868   7.591   7.819   2.519 -1.0435 -2.2498  0.5595
   65MOL   H46133869   7.589   7.588   2.318 -1.6453  1.0255 -1.7912
   65MOL   H46233870   7.857   7.201   2.685 -1.4949  0.6193  0.1229
   65MOL   H46333871   7.931   7.105   2.463 -2.1268 -2.9811  0.5940
   65MOL   H46433872   7.848   7.221   2.251  0.6750  0.3919 -0.6894
   65MOL   H46533873   7.711   7.420   2.258 -1.5154  1.5318  1.3478
   65MOL   H46633874   7.504   7.730   2.696  0.7618 -0.2315 -1.8788
   65MOL   H46733875   7.532   7.729   2.924 -1.0494  0.0477  0.5823
   65MOL   H46833876   7.679   7.544   3.030 -1.0138 -0.2170  0.1323
   65MOL   H46933877   7.787   7.375   2.888 -1.6322 -0.6060  0.5145
   65MOL   C47033878   7.414   7.636   2.421 -0.1965 -0.0290 -0.3467
   65MOL   C47133879   7.355   7.503   2.380 -0.8492 -0.8386 -0.1430
   65MOL   N47233880   7.212   7.489   2.417 -0.1433  0.1401  0.1238
   65MOL   C47333881   7.167   7.426   2.528  0.1928 -0.3560  0.1332
   65MOL   C47433882   7.025   7.416   2.519 -0.3160 -0.5571 -0.3336
   65MOL   C47533883   6.960   7.343   2.623 -0.4549  0.4898  0.0580
   65MOL   C47633884   7.031   7.286   2.728 -0.0022 -0.1284  0.1663
   65MOL   C47733885   7.170   7.287   2.731 -0.4421  0.5802 -0.0754
   65MOL   C47833886   7.238   7.356   2.628 -0.0700 -0.1576  0.5460
   65MOL   C47933887   6.987   7.500   2.409 -0.3861  0.5982  0.1024
   65MOL   C48033888   7.108   7.553   2.353 -0.1390 -0.3146 -0.1544
   65MOL   C48133889   7.104   7.643   2.243 -0.9857 -0.1404 -0.3077
   65MOL   C48233890   6.979   7.692   2.197  0.4298 -0.2182 -0.4867
   65MOL   C48333891   6.862   7.634   2.247  0.1110 -0.1008  0.6876
   65MOL   C48433892   6.865   7.539   2.348  0.6693 -0.9691 -0.4152
   65MOL   H48533893   7.390   7.659   2.524  1.2099  1.0802 -0.2494
   65MOL   H48633894   7.372   7.716   2.360 -3.3137 -1.3100  0.0240
   65MOL   H48733895   7.403   7.422   2.436 -0.7998  0.5803  1.9262
   65MOL   H48833896   6.852   7.349   2.631 -0.3940  0.4460  0.9770
   65MOL   H48933897   6.982   7.248   2.816  0.2227  0.0307  0.3614
   65MOL   H49033898   7.227   7.252   2.816 -1.4019  0.9345  0.7240
   65MOL   H49133899   7.345   7.357   2.639 -0.1233  0.3367  1.0168
   65MOL   H49233900   7.190   7.675   2.185 -0.8989  1.0206  0.4370
   65MOL   H49333901   6.965   7.771   2.125  0.9188  0.0884 -0.2502
   65MOL   H49433902   6.771   7.667   2.199 -0.0694  0.8795  1.6725
   65MOL   H49533903   6.771   7.495   2.379 -0.0085  1.9104  1.8980
   65MOL   C49633904   7.383   7.467   2.229  0.0475  0.4290 -0.4231
   65MOL   C49733905   7.304   7.352   2.172  0.4837  0.5935 -0.1727
   65MOL   N49833906   7.379   7.267   2.085  0.3479 -0.3935  0.5867
   65MOL   C49933907   7.396   7.284   1.949 -0.3238 -0.6455  0.1382
   65MOL   C50033908   7.475   7.173   1.898 -0.6515 -0.8153  0.2086
   65MOL   C50133909   7.498   7.175   1.757 -0.5281 -0.0876 -0.4324
   65MOL   C50233910   7.451   7.280   1.667 -0.8213  0.4913 -0.1707
   65MOL   C50333911   7.374   7.381   1.720 -0.0540 -0.7198 -0.8839
   65MOL   C50433912   7.335   7.378   1.854 -0.3837  0.1879 -0.6552
   65MOL   C50533913   7.508   7.084   2.006 -0.1298 -0.7666  0.1944
   65MOL   C50633914   7.453   7.155   2.122 -1.1583  0.2502 -0.4706
   65MOL   C50733915   7.477   7.102   2.248 -0.0453 -0.1872 -0.9853
   65MOL   C50833916   7.552   6.980   2.260 -0.2651  0.4313 -0.4423
   65MOL   C50933917   7.597   6.911   2.148  0.6456 -0.6057  0.0699
   65MOL   C51033918   7.576   6.960   2.019 -0.4516  0.2329  0.4141
   65MOL   H51133919   7.358   7.554   2.168  0.8567  1.6289  0.9319
   65MOL   H51233920   7.487   7.446   2.207  0.1535  1.4609 -0.9274
   65MOL   H51333921   7.210   7.393   2.135  0.2745  1.6116  1.4755
   65MOL   H51433922   7.554   7.094   1.715  1.4151  0.1398  1.6296
   65MOL   H51533923   7.468   7.277   1.561  1.7552  1.6033  0.1671
   65MOL   H51633924   7.332   7.459   1.657 -0.1865 -0.3995 -0.3969
   65MOL   H51733925   7.272   7.453   1.900 -0.3157 -0.0273 -0.2072
   65MOL   H51833926   7.421   7.141   2.332 -0.2910 -1.2996 -0.6315
   65MOL   H51933927   7.554   6.938   2.360  0.0738  0.9158 -0.2476
   65MOL   H52033928   7.637   6.815   2.179 -0.8301 -0.9606  0.9262
   65MOL   H52133929   7.623   6.907   1.937  0.0695  1.4071 -0.0646
   65MOL   H52233930   7.267   7.292   2.255  0.3762  1.1267  0.1701
   66MOL     C133931   3.449   6.836   4.420 -0.4239  0.5900  0.1192
   66MOL     C233932   3.590   6.890   4.386  0.4492  0.0146 -0.0191
   66MOL     N333933   3.633   6.831   4.251 -0.0718 -0.4250  0.0485
   66MOL     C433934   3.708   6.716   4.232  0.0852  0.3401  0.2467
   66MOL     C533935   3.721   6.694   4.089 -0.1385  0.2268  0.6686
   66MOL     C633936   3.794   6.577   4.042  0.0239 -0.0729 -0.2068
   66MOL     C733937   3.837   6.482   4.137  0.2772  0.0493 -0.0395
   66MOL     C833938   3.831   6.510   4.280  0.7502 -0.3484  0.6466
   66MOL     C933939   3.764   6.623   4.324  0.1924 -0.2471 -0.2161
   66MOL    C1033940   3.640   6.793   4.023 -0.0902 -0.2281 -0.0705
   66MOL    C1133941   3.590   6.873   4.131  1.3152 -0.2214 -0.4670
   66MOL    C1233942   3.490   6.974   4.098  0.0808 -0.0574  0.3394
   66MOL    C1333943   3.455   7.003   3.968  0.8251 -0.5453 -0.0361
   66MOL    C1433944   3.513   6.925   3.861 -0.2472  0.2637  0.1754
   66MOL    C1533945   3.600   6.822   3.890  0.7862 -0.2663  0.3618
   66MOL    H1633946   3.418   6.881   4.514  0.2194 -1.1675  1.2029
   66MOL    H1733947   3.439   6.728   4.421  0.9809  0.4316  2.3475
   66MOL    H1833948   3.662   6.855   4.460  1.7566  2.7542  0.0562
   66MOL    H1933949   3.815   6.566   3.937 -0.4117  2.4418 -0.5842
   66MOL    H2033950   3.898   6.400   4.102  0.9200  0.5498 -0.1111
   66MOL    H2133951   3.872   6.439   4.350 -1.0560 -0.6857  1.3821
   66MOL    H2233952   3.749   6.636   4.430  0.2143 -1.1353 -0.1038
   66MOL    H2333953   3.436   7.031   4.173 -0.4971  0.1319 -0.2182
   66MOL    H2433954   3.383   7.078   3.937 -0.4662 -1.7546 -0.0322
   66MOL    H2533955   3.487   6.951   3.759  3.4341  0.5351 -0.7761
   66MOL    H2633956   3.630   6.761   3.805  0.0137  1.3231 -1.0708
   66MOL    H2733957   3.371   6.885   4.362  0.1069  0.0372 -1.0797
   66MOL    C2833958   3.589   7.042   4.399  0.4412 -0.2398  0.7249
   66MOL    C2933959   3.719   7.110   4.348  0.7216 -0.0456  0.5557
   66MOL    N3033960   3.703   7.254   4.359 -0.8659 -0.2006 -0.5114
   66MOL    C3133961   3.670   7.340   4.256  0.1048 -0.1507  0.1404
   66MOL    C3233962   3.635   7.472   4.310 -0.5914 -0.6682 -1.3239
   66MOL    C3333963   3.605   7.575   4.215 -0.2700 -0.1878 -0.5675
   66MOL    C3433964   3.588   7.552   4.080  0.1690 -0.1368 -0.1747
   66MOL    C3533965   3.606   7.424   4.028 -0.4649  0.2884  0.1718
   66MOL    C3633966   3.653   7.326   4.114 -0.6596 -0.4066 -0.0521
   66MOL    C3733967   3.648   7.458   4.451 -0.7898  0.1529 -0.0285
   66MOL    C3833968   3.696   7.327   4.480  0.0611  0.6958  0.0598
   66MOL    C3933969   3.717   7.288   4.617 -0.2964 -0.5142 -0.0986
   66MOL    C4033970   3.690   7.387   4.715 -0.6427  0.6736 -0.1135
   66MOL    C4133971   3.634   7.512   4.694  0.5165  0.0547  0.0261
   66MOL    C4233972   3.621   7.547   4.557  0.7351 -0.0482 -0.5216
   66MOL    H4333973   3.504   7.097   4.360  0.4623  0.8723  2.1882
   66MOL    H4433974   3.572   7.067   4.504  0.3048  1.0341  0.4053
   66MOL    H4533975   3.721   7.089   4.241 -0.5295  1.0229  0.3024
   66MOL    H4633976   3.591   7.677   4.248 -1.2403 -0.9478  1.4456
   66MOL    H4733977   3.559   7.628   4.009  0.7499 -0.2234 -0.5169
   66MOL    H4833978   3.599   7.397   3.924 -0.1190  0.9875 -0.0340
   66MOL    H4933979   3.674   7.230   4.070  1.5301 -0.1077  0.2457
   66MOL    H5033980   3.761   7.191   4.634  0.1703 -0.3708 -0.4459
   66MOL    H5133981   3.708   7.355   4.817 -0.6132 -1.9690 -0.9117
   66MOL    H5233982   3.607   7.570   4.781 -3.4303 -0.1197 -0.9736
   66MOL    H5333983   3.572   7.642   4.539  0.0806 -0.5484 -1.4638
   66MOL    C5433984   3.857   7.049   4.394 -0.6308  0.2589  0.1075
   66MOL    C5533985   3.977   7.110   4.338  0.3834 -0.2888  0.4081
   66MOL    N5633986   4.010   7.238   4.394  0.4935  0.2105 -0.0909
   66MOL    C5733987   4.018   7.357   4.323  0.1750 -0.2349  0.0706
   66MOL    C5833988   4.042   7.466   4.417 -0.2807  0.7408 -0.6726
   66MOL    C5933989   4.040   7.604   4.373 -0.5396  0.5194 -0.3658
   66MOL    C6033990   4.026   7.631   4.239  0.8233  0.0638  0.7671
   66MOL    C6133991   4.002   7.531   4.147 -0.3137  0.5674  0.2156
   66MOL    C6233992   3.994   7.393   4.187  0.6068  0.1593  0.2904
   66MOL    C6333993   4.066   7.400   4.548  0.3093 -0.3473  0.3622
   66MOL    C6433994   4.049   7.262   4.527 -0.5477  0.1644  0.1405
   66MOL    C6533995   4.084   7.168   4.630  0.0775 -0.6606 -0.2234
   66MOL    C6633996   4.125   7.218   4.753 -0.1119  0.0123 -0.5370
   66MOL    C6733997   4.130   7.356   4.780  0.1160 -0.2927 -0.0635
   66MOL    C6833998   4.104   7.447   4.679  0.1125 -0.6026  0.5222
   66MOL    H6933999   3.866   7.052   4.502 -0.2063  0.6498  0.0634
   66MOL    H7034000   3.854   6.942   4.374  2.7957  0.0294  0.5157
   66MOL    H7134001   3.954   7.138   4.235  3.2120  0.6078 -0.0165
   66MOL    H7234002   4.061   7.686   4.440 -2.1457  0.4601  0.2353
   66MOL    H7334003   4.020   7.733   4.203 -0.8092 -0.4033 -0.3423
   66MOL    H7434004   3.981   7.554   4.044 -2.1564  0.7560  0.6132
   66MOL    H7534005   3.953   7.319   4.120 -3.2032  1.5592  0.9346
   66MOL    H7634006   4.091   7.062   4.614 -2.1671 -0.6191 -1.5654
   66MOL    H7734007   4.160   7.145   4.825 -0.0199  0.8527  0.2844
   66MOL    H7834008   4.170   7.399   4.871  1.6417  0.3421 -1.0217
   66MOL    H7934009   4.110   7.552   4.700 -0.5576 -0.4265 -0.1450
   66MOL    C8034010   4.099   7.019   4.334  1.0508  0.1503 -0.4423
   66MOL    C8134011   4.104   6.933   4.202 -0.7232 -0.1418 -0.1912
   66MOL    N8234012   4.145   7.021   4.092  0.3676  0.9223  0.0082
   66MOL    C8334013   4.058   7.071   3.996 -0.5699  0.1209 -0.3978
   66MOL    C8434014   4.126   7.151   3.905 -0.3840  0.2084  0.5056
   66MOL    C8534015   4.055   7.212   3.799  0.3441  0.0654  0.2957
   66MOL    C8634016   3.917   7.192   3.780 -0.2327 -0.3194 -0.2928
   66MOL    C8734017   3.851   7.112   3.873  0.3230 -0.9883  0.3604
   66MOL    C8834018   3.919   7.046   3.979 -0.2932 -0.2871 -0.0703
   66MOL    C8934019   4.264   7.155   3.948  0.5712  0.0785  0.0975
   66MOL    C9034020   4.273   7.071   4.062  0.0332  0.0652  0.5260
   66MOL    C9134021   4.397   7.052   4.125  0.0428 -0.2939 -0.1290
   66MOL    C9234022   4.510   7.120   4.076  0.7698 -0.9908 -0.3009
   66MOL    C9334023   4.506   7.191   3.958 -0.0566 -0.2661 -0.3692
   66MOL    C9434024   4.379   7.211   3.895  0.4480 -0.0818 -0.6008
   66MOL    H9534025   4.194   7.072   4.332  0.0074  1.9943 -2.3774
   66MOL    H9634026   4.098   6.958   4.425 -0.0968  0.7186 -0.0667
   66MOL    H9734027   4.003   6.898   4.181  0.3036 -2.4334 -1.4493
   66MOL    H9834028   4.100   7.284   3.732 -1.3905 -0.1882 -1.1861
   66MOL    H9934029   3.860   7.235   3.698  1.0193 -0.7816 -1.4292
   66MOL   H10034030   3.746   7.091   3.857 -0.1441  1.4814  0.0384
   66MOL   H10134031   3.862   6.978   4.040 -1.0293 -0.6193 -1.1200
   66MOL   H10234032   4.404   6.989   4.212  0.4015  1.5761  1.2386
   66MOL   H10334033   4.605   7.109   4.127  0.4578 -0.0851  0.4629
   66MOL   H10434034   4.593   7.242   3.918 -1.0273  1.7515  0.0223
   66MOL   H10534035   4.374   7.262   3.800 -2.1245  0.1060 -0.3923
   66MOL   C10634036   4.182   6.799   4.223 -0.0871  0.0828 -0.3838
   66MOL   C10734037   4.233   6.720   4.105  0.4645  0.2835 -0.3540
   66MOL   N10834038   4.334   6.622   4.148  0.2258 -0.1230  0.4943
   66MOL   C10934039   4.474   6.622   4.117 -0.0361 -0.2443 -0.6191
   66MOL   C11034040   4.541   6.505   4.166 -0.4369 -0.5546  0.4067
   66MOL   C11134041   4.683   6.498   4.146  0.1584  0.1082  0.3952
   66MOL   C11234042   4.757   6.600   4.088 -0.1985 -0.3127 -0.7994
   66MOL   C11334043   4.686   6.708   4.034 -0.7723 -0.2984 -0.4669
   66MOL   C11434044   4.547   6.721   4.049  0.2471 -0.0415  0.0280
   66MOL   C11534045   4.436   6.429   4.227  0.3640  0.9729  0.3201
   66MOL   C11634046   4.310   6.495   4.211 -0.3686  0.2305 -0.0455
   66MOL   C11734047   4.196   6.436   4.258  0.2637 -0.4373  0.2300
   66MOL   C11834048   4.195   6.314   4.325  0.5497  0.4607 -0.5357
   66MOL   C11934049   4.318   6.253   4.346 -0.4294 -0.0176  0.1235
   66MOL   C12034050   4.436   6.304   4.297  0.1462  1.0855 -0.6690
   66MOL   H12134051   4.272   6.818   4.281  0.4989 -1.0476 -0.9097
   66MOL   H12234052   4.128   6.743   4.299  0.4223 -0.4824 -0.4347
   66MOL   H12334053   4.280   6.801   4.049  0.5788  0.3068 -0.2252
   66MOL   H12434054   4.734   6.412   4.188  2.1757  0.5875 -1.0004
   66MOL   H12534055   4.863   6.584   4.078 -0.2629 -0.6918 -0.8888
   66MOL   H12634056   4.737   6.798   4.004  1.8786 -1.1441  1.3215
   66MOL   H12734057   4.501   6.813   4.019  0.9417  0.6677  1.0887
   66MOL   H12834058   4.101   6.484   4.239  0.3032 -1.0600 -1.6945
   66MOL   H12934059   4.102   6.277   4.364 -0.5466  1.4268 -2.1701
   66MOL   H13034060   4.327   6.167   4.411  1.4945 -0.2913 -0.4594
   66MOL   H13134061   4.518   6.235   4.309 -0.1500  0.9196  0.4545
   66MOL   C13234062   4.131   6.657   4.005  0.3332  0.2215  0.7656
   66MOL   C13334063   4.198   6.640   3.859 -0.5629  0.3058 -0.4244
   66MOL   N13434064   4.103   6.583   3.762  0.4734 -0.7908 -0.2447
   66MOL   C13534065   4.115   6.452   3.703 -0.4818 -0.2320 -0.8714
   66MOL   C13634066   4.016   6.436   3.606 -0.3439 -0.0145 -0.3898
   66MOL   C13734067   4.007   6.315   3.536  0.1445 -0.0061 -0.1852
   66MOL   C13834068   4.096   6.208   3.559  0.2666 -0.4464  0.2930
   66MOL   C13934069   4.197   6.229   3.660  0.2426 -0.6532 -0.8418
   66MOL   C14034070   4.203   6.348   3.733  0.0767  0.0640  0.1150
   66MOL   C14134071   3.939   6.557   3.602  0.0537 -0.3413 -0.4106
   66MOL   C14234072   3.989   6.635   3.709  0.0538 -0.6473 -0.2784
   66MOL   C14334073   3.927   6.763   3.734  0.5063  1.0354  0.5276
   66MOL   C14434074   3.822   6.809   3.657 -0.5244  0.0661 -0.3014
   66MOL   C14534075   3.776   6.728   3.553  0.0340 -0.5830 -0.6435
   66MOL   C14634076   3.829   6.600   3.532 -0.1993  0.0012 -0.2719
   66MOL   H14734077   4.086   6.560   4.025  0.0542  0.4193  1.1027
   66MOL   H14834078   4.052   6.730   3.987 -0.9293 -1.1014  0.8682
   66MOL   H14934079   4.272   6.564   3.884  1.1572  1.9183 -0.4911
   66MOL   H15034080   3.929   6.305   3.463 -0.2913  0.2879  0.2426
   66MOL   H15134081   4.104   6.114   3.506  2.5630 -0.0305 -0.1743
   66MOL   H15234082   4.271   6.151   3.666  1.5941  0.7722  1.8206
   66MOL   H15334083   4.281   6.361   3.806 -2.0667 -0.4480  2.6030
   66MOL   H15434084   3.969   6.834   3.804  0.2923  1.0725  0.6185
   66MOL   H15534085   3.788   6.911   3.650 -2.1395 -0.4390  0.0049
   66MOL   H15634086   3.692   6.757   3.493  1.0038  1.1676 -1.1787
   66MOL   H15734087   3.787   6.534   3.458 -1.0099  0.1069  0.0905
   66MOL   C15834088   4.263   6.775   3.808 -0.4851 -0.0063  0.1712
   66MOL   C15934089   4.291   6.796   3.664 -0.3360 -0.7603  0.7190
   66MOL   N16034090   4.356   6.926   3.637  0.2698  0.6269 -0.3791
   66MOL   C16134091   4.303   7.031   3.562 -0.1185  0.4966  0.5295
   66MOL   C16234092   4.403   7.128   3.544  0.8375 -0.1997  0.3164
   66MOL   C16334093   4.370   7.249   3.467  0.5859 -0.3169 -0.1139
   66MOL   C16434094   4.242   7.260   3.409  0.2886 -0.4806  0.8937
   66MOL   C16534095   4.141   7.161   3.419 -0.1974 -0.1376 -0.2044
   66MOL   C16634096   4.174   7.046   3.502 -0.0283 -0.0787  0.8364
   66MOL   C16734097   4.517   7.083   3.610  0.2436 -0.1443  0.0715
   66MOL   C16834098   4.489   6.960   3.673  0.8183 -0.4758  0.1898
   66MOL   C16934099   4.591   6.892   3.741 -0.8711 -0.0856 -1.3046
   66MOL   C17034100   4.726   6.937   3.744 -0.1074  0.0501  0.0146
   66MOL   C17134101   4.757   7.058   3.685 -0.6968  0.7143  0.0493
   66MOL   C17234102   4.653   7.133   3.626  0.5770 -0.0271  0.0517
   66MOL   H17334103   4.207   6.859   3.850 -1.2720 -1.2534  1.6795
   66MOL   H17434104   4.366   6.774   3.844  0.5349 -0.1897 -2.6545
   66MOL   H17534105   4.196   6.793   3.610  0.6437 -0.7511 -1.0545
   66MOL   H17634106   4.431   7.338   3.462 -1.6650  1.2585 -0.1017
   66MOL   H17734107   4.229   7.345   3.344  0.0277 -0.2500  1.2463
   66MOL   H17834108   4.041   7.165   3.378 -0.2688 -2.5294 -0.3104
   66MOL   H17934109   4.101   6.967   3.506  1.2043 -1.1708  2.5421
   66MOL   H18034110   4.574   6.791   3.775  1.4935  0.0523  0.3960
   66MOL   H18134111   4.799   6.876   3.796  2.8022  2.7486 -0.7110
   66MOL   H18234112   4.856   7.098   3.701 -1.0438  1.5565  0.1042
   66MOL   H18334113   4.673   7.229   3.580 -0.4395  0.3051  0.2927
   66MOL   C18434114   4.361   6.682   3.583 -0.0871  0.1397 -0.4330
   66MOL   C18534115   4.421   6.721   3.450  0.1708 -0.2368 -0.1784
   66MOL   N18634116   4.530   6.618   3.411 -0.0764 -0.4746 -0.0713
   66MOL   C18734117   4.668   6.649   3.392 -0.5338  0.6573  0.5485
   66MOL   C18834118   4.731   6.525   3.369 -0.2759 -0.8472  0.6969
   66MOL   C18934119   4.875   6.518   3.371 -0.9998 -0.5227 -0.2747
   66MOL   C19034120   4.946   6.640   3.372 -0.8449 -0.4575  0.2309
   66MOL   C19134121   4.879   6.765   3.385  0.4162  0.0461  0.5716
   66MOL   C19234122   4.742   6.770   3.401 -0.1966 -0.3219 -0.1882
   66MOL   C19334123   4.628   6.422   3.364  0.4441 -0.0170  0.5685
   66MOL   C19434124   4.502   6.485   3.378 -0.5689 -0.8618  0.5427
   66MOL   C19534125   4.383   6.402   3.382 -0.1859  0.3168 -0.0774
   66MOL   C19634126   4.394   6.268   3.351 -0.6283  0.4162 -0.5109
   66MOL   C19734127   4.519   6.202   3.346  0.1985  0.4360  0.2408
   66MOL   C19834128   4.639   6.276   3.353 -0.5403  0.0943  0.6324
   66MOL   H19934129   4.445   6.640   3.638 -0.7520  0.6322  0.9639
   66MOL   H20034130   4.288   6.604   3.562 -1.3123  0.9904  0.6059
   66MOL   H20134131   4.488   6.807   3.448  0.4727 -0.5050 -2.1077
   66MOL   H20234132   4.933   6.428   3.376  0.3243  0.4361  2.9140
   66MOL   H20334133   5.054   6.643   3.374 -0.8124 -1.8437  2.6470
   66MOL   H20434134   4.923   6.863   3.393  1.4369 -0.2842 -0.7625
   66MOL   H20534135   4.691   6.866   3.406 -0.2218 -0.3067 -0.6895
   66MOL   H20634136   4.287   6.450   3.397 -0.3993 -0.0631 -0.2381
   66MOL   H20734137   4.304   6.209   3.337  0.0564 -0.8294  0.2709
   66MOL   H20834138   4.523   6.097   3.321 -0.7742  0.4281  0.0881
   66MOL   H20934139   4.736   6.230   3.343 -0.3118  1.0250 -1.8213
   66MOL   C21034140   4.326   6.745   3.334  0.3575 -0.4938 -0.1564
   66MOL   C21134141   4.388   6.800   3.199  0.4457  0.0465 -0.4623
   66MOL   N21234142   4.322   6.756   3.074 -0.2491 -0.7649  0.4358
   66MOL   C21334143   4.358   6.649   2.995 -0.1887  0.0602  0.1567
   66MOL   C21434144   4.261   6.631   2.888 -0.8835  0.3044 -0.3446
   66MOL   C21534145   4.277   6.530   2.793 -0.2145  0.5905 -0.0414
   66MOL   C21634146   4.379   6.436   2.808 -0.7380  0.5259 -0.2709
   66MOL   C21734147   4.469   6.447   2.917 -0.9375  0.6336 -0.5889
   66MOL   C21834148   4.463   6.553   3.009  0.2192  0.0028 -0.7860
   66MOL   C21934149   4.169   6.740   2.905 -0.2709 -0.5609 -0.0987
   66MOL   C22034150   4.205   6.813   3.022  0.9369 -0.3658  0.2554
   66MOL   C22134151   4.116   6.913   3.065  0.4199 -0.3801 -0.0277
   66MOL   C22234152   4.003   6.953   2.992  0.0166 -0.3353 -0.7506
   66MOL   C22334153   3.978   6.891   2.870  0.6118  0.2891 -0.1516
   66MOL   C22434154   4.064   6.791   2.819  0.1007  0.5966 -0.2329
   66MOL   H22534155   4.281   6.653   3.297 -1.0815  0.9996 -2.2254
   66MOL   H22634156   4.252   6.814   3.374 -0.0722  0.4037 -2.3959
   66MOL   H22734157   4.486   6.755   3.189  0.1190 -0.9851  0.8142
   66MOL   H22834158   4.216   6.525   2.704 -0.6986 -0.9137  0.3533
   66MOL   H22934159   4.392   6.358   2.735  3.1913  0.9938 -0.2101
   66MOL   H23034160   4.542   6.369   2.925 -0.1837  1.4815  1.3445
   66MOL   H23134161   4.528   6.546   3.095  0.9468 -2.3086 -1.4886
   66MOL   H23234162   4.124   6.956   3.163  0.6225  0.7809 -0.5459
   66MOL   H23334163   3.935   7.028   3.030 -1.2745 -2.7087  1.7516
   66MOL   H23434164   3.887   6.921   2.819  0.2454  2.4520  1.6696
   66MOL   H23534165   4.058   6.742   2.722  2.2049  1.4729 -0.8388
   66MOL   C23634166   4.428   6.943   3.213 -0.3319 -0.4722 -0.2080
   66MOL   C23734167   4.476   7.011   3.077 -0.1842  0.3864 -0.6136
   66MOL   N23834168   4.514   7.150   3.112  0.3954  0.7725 -0.6736
   66MOL   C23934169   4.427   7.259   3.086 -0.3123 -0.3947 -0.4301
   66MOL   C24034170   4.486   7.379   3.131  0.3476 -0.0113  0.1662
   66MOL   C24134171   4.419   7.501   3.105 -0.0690  0.2890 -0.5366
   66MOL   C24234172   4.290   7.505   3.049 -1.1965  0.2539  0.9311
   66MOL   C24334173   4.222   7.389   3.015 -0.2454  0.3232  0.0039
   66MOL   C24434174   4.294   7.262   3.032 -0.2583  0.0531  0.0712
   66MOL   C24534175   4.606   7.340   3.190 -0.3362 -0.0194  0.4160
   66MOL   C24634176   4.629   7.200   3.171  0.1995 -0.1721 -0.3572
   66MOL   C24734177   4.744   7.131   3.222  0.1559 -0.0360 -0.3565
   66MOL   C24834178   4.838   7.202   3.289 -0.1431 -0.6733 -0.5374
   66MOL   C24934179   4.821   7.342   3.315  0.4671 -0.3467 -0.1526
   66MOL   C25034180   4.705   7.409   3.261 -0.8159 -0.7829  0.0496
   66MOL   H25134181   4.339   6.995   3.246 -1.0304 -1.1566 -0.9785
   66MOL   H25234182   4.507   6.959   3.286 -1.0218  0.7231  0.2907
   66MOL   H25334183   4.405   7.014   2.995  0.0388 -0.3695 -0.8387
   66MOL   H25434184   4.473   7.590   3.133  0.0054 -0.2017  0.9215
   66MOL   H25534185   4.257   7.601   3.013  0.0906  0.0509 -0.9145
   66MOL   H25634186   4.126   7.387   2.967  0.3543  1.3747 -1.2328
   66MOL   H25734187   4.248   7.172   2.994 -1.1742 -1.0704  3.6172
   66MOL   H25834188   4.754   7.024   3.234  2.5650  0.0166 -1.6898
   66MOL   H25934189   4.924   7.153   3.334 -2.7167 -1.9620  3.1957
   66MOL   H26034190   4.894   7.392   3.376  0.4726  1.2278 -1.4319
   66MOL   H26134191   4.689   7.515   3.276  1.7669 -0.4042  0.2618
   66MOL   C26234192   4.599   6.950   3.003 -0.3607  0.0357  0.3869
   66MOL   C26334193   4.591   6.933   2.850 -1.0406  0.1104  0.6391
   66MOL   N26434194   4.556   7.058   2.782  0.5463  0.2092 -0.1367
   66MOL   C26534195   4.439   7.080   2.713  0.3014  0.0562  1.3992
   66MOL   C26634196   4.447   7.205   2.647 -0.2905  0.7958 -0.1603
   66MOL   C26734197   4.337   7.244   2.572 -0.4252  0.2998  0.0358
   66MOL   C26834198   4.223   7.169   2.558 -0.0357  0.9490  0.1779
   66MOL   C26934199   4.215   7.042   2.615 -0.0050 -0.6219 -0.1924
   66MOL   C27034200   4.326   6.995   2.693  0.1497 -0.0604  0.9144
   66MOL   C27134201   4.568   7.262   2.695 -0.1401 -0.3125 -0.0885
   66MOL   C27234202   4.635   7.174   2.778  0.3496 -0.6636 -0.3757
   66MOL   C27334203   4.764   7.205   2.828 -0.4449 -0.4858 -0.0287
   66MOL   C27434204   4.817   7.333   2.811 -0.2250  1.0080 -1.0503
   66MOL   C27534205   4.758   7.418   2.728 -0.4398  0.5680 -0.5545
   66MOL   C27634206   4.631   7.386   2.667 -0.1878  0.1826  0.4929
   66MOL   H27734207   4.686   7.014   3.016  0.9101 -1.0876 -2.2695
   66MOL   H27834208   4.622   6.858   3.056  0.7058  1.0836  1.7896
   66MOL   H27934209   4.508   6.863   2.844  0.9463 -2.2813  0.1268
   66MOL   H28034210   4.343   7.340   2.523  1.7771 -0.4133 -1.1263
   66MOL   H28134211   4.144   7.204   2.494 -1.0483  0.1181  0.9395
   66MOL   H28234212   4.121   6.988   2.615 -0.6163  0.4022 -1.5678
   66MOL   H28334213   4.311   6.900   2.742 -0.4910  0.1550  1.1399
   66MOL   H28434214   4.825   7.138   2.888  0.0080 -0.3417 -0.3252
   66MOL   H28534215   4.911   7.364   2.855  0.0157  1.7471 -2.0612
   66MOL   H28634216   4.821   7.503   2.705  0.9067  0.0796  1.2787
   66MOL   H28734217   4.588   7.450   2.591 -1.0883  0.3025  1.0940
   66MOL   C28834218   4.724   6.871   2.801 -0.9005  0.4357  0.0913
   66MOL   C28934219   4.748   6.860   2.641 -0.1579  0.9716  0.1759
   66MOL   N29034220   4.876   6.797   2.608  0.4632  0.2690 -0.4928
   66MOL   C29134221   4.994   6.868   2.600  0.5020  0.1401  0.5774
   66MOL   C29234222   5.102   6.785   2.583 -0.1656  0.1079 -0.2170
   66MOL   C29334223   5.229   6.838   2.572 -0.5092  0.5460 -0.1593
   66MOL   C29434224   5.256   6.977   2.576  0.3219 -0.2340 -0.1405
   66MOL   C29534225   5.143   7.066   2.594 -0.6097 -0.1395 -0.0823
   66MOL   C29634226   5.015   7.011   2.601 -0.3430  0.0239 -0.1121
   66MOL   C29734227   5.051   6.652   2.583  0.4399  0.7152  0.4820
   66MOL   C29834228   4.910   6.658   2.601 -0.2165  0.4320  0.1649
   66MOL   C29934229   4.832   6.545   2.620  0.2129 -0.4506  0.2508
   66MOL   C30034230   4.895   6.416   2.623 -0.5924 -0.0802  0.6519
   66MOL   C30134231   5.034   6.408   2.604 -0.2573  0.1924  0.8146
   66MOL   C30234232   5.112   6.524   2.579 -0.2042  0.0527  0.3746
   66MOL   H30334233   4.804   6.922   2.855  0.0304 -1.6840  0.7715
   66MOL   H30434234   4.738   6.766   2.829 -1.1137  0.0730 -1.1410
   66MOL   H30534235   4.747   6.965   2.612 -1.5201  0.8315 -0.3353
   66MOL   H30634236   5.306   6.764   2.556 -0.9901  0.2527 -1.1959
   66MOL   H30734237   5.359   7.007   2.564  0.0860 -0.3128 -2.4242
   66MOL   H30834238   5.160   7.172   2.587  1.9159 -0.3771  1.8782
   66MOL   H30934239   4.928   7.071   2.623  0.1915  0.4165  0.9698
   66MOL   H31034240   4.726   6.553   2.643  0.0213 -1.7300 -0.1171
   66MOL   H31134241   4.838   6.329   2.650 -0.0456 -1.3824 -2.2405
   66MOL   H31234242   5.086   6.314   2.613 -1.1872 -0.3246  0.8266
   66MOL   H31334243   5.219   6.516   2.566 -0.1796 -1.9343  1.7304
   66MOL   C31434244   4.633   6.796   2.554 -0.3474 -0.0313  0.5086
   66MOL   C31534245   4.595   6.878   2.426  0.6121 -0.4669 -0.3890
   66MOL   N31634246   4.710   6.893   2.335 -0.6184 -0.0108  0.3167
   66MOL   C31734247   4.785   7.011   2.319 -0.1887  0.3582 -0.3877
   66MOL   C31834248   4.879   6.990   2.209  0.4235 -0.0740 -0.0014
   66MOL   C31934249   4.958   7.101   2.174 -0.4866  0.0262 -0.3054
   66MOL   C32034250   4.951   7.227   2.243 -0.4850  0.6336  0.1102
   66MOL   C32134251   4.861   7.243   2.349  0.5383 -0.0696  0.1927
   66MOL   C32234252   4.781   7.134   2.388 -0.6112  0.3151 -0.3057
   66MOL   C32334253   4.863   6.855   2.160  0.1115 -1.0357 -0.2269
   66MOL   C32434254   4.760   6.799   2.243 -0.1285  0.5293  0.1183
   66MOL   C32534255   4.716   6.669   2.222  0.5105 -0.0140 -0.0954
   66MOL   C32634256   4.764   6.586   2.117  0.6076  0.0088  0.0927
   66MOL   C32734257   4.865   6.639   2.037 -0.4882 -0.9503  0.1540
   66MOL   C32834258   4.910   6.772   2.055  0.6775 -0.1342  0.3974
   66MOL   H32934259   4.641   6.693   2.517 -1.5340 -0.3720  1.1650
   66MOL   H33034260   4.542   6.803   2.613  0.8200 -0.9362  2.4716
   66MOL   H33134261   4.556   6.977   2.451 -1.3723 -1.2467 -0.3543
   66MOL   H33234262   5.032   7.083   2.096  0.1347 -0.4469  0.3829
   66MOL   H33334263   5.015   7.310   2.216  1.0006 -0.2102  0.9736
   66MOL   H33434264   4.849   7.339   2.398 -2.5982  0.0863 -0.7928
   66MOL   H33534265   4.708   7.142   2.467 -0.1035 -0.9835  0.3064
   66MOL   H33634266   4.658   6.622   2.300  2.5250 -0.1013  1.3798
   66MOL   H33734267   4.728   6.486   2.100  0.4024 -0.0213  0.6908
   66MOL   H33834268   4.913   6.568   1.970  0.6948 -1.3679  1.4019
   66MOL   H33934269   4.990   6.813   1.994  1.0386 -1.1214  0.1997
   66MOL   C34034270   4.472   6.829   2.355  0.1766  0.4628  1.2452
   66MOL   C34134271   4.431   6.883   2.220 -0.0737 -0.6184  0.6725
   66MOL   N34234272   4.310   6.822   2.157 -0.9819 -0.2400 -0.8807
   66MOL   C34334273   4.310   6.748   2.036 -0.5562 -0.0139  0.1447
   66MOL   C34434274   4.174   6.742   1.988 -1.1358  0.4178 -0.4855
   66MOL   C34534275   4.153   6.679   1.866 -0.6898 -0.0951  0.1291
   66MOL   C34634276   4.257   6.615   1.800  0.1912  0.0797  0.2218
   66MOL   C34734277   4.386   6.615   1.851 -0.0937  0.6456 -0.3376
   66MOL   C34834278   4.417   6.684   1.965  0.4865 -1.1619  0.1805
   66MOL   C34934279   4.090   6.815   2.081 -0.5731 -0.2312  0.1954
   66MOL   C35034280   4.176   6.855   2.192 -0.7427  0.1836  0.2207
   66MOL   C35134281   4.130   6.916   2.312  0.2821 -0.6116 -0.0725
   66MOL   C35234282   3.989   6.931   2.325  0.0147  0.7873 -0.9076
   66MOL   C35334283   3.902   6.895   2.216  0.5604  0.4833  0.6232
   66MOL   C35434284   3.950   6.845   2.091 -0.2034  0.5435  0.6626
   66MOL   H35534285   4.479   6.721   2.349 -1.1829  0.2061  3.6221
   66MOL   H35634286   4.387   6.841   2.422 -0.1462 -1.1570  1.1304
   66MOL   H35734287   4.512   6.840   2.161 -1.5345 -4.2966  1.2254
   66MOL   H35834288   4.052   6.665   1.833 -0.8254 -0.7054  0.8035
   66MOL   H35934289   4.234   6.564   1.707  0.8090  1.7835 -0.8754
   66MOL   H36034290   4.457   6.552   1.800  0.2850  0.5034  0.3619
   66MOL   H36134291   4.521   6.675   1.993  0.8788 -0.3342 -0.9423
   66MOL   H36234292   4.199   6.933   2.393  0.7453  1.2286 -0.8295
   66MOL   H36334293   3.942   6.961   2.418 -0.5242  1.7965 -1.5026
   66MOL   H36434294   3.794   6.895   2.223  0.4119  1.4190 -1.2834
   66MOL   H36534295   3.888   6.811   2.010 -0.6997 -1.6317  1.9003
   66MOL   C36634296   4.440   7.043   2.210  0.8737 -0.0833 -0.6567
   66MOL   C36734297   4.382   7.113   2.085 -1.0247 -0.3217 -0.0856
   66MOL   N36834298   4.382   7.262   2.099  0.5120 -0.0320 -0.1496
   66MOL   C36934299   4.267   7.338   2.117  0.4412 -0.4285  0.0904
   66MOL   C37034300   4.296   7.473   2.112  0.4604 -0.3997 -0.0805
   66MOL   C37134301   4.201   7.569   2.119  0.3824  0.0959 -0.3979
   66MOL   C37234302   4.067   7.533   2.123  0.0115  0.3000  0.0212
   66MOL   C37334303   4.028   7.401   2.113 -0.4610  0.3716 -0.1596
   66MOL   C37434304   4.128   7.298   2.114 -0.1665  0.6219 -0.1700
   66MOL   C37534305   4.436   7.481   2.095 -0.7264 -0.0941  0.5689
   66MOL   C37634306   4.493   7.350   2.097  0.9220 -0.4500  0.1379
   66MOL   C37734307   4.635   7.333   2.094 -0.7297  0.0450 -0.8038
   66MOL   C37834308   4.722   7.444   2.079  1.2581  0.0425  0.0596
   66MOL   C37934309   4.664   7.574   2.069 -0.3355 -0.6958  0.4752
   66MOL   C38034310   4.523   7.590   2.081  0.3982  0.2713 -0.6941
   66MOL   H38134311   4.385   7.090   2.292 -0.7722  0.3333 -1.9982
   66MOL   H38234312   4.547   7.062   2.216  1.0357 -0.9327 -0.7225
   66MOL   H38334313   4.275   7.091   2.083 -0.8682 -1.0960 -3.9251
   66MOL   H38434314   4.235   7.672   2.120  2.3204 -0.5311  0.0810
   66MOL   H38534315   3.985   7.599   2.099 -1.4852 -2.1522 -1.8523
   66MOL   H38634316   3.923   7.377   2.119  0.0139 -1.3890  1.5948
   66MOL   H38734317   4.098   7.195   2.102  1.1156  0.1928  0.2260
   66MOL   H38834318   4.674   7.232   2.090  0.6392  0.4798  1.2408
   66MOL   H38934319   4.829   7.431   2.073  1.3481 -0.4304  2.1986
   66MOL   H39034320   4.724   7.663   2.070 -1.8668  0.4338 -2.7118
   66MOL   H39134321   4.484   7.691   2.079  0.5734  0.3343 -0.9565
   66MOL   C39234322   4.444   7.086   1.943 -0.5128  0.3418  0.0506
   66MOL   C39334323   4.386   7.159   1.824 -0.4756  0.1049 -0.4229
   66MOL   N39434324   4.479   7.148   1.711 -0.2505 -0.0955  0.1638
   66MOL   C39534325   4.579   7.242   1.675  0.0797 -0.5023 -0.1274
   66MOL   C39634326   4.626   7.209   1.547  0.5057 -0.6675 -0.7873
   66MOL   C39734327   4.704   7.310   1.477  0.0394  0.6512 -0.5264
   66MOL   C39834328   4.740   7.432   1.539  0.9070 -0.6025 -0.2211
   66MOL   C39934329   4.690   7.457   1.669  0.2301 -0.7517  0.1003
   66MOL   C40034330   4.616   7.360   1.738 -0.4607  0.1822  0.2145
   66MOL   C40134331   4.569   7.074   1.522  0.0180 -0.1951  0.0094
   66MOL   C40234332   4.491   7.033   1.634  0.0359 -0.8831  0.1960
   66MOL   C40334333   4.446   6.902   1.648 -0.1956 -0.0214 -0.8811
   66MOL   C40434334   4.478   6.810   1.549 -0.0728 -0.3963  0.1135
   66MOL   C40534335   4.554   6.853   1.441 -0.1313 -0.3002 -0.0787
   66MOL   C40634336   4.590   6.986   1.420  0.4643  0.1694  0.2290
   66MOL   H40734337   4.552   7.099   1.941 -0.4911  0.8719  2.6650
   66MOL   H40834338   4.430   6.980   1.919 -2.6985  0.7201 -0.4673
   66MOL   H40934339   4.368   7.265   1.845 -0.2874 -0.1864  1.3590
   66MOL   H41034340   4.724   7.284   1.375 -1.0360 -3.4206  0.2231
   66MOL   H41134341   4.772   7.511   1.473  0.8344  0.1369  0.6192
   66MOL   H41234342   4.702   7.551   1.720  0.2132 -1.0943  0.7475
   66MOL   H41334343   4.566   7.384   1.831 -0.5858  2.7874 -0.4872
   66MOL   H41434344   4.396   6.860   1.734  3.1735  0.1566  1.2470
   66MOL   H41534345   4.443   6.708   1.549  2.1116 -1.1881  0.2612
   66MOL   H41634346   4.579   6.780   1.365  2.7381  1.5612 -1.0203
   66MOL   H41734347   4.649   7.006   1.332 -0.6848  2.7723  0.0190
   66MOL   C41834348   4.246   7.111   1.779 -0.0639  0.1460 -1.0479
   66MOL   C41934349   4.177   7.198   1.666 -0.5688  0.5183 -0.1628
   66MOL   N42034350   4.100   7.105   1.576 -0.3553  0.8306  0.1564
   66MOL   C42134351   4.147   7.057   1.452 -0.6859 -0.6076 -0.4139
   66MOL   C42234352   4.049   6.969   1.397 -0.3276 -0.0166 -0.4141
   66MOL   C42334353   4.079   6.915   1.269 -0.4367  0.4644 -0.2028
   66MOL   C42434354   4.189   6.951   1.191  0.5955 -0.1858 -0.4897
   66MOL   C42534355   4.281   7.044   1.247  0.4170  0.0697  0.0776
   66MOL   C42634356   4.261   7.095   1.379 -0.2983 -1.0094  0.1590
   66MOL   C42734357   3.946   6.951   1.492  0.4471 -0.0181  0.2113
   66MOL   C42834358   3.981   7.029   1.607 -0.4846 -0.5865 -0.0045
   66MOL   C42934359   3.904   7.022   1.722 -0.6293  0.1829  0.2817
   66MOL   C43034360   3.785   6.948   1.731 -0.6142  0.1864 -0.4142
   66MOL   C43134361   3.748   6.867   1.621  0.2503  0.3151 -0.1598
   66MOL   C43234362   3.822   6.881   1.502  0.2947  0.4385 -0.5423
   66MOL   H43334363   4.242   7.004   1.761  0.3052  0.1457 -1.1271
   66MOL   H43434364   4.194   7.123   1.874 -0.4061 -0.5152 -1.1472
   66MOL   H43534365   4.258   7.243   1.609  2.2164 -4.5488 -0.5557
   66MOL   H43634366   4.015   6.845   1.219 -0.6874  1.1053 -0.7856
   66MOL   H43734367   4.204   6.899   1.097 -0.2674 -3.1313  0.9349
   66MOL   H43834368   4.361   7.068   1.178  0.0822  0.4969 -0.1549
   66MOL   H43934369   4.333   7.165   1.419 -2.8538  1.3724  0.7423
   66MOL   H44034370   3.917   7.089   1.806 -0.2517 -1.0520  1.2113
   66MOL   H44134371   3.725   6.955   1.821 -2.9618  0.9220 -1.9878
   66MOL   H44234372   3.657   6.810   1.638 -0.2915  1.8582  2.3105
   66MOL   H44334373   3.792   6.824   1.415 -0.2901 -1.8955  1.1324
   66MOL   C44434374   4.089   7.308   1.730 -0.3422  0.0344 -0.1865
   66MOL   C44534375   3.965   7.375   1.658 -0.3973 -0.1295  0.2012
   66MOL   N44634376   3.861   7.450   1.741 -0.5263  0.8087 -1.1831
   66MOL   C44734377   3.731   7.401   1.763 -0.0960  0.6323 -0.2620
   66MOL   C44834378   3.657   7.503   1.829 -0.0018 -0.6726  1.3048
   66MOL   C44934379   3.516   7.478   1.853  0.1135  0.9171  0.6599
   66MOL   C45034380   3.464   7.354   1.814 -0.7534  0.2802 -0.0385
   66MOL   C45134381   3.540   7.258   1.743 -0.1825 -0.2547  0.1366
   66MOL   C45234382   3.675   7.281   1.717  0.7729 -0.3030  0.0026
   66MOL   C45334383   3.740   7.609   1.858 -0.4055 -0.2419  0.2497
   66MOL   C45434384   3.867   7.574   1.805 -0.6585 -0.1730 -0.0749
   66MOL   C45534385   3.977   7.659   1.813  0.6370  0.0319 -0.3312
   66MOL   C45634386   3.966   7.779   1.880  0.7404 -0.3728 -0.3575
   66MOL   C45734387   3.843   7.814   1.932  0.3836 -0.4757 -0.4686
   66MOL   C45834388   3.725   7.738   1.919  0.0957  0.0271  0.1268
   66MOL   H45934389   4.045   7.253   1.813 -0.0694 -0.3348 -0.2847
   66MOL   H46034390   4.157   7.374   1.785  0.9160 -0.4618 -1.1278
   66MOL   H46134391   3.913   7.286   1.623 -0.5565 -0.2672  0.7843
   66MOL   H46234392   3.450   7.554   1.891 -2.7530 -1.5171  0.6730
   66MOL   H46334393   3.363   7.324   1.839 -0.7099 -1.5580 -1.9439
   66MOL   H46434394   3.502   7.157   1.735 -0.0693 -0.3308  0.5780
   66MOL   H46534395   3.734   7.203   1.672  0.4018  0.0163 -1.0744
   66MOL   H46634396   4.067   7.622   1.768  1.3939 -0.1140  1.2600
   66MOL   H46734397   4.045   7.853   1.884 -0.1450  0.5493  0.4086
   66MOL   H46834398   3.832   7.915   1.971  1.2437 -1.5332  2.6438
   66MOL   H46934399   3.637   7.781   1.964  0.8945  0.3513  1.3788
   66MOL   C47034400   4.017   7.438   1.529 -0.2213  0.4431 -0.6397
   66MOL   C47134401   3.931   7.539   1.454 -0.1648 -0.0364  0.6614
   66MOL   N47234402   3.999   7.570   1.327 -0.0772 -0.0231 -0.6705
   66MOL   C47334403   4.098   7.664   1.320 -0.2726 -0.1884 -0.1861
   66MOL   C47434404   4.145   7.672   1.190  1.2384  0.6266 -0.1508
   66MOL   C47534405   4.234   7.776   1.159  1.1116  0.0783  0.2748
   66MOL   C47634406   4.267   7.874   1.254 -0.3930  0.1783  0.0033
   66MOL   C47734407   4.226   7.859   1.389 -0.8991  1.0773  0.0004
   66MOL   C47834408   4.144   7.754   1.423 -0.8191  0.4216  0.0878
   66MOL   C47934409   4.068   7.577   1.112  0.4508 -0.0646 -0.1688
   66MOL   C48034410   3.985   7.507   1.204  0.1804  0.3998  0.2058
   66MOL   C48134411   3.911   7.389   1.163 -0.4421  0.0692 -0.4542
   66MOL   C48234412   3.912   7.353   1.029 -0.6424  0.3577 -0.0824
   66MOL   C48334413   3.977   7.434   0.933 -0.1253  0.3905 -0.2488
   66MOL   C48434414   4.056   7.543   0.974 -0.2102  0.0677 -0.7820
   66MOL   H48534415   4.113   7.486   1.547  0.6745 -1.7558  0.7855
   66MOL   H48634416   4.031   7.352   1.463 -2.2726 -0.6554  0.2932
   66MOL   H48734417   3.931   7.629   1.516 -2.2589 -1.1662  2.3810
   66MOL   H48834418   4.263   7.799   1.057 -2.3102 -0.0442 -0.7854
   66MOL   H48934419   4.319   7.962   1.219 -0.4821  1.1715  2.2466
   66MOL   H49034420   4.257   7.935   1.460  0.7005 -0.6416  1.1911
   66MOL   H49134421   4.119   7.735   1.527 -0.5553  0.6364  0.1912
   66MOL   H49234422   3.857   7.330   1.235  1.0348 -0.8543 -0.0827
   66MOL   H49334423   3.861   7.264   0.995 -0.3045  0.2659 -0.3553
   66MOL   H49434424   3.967   7.406   0.829  3.0945 -2.2424  0.0811
   66MOL   H49534425   4.112   7.602   0.903 -0.0116  1.3021  0.3840
   66MOL   C49634426   3.776   7.499   1.436  0.1329 -0.3583 -0.1020
   66MOL   C49734427   3.701   7.600   1.345 -0.4421 -0.4061  0.4550
   66MOL   N49834428   3.680   7.733   1.396  0.6595  0.4508  0.2389
   66MOL   C49934429   3.750   7.844   1.361  0.0858  0.1528  0.5908
   66MOL   C50034430   3.695   7.958   1.423 -0.0062 -0.5454  0.2569
   66MOL   C50134431   3.750   8.085   1.391 -0.0014  0.5383 -0.0921
   66MOL   C50234432   3.853   8.099   1.297 -1.1349 -0.0803  0.8169
   66MOL   C50334433   3.911   7.983   1.234 -0.0447  0.2634 -0.2135
   66MOL   C50434434   3.848   7.857   1.262 -0.1695  0.0151 -0.6774
   66MOL   C50534435   3.581   7.907   1.500  0.2939 -0.9596 -0.4826
   66MOL   C50634436   3.593   7.768   1.502 -0.0223  0.0598  0.1388
   66MOL   C50734437   3.503   7.692   1.581 -0.4168  0.1046 -0.5141
   66MOL   C50834438   3.400   7.750   1.656 -0.9416  0.1219 -0.0528
   66MOL   C50934439   3.392   7.891   1.652  0.5373 -0.1562  0.3266
   66MOL   C51034440   3.476   7.971   1.574 -0.0875 -0.1081  0.2577
   66MOL   H51134441   3.776   7.395   1.404  0.7407 -2.1048  5.1866
   66MOL   H51234442   3.721   7.499   1.529  1.6417 -0.0953  0.8123
   66MOL   H51334443   3.601   7.560   1.330 -1.0231  1.3522 -0.5283
   66MOL   H51434444   3.700   8.173   1.429  1.2597  1.8388 -1.3805
   66MOL   H51534445   3.893   8.197   1.275 -3.2562  0.3730 -1.2514
   66MOL   H51634446   3.991   7.982   1.161 -0.6785  1.5714 -0.9392
   66MOL   H51734447   3.892   7.772   1.211 -1.4355 -0.7188 -0.5635
   66MOL   H51834448   3.516   7.586   1.565  0.9024  0.5384 -2.5121
   66MOL   H51934449   3.342   7.690   1.725 -1.6365 -1.0033 -1.5940
   66MOL   H52034450   3.329   7.935   1.728 -1.2191 -1.0343 -0.5875
   66MOL   H52134451   3.454   8.077   1.575  1.2830  0.1863  0.0911
   66MOL   H52234452   3.752   7.604   1.249 -0.2697  0.1737  0.5682
   67MOL     C134453   1.425   7.507   6.208  0.5360  0.3208 -0.1632
   67MOL     C234454   1.520   7.564   6.099  0.5381 -0.1654 -0.7011
   67MOL     N334455   1.632   7.642   6.154 -0.5213  0.1212 -0.5178
   67MOL     C434456   1.652   7.776   6.120 -0.9656 -0.0991  0.0568
   67MOL     C534457   1.776   7.825   6.185 -0.3630 -0.2407 -0.3411
   67MOL     C634458   1.810   7.962   6.162  0.3567 -0.0769 -0.6383
   67MOL     C734459   1.731   8.049   6.084 -0.2484  0.5384  0.2184
   67MOL     C834460   1.615   7.999   6.025 -0.2700  0.1044  0.1981
   67MOL     C934461   1.571   7.865   6.042  0.4428  0.4217  0.2049
   67MOL    C1034462   1.834   7.720   6.260  0.3571  0.3232 -0.4628
   67MOL    C1134463   1.740   7.609   6.237 -0.9037  0.2627  0.5467
   67MOL    C1234464   1.768   7.494   6.301 -0.3462  0.4826  0.3010
   67MOL    C1334465   1.874   7.480   6.396  0.0680 -0.4631  0.6981
   67MOL    C1434466   1.960   7.591   6.422  0.0273 -1.0908 -0.6457
   67MOL    C1534467   1.947   7.707   6.350  0.3911  0.1857  0.4813
   67MOL    H1634468   1.347   7.449   6.160  1.1282 -0.9756  0.4201
   67MOL    H1734469   1.369   7.582   6.264 -2.2902 -1.5640 -0.3522
   67MOL    H1834470   1.460   7.626   6.033  1.1466  0.0671 -1.0391
   67MOL    H1934471   1.898   7.996   6.213  1.3425  0.9609 -2.9671
   67MOL    H2034472   1.759   8.152   6.067 -0.9575  0.7202  0.1456
   67MOL    H2134473   1.558   8.069   5.965 -0.0743 -1.0954 -1.4165
   67MOL    H2234474   1.492   7.828   5.979  0.4366  1.0276 -0.1496
   67MOL    H2334475   1.707   7.406   6.286  0.5411 -0.0376 -0.2866
   67MOL    H2434476   1.897   7.384   6.441  0.8086 -0.6598 -0.0942
   67MOL    H2534477   2.039   7.594   6.495 -0.4394 -1.8237 -0.1087
   67MOL    H2634478   1.998   7.800   6.372  2.7202 -0.6466 -1.2044
   67MOL    H2734479   1.477   7.441   6.278  2.1536  1.3872 -0.3336
   67MOL    C2834480   1.563   7.442   6.017 -0.3729 -0.1551 -0.1318
   67MOL    C2934481   1.676   7.469   5.915  0.4060 -0.4514 -0.6145
   67MOL    N3034482   1.734   7.344   5.865  0.2262 -0.6154 -0.0141
   67MOL    C3134483   1.843   7.283   5.925 -0.5856 -0.2131  0.3418
   67MOL    C3234484   1.873   7.158   5.866 -0.0646 -0.0085  0.7967
   67MOL    C3334485   1.985   7.082   5.910  0.1223 -0.3152 -0.3328
   67MOL    C3434486   2.067   7.132   6.012 -0.2062 -0.5082 -1.1781
   67MOL    C3534487   2.043   7.256   6.070  0.0516  0.3285  0.7543
   67MOL    C3634488   1.924   7.329   6.033  0.0012 -0.2531  0.3512
   67MOL    C3734489   1.772   7.143   5.761 -0.0203  0.0062  0.8681
   67MOL    C3834490   1.677   7.251   5.772  0.2586 -0.0028  0.2179
   67MOL    C3934491   1.564   7.252   5.688 -0.3119  0.4169  0.5081
   67MOL    C4034492   1.544   7.143   5.597 -0.3840  0.1688  0.1405
   67MOL    C4134493   1.641   7.044   5.580  0.1268 -0.2022 -0.5541
   67MOL    C4234494   1.754   7.039   5.668  0.1586 -0.5936  0.4814
   67MOL    H4334495   1.596   7.365   6.086  0.1432 -0.4323 -0.6864
   67MOL    H4434496   1.473   7.408   5.966 -0.7383  1.9453 -0.9625
   67MOL    H4534497   1.753   7.530   5.961  0.1794  0.3238 -1.2534
   67MOL    H4634498   2.008   6.984   5.871  1.1713 -1.5459  3.2066
   67MOL    H4734499   2.150   7.078   6.056 -0.0775  0.0229 -0.7565
   67MOL    H4834500   2.097   7.286   6.158 -0.7536 -0.5685  1.5709
   67MOL    H4934501   1.905   7.420   6.088  0.2186  0.9345 -1.4753
   67MOL    H5034502   1.488   7.327   5.706  0.5076  0.9784  1.6357
   67MOL    H5134503   1.456   7.142   5.535 -1.6713 -0.5905  1.9466
   67MOL    H5234504   1.634   6.959   5.514  1.3258 -2.1289  1.7383
   67MOL    H5334505   1.824   6.958   5.678  1.0363  0.3230  2.0664
   67MOL    C5434506   1.636   7.559   5.803  0.2338 -0.2370 -0.2332
   67MOL    C5534507   1.747   7.606   5.714  0.3354 -0.2665 -0.0254
   67MOL    N5634508   1.691   7.658   5.586  0.1358  0.0298 -0.1704
   67MOL    C5734509   1.705   7.591   5.468  0.4525  0.5233  0.1288
   67MOL    C5834510   1.668   7.677   5.362 -0.2304  0.1593 -0.9424
   67MOL    C5934511   1.679   7.627   5.230 -0.2942  0.1634  0.1876
   67MOL    C6034512   1.735   7.501   5.201  0.2045 -0.2001 -0.0116
   67MOL    C6134513   1.785   7.421   5.301 -0.1790  0.3235 -0.4329
   67MOL    C6234514   1.767   7.465   5.436 -0.0034 -0.6708 -0.0899
   67MOL    C6334515   1.608   7.789   5.426  0.8987  0.2409  0.4183
   67MOL    C6434516   1.621   7.773   5.564  0.3695 -0.5347 -0.2907
   67MOL    C6534517   1.581   7.874   5.652 -0.3579 -0.6549 -0.2138
   67MOL    C6634518   1.517   7.995   5.600 -0.2287  0.0163  0.0802
   67MOL    C6734519   1.490   8.005   5.461 -0.4608  0.2313  0.8020
   67MOL    C6834520   1.547   7.906   5.375  0.2194 -0.1289  0.5187
   67MOL    H6934521   1.546   7.525   5.753 -0.3740  0.4719  0.3591
   67MOL    H7034522   1.613   7.654   5.852  0.4249 -0.7587  0.8935
   67MOL    H7134523   1.813   7.524   5.685  2.0574 -0.2872  3.5987
   67MOL    H7234524   1.662   7.691   5.145 -0.2516  0.3469  0.3196
   67MOL    H7334525   1.747   7.471   5.098  0.5789 -1.2873  0.3440
   67MOL    H7434526   1.836   7.326   5.292  1.0714  1.0132 -0.6477
   67MOL    H7534527   1.796   7.397   5.515  2.2001  0.8620  0.4774
   67MOL    H7634528   1.606   7.861   5.756 -1.1501  1.5968  0.2784
   67MOL    H7734529   1.489   8.072   5.670  0.6202 -0.3602  0.8480
   67MOL    H7834530   1.445   8.097   5.426 -0.1969 -0.1317 -0.5253
   67MOL    H7934531   1.553   7.921   5.268  2.0560 -2.5528  0.2459
   67MOL    C8034532   1.840   7.706   5.791  0.7436  0.4378 -0.2095
   67MOL    C8134533   1.938   7.781   5.706 -1.0414  0.3693  0.1100
   67MOL    N8234534   1.977   7.906   5.772  0.2052 -0.7405 -0.2368
   67MOL    C8334535   1.943   8.034   5.730  1.4225  0.2596  0.6552
   67MOL    C8434536   2.004   8.126   5.822  1.1963 -0.7414 -0.0582
   67MOL    C8534537   1.982   0.040   5.807  0.1057 -0.4871  0.4277
   67MOL    C8634538   1.902   0.086   5.703  0.3743 -0.2342  0.4224
   67MOL    C8734539   1.840   8.227   5.612 -0.2271  0.3158 -0.6189
   67MOL    C8834540   1.863   8.087   5.625  0.3684  0.2033  0.3737
   67MOL    C8934541   2.069   8.055   5.926  0.3307 -0.0385 -0.1613
   67MOL    C9034542   2.052   7.918   5.900 -0.2804 -0.2981  0.0419
   67MOL    C9134543   2.114   7.822   5.983 -0.3977 -0.3789  0.2165
   67MOL    C9234544   2.191   7.865   6.092 -0.0745 -0.1150 -0.0866
   67MOL    C9334545   2.207   8.002   6.120 -0.0938 -0.2126 -0.1367
   67MOL    C9434546   2.148   8.093   6.035  0.6081  0.5630  0.3861
   67MOL    H9534547   1.784   7.780   5.849  3.1533  3.2299 -1.3566
   67MOL    H9634548   1.891   7.644   5.865 -3.3911  1.1857  3.4877
   67MOL    H9734549   1.877   7.809   5.621 -0.6977 -0.4106 -0.4039
   67MOL    H9834550   2.022   0.111   5.876 -0.4911  0.3411 -0.0609
   67MOL    H9934551   1.890   0.192   5.685 -0.6747 -0.4335 -0.0736
   67MOL   H10034552   1.771   0.038   5.539 -1.2080 -0.7722 -0.2769
   67MOL   H10134553   1.804   8.030   5.554 -0.3616  1.2982  0.0911
   67MOL   H10234554   2.095   7.721   5.952 -1.6172  0.1548 -0.8337
   67MOL   H10334555   2.232   7.791   6.159 -0.8267 -2.2006 -1.8762
   67MOL   H10434556   2.252   8.038   6.211 -1.9843 -1.8764  1.5031
   67MOL   H10534557   2.158   8.197   6.064 -0.6969  1.1162 -1.0887
   67MOL   C10634558   2.058   7.699   5.655 -0.5857  0.2437  0.3724
   67MOL   C10734559   2.144   7.769   5.552 -0.5159 -0.1350  0.7782
   67MOL   N10834560   2.273   7.689   5.549  0.0419 -0.9545 -0.2739
   67MOL   C10934561   2.388   7.734   5.619 -0.8643  0.3636  0.6345
   67MOL   C11034562   2.485   7.621   5.614  0.1282 -0.2984 -0.8855
   67MOL   C11134563   2.615   7.638   5.667 -0.0639 -0.0843 -0.2596
   67MOL   C11234564   2.641   7.758   5.739  0.5059 -0.3543  0.5649
   67MOL   C11334565   2.542   7.862   5.750  0.6798  0.1528  0.6683
   67MOL   C11434566   2.415   7.850   5.693 -0.2707  0.0090  0.4088
   67MOL   C11534567   2.416   7.509   5.550 -0.6897  0.9567  0.5059
   67MOL   C11634568   2.289   7.555   5.513  0.6980 -0.1550 -0.5127
   67MOL   C11734569   2.202   7.462   5.457 -0.0127  0.2665 -0.0267
   67MOL   C11834570   2.243   7.334   5.423 -0.7065 -0.0725  0.4529
   67MOL   C11934571   2.373   7.295   5.455 -0.6909  0.2957 -0.7474
   67MOL   C12034572   2.459   7.375   5.523  0.3492  0.4615  0.1092
   67MOL   H12134573   2.115   7.680   5.746 -2.5423 -0.7573  1.4266
   67MOL   H12234574   2.015   7.608   5.614  1.1067  0.0695 -1.0742
   67MOL   H12334575   2.168   7.867   5.592  0.3710 -0.0635  0.0916
   67MOL   H12434576   2.672   7.547   5.660 -0.1580 -0.1694  0.0924
   67MOL   H12534577   2.736   7.762   5.790  1.6819  6.5039 -1.6039
   67MOL   H12634578   2.552   7.958   5.799 -0.6817  1.0929 -0.8339
   67MOL   H12734579   2.349   7.933   5.714 -0.7239 -0.2184 -0.0969
   67MOL   H12834580   2.100   7.489   5.431 -0.2725  1.2779  1.9210
   67MOL   H12934581   2.178   7.260   5.379 -0.4391 -0.1190  0.1370
   67MOL   H13034582   2.427   7.201   5.454 -0.2863  0.4425  2.1627
   67MOL   H13134583   2.552   7.338   5.564  0.7049  2.2894  1.0557
   67MOL   C13234584   2.073   7.787   5.409 -0.2760 -0.6113  0.1588
   67MOL   C13334585   2.145   7.862   5.291  1.4114  0.4763 -0.1314
   67MOL   N13434586   2.070   7.848   5.168 -0.3172  0.2266 -0.2973
   67MOL   C13534587   2.104   7.769   5.057  0.2767 -0.2837 -0.2431
   67MOL   C13634588   2.003   7.772   4.957  0.6073 -0.5428 -0.0609
   67MOL   C13734589   2.027   7.709   4.835  0.5460  0.4941 -0.1713
   67MOL   C13834590   2.148   7.639   4.807 -0.2494 -0.6759  0.1386
   67MOL   C13934591   2.240   7.622   4.909 -0.4083  0.5621  0.4853
   67MOL   C14034592   2.216   7.689   5.033  0.0471  0.4119 -0.1923
   67MOL   C14134593   1.902   7.853   5.010  0.1520 -0.0864 -0.3421
   67MOL   C14234594   1.951   7.908   5.134  0.3689 -0.1176 -0.5283
   67MOL   C14334595   1.878   8.000   5.206 -0.0344  0.1291  0.1507
   67MOL   C14434596   1.753   8.048   5.158  0.1834 -0.1923 -0.4029
   67MOL   C14534597   1.701   8.002   5.037 -1.0469  0.0148  0.6326
   67MOL   C14634598   1.778   7.909   4.965 -0.2226 -0.2365 -0.5133
   67MOL   H14734599   2.053   7.687   5.371 -0.4965 -0.3834 -0.3288
   67MOL   H14834600   1.975   7.832   5.424  0.0429  0.6022 -1.2913
   67MOL   H14934601   2.243   7.815   5.280  1.8569  1.3254  0.1461
   67MOL   H15034602   1.961   7.731   4.752  1.2319  1.4876 -0.4674
   67MOL   H15134603   2.164   7.602   4.707  0.2234 -1.1673  0.3927
   67MOL   H15234604   2.335   7.572   4.893 -1.0097 -0.1105 -1.0918
   67MOL   H15334605   2.299   7.672   5.100  1.8822  1.1302 -2.2310
   67MOL   H15434606   1.907   8.039   5.303  2.7146 -0.7726 -0.2622
   67MOL   H15534607   1.700   8.128   5.207  1.3225  0.0888  0.3881
   67MOL   H15634608   1.603   8.023   4.996 -1.5889  0.8157  2.3212
   67MOL   H15734609   1.744   7.864   4.873 -0.9790 -1.2759  0.2657
   67MOL   C15834610   2.183   8.009   5.324  0.5918  0.4584  0.5791
   67MOL   C15934611   2.334   8.027   5.353  0.2406  0.6170  0.1236
   67MOL   N16034612   2.412   8.022   5.233 -0.4026 -0.1339  0.1800
   67MOL   C16134613   2.506   7.922   5.193 -0.2041  0.4269 -0.9920
   67MOL   C16234614   2.581   7.969   5.085 -0.7760  0.1441 -0.6368
   67MOL   C16334615   2.683   7.894   5.027 -0.3150  0.2826 -0.8152
   67MOL   C16434616   2.713   7.766   5.084 -0.0279 -0.3269  0.4315
   67MOL   C16534617   2.636   7.717   5.194  0.0745 -0.5376  0.3638
   67MOL   C16634618   2.539   7.800   5.244 -0.6314 -0.0784  0.3739
   67MOL   C16734619   2.514   8.089   5.037  0.6141  0.3922  0.0353
   67MOL   C16834620   2.407   8.117   5.127 -0.1836  0.6525 -0.0986
   67MOL   C16934621   2.320   0.001   5.102  0.5462  0.0497  0.2577
   67MOL   C17034622   2.350   0.088   4.994  0.6098  0.4093 -0.0783
   67MOL   C17134623   2.460   0.065   4.908  0.0861  0.5047 -0.2159
   67MOL   C17234624   2.531   8.176   4.929 -0.9805  0.4294  0.7229
   67MOL   H17334625   2.150   8.078   5.247  0.3664 -1.2368 -0.8775
   67MOL   H17434626   2.134   8.048   5.414  1.3680  2.9097 -0.0232
   67MOL   H17534627   2.383   7.950   5.413 -1.3483  0.0473  0.6869
   67MOL   H17634628   2.726   7.934   4.937 -0.7016 -1.2229 -1.6873
   67MOL   H17734629   2.791   7.709   5.035 -0.2884 -0.4266  0.1256
   67MOL   H17834630   2.665   7.623   5.238  1.6077 -0.4708 -0.4520
   67MOL   H17934631   2.488   7.765   5.333 -1.8052  1.6920  0.4276
   67MOL   H18034632   2.242   0.041   5.165 -0.0786  0.4829 -0.7572
   67MOL   H18134633   2.283   0.172   4.985  0.4418  0.1610 -1.3368
   67MOL   H18234634   2.484   0.131   4.826  1.4787  0.2392 -0.0265
   67MOL   H18334635   2.620   8.155   4.871 -0.7524  0.6507  0.9943
   67MOL   C18434636   2.359   8.160   5.437 -0.6517  0.3086  0.6408
   67MOL   C18534637   2.503   8.215   5.438 -0.8022  0.6145 -0.1489
   67MOL   N18634638   2.506   0.103   5.511  0.1081 -0.3210  0.5619
   67MOL   C18734639   2.553   0.224   5.461 -0.2617 -0.0928 -0.0408
   67MOL   C18834640   2.562   0.319   5.560 -0.2146  0.7029 -0.4344
   67MOL   C18934641   2.643   0.432   5.536  0.6733  0.5023  0.6280
   67MOL   C19034642   2.693   0.465   5.409 -0.3901  0.4032 -0.3139
   67MOL   C19134643   2.667   0.372   5.304  1.0157 -0.3812 -0.5049
   67MOL   C19234644   2.592   0.255   5.333 -0.0377  0.2382  0.1317
   67MOL   C19334645   2.508   0.263   5.683  0.2311 -0.1303 -0.6648
   67MOL   C19434646   2.471   0.126   5.651 -0.3695 -0.6273 -0.1698
   67MOL   C19534647   2.422   0.039   5.752  0.1373  0.2392 -1.3441
   67MOL   C19634648   2.401   0.090   5.884 -0.4435 -0.4270 -0.5705
   67MOL   C19734649   2.422   0.227   5.907  0.0893 -0.0773  0.3993
   67MOL   C19834650   2.481   0.306   5.811  0.3490 -0.7516 -0.1911
   67MOL   H19934651   2.287   0.005   5.397  0.1554  1.5624  1.4110
   67MOL   H20034652   2.323   8.144   5.539 -0.8083 -1.1253  0.3593
   67MOL   H20134653   2.519   0.007   5.332  0.8536  1.8543  0.3048
   67MOL   H20234654   2.679   0.482   5.625 -0.0147  1.8548  0.1531
   67MOL   H20334655   2.745   0.560   5.403 -0.8942  0.6725 -0.4051
   67MOL   H20434656   2.702   0.374   5.202  0.6309  0.5837 -0.6164
   67MOL   H20534657   2.582   0.188   5.249  2.1332  0.3790 -0.2684
   67MOL   H20634658   2.400   8.163   5.728  1.8355  0.3391 -3.5682
   67MOL   H20734659   2.362   0.033   5.968 -0.3523  0.5421  0.1388
   67MOL   H20834660   2.412   0.279   6.001 -0.3227  0.4398  0.0747
   67MOL   H20934661   2.498   0.409   5.841 -1.1736 -0.4552 -0.2649
   67MOL   C21034662   2.609   8.119   5.486  0.0003  0.3297  0.0361
   67MOL   C21134663   2.758   8.168   5.481 -0.3496  0.6523  0.8009
   67MOL   N21234664   2.836   8.088   5.570  0.2909 -1.0407 -0.4078
   67MOL   C21334665   2.880   8.116   5.701 -0.4773  0.7066 -0.1106
   67MOL   C21434666   2.959   8.012   5.756  0.1318 -0.3890  0.3596
   67MOL   C21534667   3.010   8.025   5.886 -0.4745 -0.2958  0.0701
   67MOL   C21634668   2.976   8.138   5.968 -0.6500  0.1567  1.1806
   67MOL   C21734669   2.900   0.015   5.912  0.5188  0.4906 -0.0861
   67MOL   C21834670   2.845   8.224   5.779 -0.1431  0.5932  0.3095
   67MOL   C21934671   2.955   7.913   5.654  1.0899  0.2795  0.2737
   67MOL   C22034672   2.877   7.957   5.540 -0.8318  0.4407 -0.3102
   67MOL   C22134673   2.862   7.863   5.431  0.0757  0.1863 -0.0948
   67MOL   C22234674   2.931   7.741   5.426 -0.4860 -0.7621  0.0312
   67MOL   C22334675   3.020   7.707   5.534  0.3271  0.1001 -0.2819
   67MOL   C22434676   3.027   7.795   5.645 -0.0819 -0.1685  0.0821
   67MOL   H22534677   2.585   8.088   5.588  2.2967  0.8888  0.7697
   67MOL   H22634678   2.608   8.028   5.426  0.5399 -0.7056  1.5526
   67MOL   H22734679   2.763   0.039   5.527  2.4355  0.4254  1.0228
   67MOL   H22834680   3.070   7.939   5.913 -0.4161 -0.4109 -0.4182
   67MOL   H22934681   3.018   8.154   6.066 -1.2199 -0.0098  1.4546
   67MOL   H23034682   2.874   0.102   5.970  0.7323  0.7929 -0.4362
   67MOL   H23134683   2.779   0.070   5.734  0.0222  0.4663 -0.1487
   67MOL   H23234684   2.803   7.903   5.350  1.5934 -0.8223 -1.7336
   67MOL   H23334685   2.918   7.672   5.345  0.0309 -0.5744 -0.2133
   67MOL   H23434686   3.071   7.612   5.534  0.5421  0.1724 -2.4923
   67MOL   H23534687   3.094   7.764   5.723  1.0317 -1.6724 -1.4156
   67MOL   C23634688   2.812   8.197   5.337 -0.5212 -0.0842 -0.1974
   67MOL   C23734689   2.947   0.027   5.342 -0.1224 -0.1798  0.9746
   67MOL   N23834690   3.017   0.005   5.211 -0.4389  0.1050 -0.6570
   67MOL   C23934691   3.138   8.161   5.198 -0.4572 -0.6113  0.3093
   67MOL   C24034692   3.183   8.168   5.065  0.0622  0.4014  0.2645
   67MOL   C24134693   3.296   8.097   5.027 -0.2652 -0.5184 -0.1024
   67MOL   C24234694   3.368   8.024   5.117 -0.3827  0.4069  0.0729
   67MOL   C24334695   3.329   8.025   5.255  0.2095 -0.0803  0.4829
   67MOL   C24434696   3.214   8.090   5.293  0.3601 -0.0944  0.1955
   67MOL   C24534697   3.086   0.023   4.989 -0.3201 -0.0374  0.3465
   67MOL   C24634698   2.978   0.053   5.082 -0.2125  0.0941 -0.5778
   67MOL   C24734699   2.866   0.122   5.036  0.3995 -0.7637  0.6115
   67MOL   C24834700   2.861   0.168   4.905 -0.4577  0.7630  0.2247
   67MOL   C24934701   2.965   0.140   4.810  0.0149  0.0814  0.7275
   67MOL   C25034702   3.080   0.073   4.856  0.2701  0.5649  0.8530
   67MOL   H25134703   2.818   8.100   5.288 -0.3452 -0.8070  1.2249
   67MOL   H25234704   2.739   0.021   5.275 -2.7683 -1.9983  0.7799
   67MOL   H25334705   3.002   8.192   5.411  0.7042  0.3817  0.8392
   67MOL   H25434706   3.305   8.083   4.920 -1.7936 -0.6198 -0.2375
   67MOL   H25534707   3.455   7.967   5.088 -0.2511  1.1802 -1.0680
   67MOL   H25634708   3.392   7.969   5.323  0.6739  2.6234  2.3515
   67MOL   H25734709   3.185   8.084   5.397 -0.8708 -1.3019 -0.1954
   67MOL   H25834710   2.779   0.141   5.097  0.6703 -0.1817  0.8134
   67MOL   H25934711   2.774   0.229   4.885 -1.7371 -0.3309  2.2480
   67MOL   H26034712   2.952   0.170   4.707  2.4899 -0.4424  0.2447
   67MOL   H26134713   3.158   0.060   4.782 -0.5719  0.8899 -0.0977
   67MOL   C26234714   2.957   0.172   5.385  0.0009  0.2094 -0.4720
   67MOL   C26334715   3.099   0.225   5.430  0.1866  0.2934  0.2065
   67MOL   N26434716   3.088   0.366   5.460 -0.3604  0.0918  0.0280
   67MOL   C26534717   3.129   0.476   5.378  1.1551  0.0941  0.0001
   67MOL   C26634718   3.104   0.597   5.450 -0.6928  0.1336  0.1792
   67MOL   C26734719   3.149   0.716   5.385  0.1222  0.2266 -0.4975
   67MOL   C26834720   3.207   0.722   5.262  0.0460  0.7221 -0.1254
   67MOL   C26934721   3.220   0.601   5.191  0.4251 -0.1617  0.0543
   67MOL   C27034722   3.185   0.479   5.247  0.0622 -0.1177 -0.1191
   67MOL   C27134723   3.047   0.558   5.578  0.4022  0.4333  0.0951
   67MOL   C27234724   3.024   0.418   5.576  0.3313  0.1552 -0.0722
   67MOL   C27334725   2.947   0.352   5.679  0.6004  1.2508  0.1220
   67MOL   C27434726   2.903   0.424   5.793  0.7303 -0.6040 -0.0084
   67MOL   C27534727   2.927   0.563   5.785 -0.1586  0.0850  0.3806
   67MOL   C27634728   2.998   0.632   5.682 -0.3108  0.3654 -0.4741
   67MOL   H27734729   2.927   0.239   5.304 -1.4611  1.6123  1.1718
   67MOL   H27834730   2.883   0.197   5.461  0.8636 -1.9941  1.1169
   67MOL   H27934731   3.179   0.217   5.357  1.4413  0.0790  1.5600
   67MOL   H28034732   3.143   0.812   5.435  0.9854 -0.3343  0.7288
   67MOL   H28134733   3.235   0.814   5.213  0.7632  0.3211 -0.4834
   67MOL   H28234734   3.261   0.608   5.092 -2.0389  0.9107 -0.9171
   67MOL   H28334735   3.204   0.385   5.199  1.6333  0.3513 -0.4511
   67MOL   H28434736   2.920   0.247   5.674  0.9023  1.2237 -1.3239
   67MOL   H28534737   2.861   0.372   5.878  0.0141 -0.3948 -0.2301
   67MOL   H28634738   2.895   0.619   5.872 -2.0242 -0.7196  0.2319
   67MOL   H28734739   3.008   0.740   5.675 -2.2989  0.5137 -1.2600
   67MOL   C28834740   3.157   0.135   5.539  0.2430  0.1908  0.2351
   67MOL   C28934741   3.268   0.204   5.627 -0.2018  0.4650 -0.2470
   67MOL   N29034742   3.302   0.130   5.749 -0.5686  0.0237 -0.0330
   67MOL   C29134743   3.270   0.162   5.883  0.1142 -0.3970  0.5357
   67MOL   C29234744   3.307   0.054   5.972 -0.4468 -0.3649  0.8253
   67MOL   C29334745   3.270   0.053   6.108 -0.9268 -0.4837  0.5171
   67MOL   C29434746   3.206   0.165   6.157  0.5187 -0.3872 -1.0692
   67MOL   C29534747   3.167   0.277   6.074 -0.2357 -0.8361  1.0310
   67MOL   C29634748   3.204   0.275   5.940  0.3044 -0.2032 -0.2868
   67MOL   C29734749   3.369   8.181   5.884 -0.1842 -0.1490  0.0207
   67MOL   C29834750   3.356   8.226   5.750  0.2397 -0.1584 -0.2237
   67MOL   C29934751   3.389   8.141   5.638 -0.1433  0.1781 -0.1506
   67MOL   C30034752   3.434   8.012   5.663  0.5344  0.1136  0.0982
   67MOL   C30134753   3.434   7.959   5.795 -0.2571 -0.6534 -0.4093
   67MOL   C30234754   3.407   8.044   5.906  0.0438 -0.9244 -0.3767
   67MOL   H30334755   3.075   0.106   5.605  1.2356 -2.9748  0.1514
   67MOL   H30434756   3.205   0.057   5.480 -0.3480  2.0734 -2.8320
   67MOL   H30534757   3.224   0.299   5.655  0.2315  1.1911 -1.9517
   67MOL   H30634758   3.294   8.192   6.164 -3.1593 -1.2512  0.3079
   67MOL   H30734759   3.182   0.171   6.262 -1.5908  2.6878 -1.6564
   67MOL   H30834760   3.121   0.367   6.113 -1.3151 -0.2122 -1.5658
   67MOL   H30934761   3.183   0.361   5.878  1.9233  0.3946 -0.0226
   67MOL   H31034762   3.387   8.172   5.534 -2.7901 -0.4318 -0.3003
   67MOL   H31134763   3.470   7.949   5.582 -0.2544 -1.9701  1.3368
   67MOL   H31234764   3.456   7.857   5.820 -0.2038 -0.5999 -0.2299
   67MOL   H31334765   3.412   8.002   6.005 -1.2323 -0.8600 -0.2711
   67MOL   C31434766   3.404   0.247   5.554 -0.5179  1.2540 -0.6513
   67MOL   C31534767   3.484   0.360   5.620 -1.0030  0.1952  0.0011
   67MOL   N31634768   3.610   0.380   5.544 -0.0127  0.4806 -0.1628
   67MOL   C31734769   3.737   0.359   5.601  0.8588 -0.3574  0.1475
   67MOL   C31834770   3.830   0.377   5.497  0.0282 -0.4215  0.1623
   67MOL   C31934771   3.966   0.365   5.525  0.2001  0.1101 -0.0924
   67MOL   C32034772   4.012   0.321   5.649  0.0383  0.1218  0.1094
   67MOL   C32134773   3.919   0.294   5.751 -0.3433  0.2456 -0.5249
   67MOL   C32234774   3.777   0.308   5.726  0.2145  0.2391  0.6263
   67MOL   C32334775   3.758   0.409   5.377 -0.2254 -0.2943 -0.7774
   67MOL   C32434776   3.623   0.419   5.415 -0.2467 -0.1497 -0.1424
   67MOL   C32534777   3.528   0.452   5.313  0.1120 -0.4222  0.1409
   67MOL   C32634778   3.568   0.491   5.180  0.8071  0.5065 -0.1462
   67MOL   C32734779   3.705   0.478   5.142  0.0836 -0.3701  0.3758
   67MOL   C32834780   3.793   0.439   5.246  0.7462 -0.0986  0.4081
   67MOL   H32934781   3.470   0.160   5.554  1.0713  2.3972  1.9381
   67MOL   H33034782   3.372   0.279   5.455 -2.5446  1.1331 -0.0486
   67MOL   H33134783   3.506   0.327   5.722 -1.7011 -0.9549 -0.2188
   67MOL   H33234784   4.044   0.381   5.452  1.7231 -1.1411  1.2118
   67MOL   H33334785   4.119   0.315   5.661  0.1511  1.2461 -0.3378
   67MOL   H33434786   3.951   0.255   5.847  1.8432  1.7860 -0.5742
   67MOL   H33534787   3.709   0.263   5.797  0.1995  1.2630  1.2597
   67MOL   H33634788   3.424   0.454   5.341  0.1255 -0.0104  0.1618
   67MOL   H33734789   3.494   0.528   5.110  1.6094 -0.4306 -1.5083
   67MOL   H33834790   3.727   0.503   5.040 -0.2039 -1.7391 -0.0355
   67MOL   H33934791   3.895   0.434   5.210  0.2271 -0.6329 -1.0342
   67MOL   C34034792   3.412   0.490   5.658  0.7158  0.6316 -0.2977
   67MOL   C34134793   3.504   0.605   5.709 -0.3066  0.3325 -0.3291
   67MOL   N34234794   3.427   0.729   5.707  0.1609 -0.2345  0.3227
   67MOL   C34334795   3.445   0.832   5.611 -0.2076  0.1052 -0.2459
   67MOL   C34434796   3.345   0.932   5.627  0.0425  0.1440  0.9508
   67MOL   C34534797   3.337   1.044   5.537  0.2939 -0.3484  0.1264
   67MOL   C34634798   3.423   1.048   5.430 -0.3564  0.2289 -0.5208
   67MOL   C34734799   3.527   0.954   5.414 -0.4013  0.0416 -0.5015
   67MOL   C34834800   3.542   0.850   5.508 -0.5572  0.4373 -0.2980
   67MOL   C34934801   3.266   0.895   5.739 -0.3890 -0.0707  0.2216
   67MOL   C35034802   3.312   0.770   5.782  0.3960 -0.5386 -0.2637
   67MOL   C35134803   3.238   0.699   5.882  0.4079  0.3604 -0.5970
   67MOL   C35234804   3.136   0.758   5.951  0.8517  0.2592 -0.6250
   67MOL   C35334805   3.092   0.886   5.919  0.4138 -0.8332  0.4786
   67MOL   C35434806   3.154   0.954   5.809  0.1273 -0.0163  0.1910
   67MOL   H35534807   3.370   0.526   5.564  2.1397  1.6490 -0.5660
   67MOL   H35634808   3.330   0.484   5.729  0.5452  0.1334 -0.5365
   67MOL   H35734809   3.586   0.627   5.641 -1.1194 -0.4135 -1.5857
   67MOL   H35834810   3.254   1.111   5.554 -0.1166 -1.2272  1.6937
   67MOL   H35934811   3.411   1.123   5.353 -0.0992 -0.8864 -1.6728
   67MOL   H36034812   3.592   0.958   5.327  2.7847  1.4924  1.8724
   67MOL   H36134813   3.627   0.785   5.498 -1.3704 -0.5594 -0.8385
   67MOL   H36234814   3.279   0.603   5.911  0.7208  0.0406 -2.0832
   67MOL   H36334815   3.092   0.706   6.035 -0.1258 -1.6647 -2.3034
   67MOL   H36434816   3.013   0.930   5.978  0.9883  0.6014  0.1814
   67MOL   H36534817   3.114   1.053   5.790  1.5650  0.4483 -0.4879
   67MOL   C36634818   3.566   0.585   5.849 -0.2890 -0.3016  0.2261
   67MOL   C36734819   3.666   0.690   5.901  0.0310 -0.7655  0.5218
   67MOL   N36834820   3.681   0.666   6.053 -0.9831 -0.2990 -0.0045
   67MOL   C36934821   3.650   0.754   6.149  0.8928 -0.5398 -0.2340
   67MOL   C37034822   3.673   0.694   6.276  0.2436 -0.1690  0.0316
   67MOL   C37134823   3.637   0.773   6.388  0.4040  0.8652 -0.4121
   67MOL   C37234824   3.592   0.908   6.374 -0.0802  0.4627  0.3414
   67MOL   C37334825   3.575   0.971   6.245 -1.0104 -0.3634 -0.4821
   67MOL   C37434826   3.611   0.892   6.131 -0.5055 -0.2010  0.1295
   67MOL   C37534827   3.718   0.566   6.259  0.0619  0.0826 -0.2724
   67MOL   C37634828   3.724   0.550   6.118 -0.5927  0.6033  0.5103
   67MOL   C37734829   3.776   0.430   6.065  0.1370 -0.5694  0.7595
   67MOL   C37834830   3.806   0.321   6.147 -0.5763  0.0618 -0.3481
   67MOL   C37934831   3.797   0.333   6.286  0.0020 -0.6219 -0.7189
   67MOL   C38034832   3.758   0.462   6.340 -0.0547  0.4761  0.0158
   67MOL   H38134833   3.492   0.564   5.925  1.0366  0.9857  1.9096
   67MOL   H38234834   3.612   0.486   5.837 -0.6121 -0.1823 -2.4991
   67MOL   H38334835   3.612   0.783   5.887 -0.2896 -0.7160  1.9904
   67MOL   H38434836   3.658   0.729   6.485 -1.7401  0.8999  0.0810
   67MOL   H38534837   3.575   0.972   6.459  1.5342 -0.7140  1.5795
   67MOL   H38634838   3.543   1.074   6.239 -3.2666 -0.8778  1.9400
   67MOL   H38734839   3.605   0.933   6.031 -1.2756 -1.0384 -0.1809
   67MOL   H38834840   3.799   0.437   5.960  1.1600 -3.0787  0.7882
   67MOL   H38934841   3.838   0.225   6.108  2.2715  0.8983 -0.1644
   67MOL   H39034842   3.815   0.246   6.348  0.8418  0.7114  0.9606
   67MOL   H39134843   3.750   0.483   6.445 -0.8559  1.2936 -0.1994
   67MOL   C39234844   3.800   0.689   5.826  0.5004  0.1486 -0.3088
   67MOL   C39334845   3.907   0.790   5.865 -0.2935 -0.4475  0.5521
   67MOL   N39434846   4.016   0.784   5.779 -0.4244  0.4766 -0.0572
   67MOL   C39534847   4.149   0.744   5.802 -0.2486  0.7524 -0.5307
   67MOL   C39634848   4.228   0.756   5.689  0.0034  0.4179 -1.5568
   67MOL   C39734849   4.367   0.723   5.702  0.0098 -0.5343 -0.0652
   67MOL   C39834850   4.419   0.660   5.815 -0.1204 -0.4251  0.1631
   67MOL   C39934851   4.338   0.650   5.931 -0.1503 -0.5944 -0.0488
   67MOL   C40034852   4.204   0.694   5.923 -0.1596  0.1860 -1.0245
   67MOL   C40134853   4.146   0.814   5.592 -0.2453 -0.6036 -0.6530
   67MOL   C40234854   4.017   0.829   5.647 -0.0982  0.5324 -0.1198
   67MOL   C40334855   3.912   0.897   5.573 -0.4685 -0.0187  0.6534
   67MOL   C40434856   3.936   0.937   5.441  0.4576 -0.1492 -0.1363
   67MOL   C40534857   4.060   0.902   5.381 -0.2512 -0.1946 -0.0655
   67MOL   C40634858   4.163   0.845   5.456  0.1550  0.3584  0.2653
   67MOL   H40734859   3.851   0.593   5.816 -1.7081 -1.0152 -0.8633
   67MOL   H40834860   3.779   0.696   5.720  1.3386 -0.5432 -0.5264
   67MOL   H40934861   3.934   0.751   5.963  1.0136  1.0927  0.8292
   67MOL   H41034862   4.431   0.730   5.615 -0.4390 -0.0382 -0.3590
   67MOL   H41134863   4.521   0.627   5.811  0.4978  1.4383 -0.2245
   67MOL   H41234864   4.357   0.595   6.023 -0.1536 -2.3790 -1.0983
   67MOL   H41334865   4.140   0.688   6.010  0.0781  2.0621 -0.6791
   67MOL   H41434866   3.816   0.925   5.614 -0.6420  2.0900 -1.1296
   67MOL   H41534867   3.862   0.995   5.388  1.2636 -1.1303 -2.4090
   67MOL   H41634868   4.063   0.934   5.277 -0.1601 -0.0949 -0.0318
   67MOL   H41734869   4.261   0.829   5.413 -0.0928  0.8487 -0.4832
   67MOL   C41834870   3.865   0.933   5.882  0.8248  0.1455  0.5720
   67MOL   C41934871   3.965   1.050   5.880  0.1590 -0.1321  0.2760
   67MOL   N42034872   3.884   1.181   5.898 -0.1706 -0.4730  0.5499
   67MOL   C42134873   3.835   1.257   5.791 -0.3854 -0.4510  0.0390
   67MOL   C42234874   3.743   1.359   5.838 -0.1203  0.2353  0.6374
   67MOL   C42334875   3.688   1.445   5.738 -0.1787 -0.7003 -0.2064
   67MOL   C42434876   3.708   1.427   5.597  0.4615 -0.1552 -0.8726
   67MOL   C42534877   3.788   1.319   5.561  0.1360 -0.5756  0.1238
   67MOL   C42634878   3.862   1.242   5.649  0.3710 -0.4250 -0.1165
   67MOL   C42734879   3.746   1.341   5.981  1.0017  0.2487 -1.3739
   67MOL   C42834880   3.834   1.237   6.018 -0.9784  0.1490  0.7573
   67MOL   C42934881   3.850   1.197   6.149 -0.9492 -0.3300  0.0979
   67MOL   C43034882   3.766   1.243   6.248  0.1065 -0.5496 -0.0810
   67MOL   C43134883   3.668   1.339   6.220  0.4072 -0.5023 -0.3353
   67MOL   C43234884   3.667   1.395   6.088 -0.3506 -0.8177 -0.2110
   67MOL   H43334885   3.778   0.957   5.821  1.3325  0.8380  0.1240
   67MOL   H43434886   3.808   0.932   5.975 -1.2313 -3.2440 -0.6143
   67MOL   H43534887   4.006   1.051   5.779 -1.6825  1.6368 -0.4945
   67MOL   H43634888   3.645   1.538   5.772  2.3045  0.1674  0.7094
   67MOL   H43734889   3.655   1.487   5.525  1.5140 -1.6985 -2.9805
   67MOL   H43834890   3.821   1.312   5.458 -1.4477  0.6738 -0.4937
   67MOL   H43934891   3.937   1.176   5.607  2.3441  1.5538  0.2312
   67MOL   H44034892   3.910   1.109   6.170 -0.8998 -0.6830 -1.4313
   67MOL   H44134893   3.777   1.204   6.349 -0.3389  2.3053  1.1117
   67MOL   H44234894   3.606   1.378   6.299 -0.2854 -1.1615 -0.5587
   67MOL   H44334895   3.601   1.480   6.072 -0.6239 -0.7171  1.3040
   67MOL   C44434896   4.090   1.042   5.969  0.3739 -0.4616  0.4769
   67MOL   C44534897   4.217   1.099   5.900  0.7873  0.7611 -0.0155
   67MOL   N44634898   4.196   1.217   5.819 -0.4354 -0.2284 -0.0978
   67MOL   C44734899   4.209   1.227   5.678 -0.0207  0.4547 -0.2511
   67MOL   C44834900   4.176   1.355   5.641  0.6361  0.8673  0.1555
   67MOL   C44934901   4.165   1.380   5.501 -0.2822 -0.0094 -0.1334
   67MOL   C45034902   4.197   1.281   5.405  0.3370 -0.4329  0.4458
   67MOL   C45134903   4.242   1.153   5.448 -0.0792 -0.3841  0.3611
   67MOL   C45234904   4.243   1.124   5.586  0.5771 -0.2354 -0.6071
   67MOL   C45334905   4.144   1.428   5.760  0.1036 -0.1017 -0.9246
   67MOL   C45434906   4.150   1.340   5.870  0.7141 -0.6554 -0.0145
   67MOL   C45534907   4.117   1.384   6.000 -0.3556 -0.7025 -0.0709
   67MOL   C45634908   4.097   1.522   6.026 -0.8848  0.1596  0.2390
   67MOL   C45734909   4.098   1.608   5.912  0.3505  0.5516 -1.1705
   67MOL   C45834910   4.121   1.563   5.784  0.4429 -0.2595  0.6216
   67MOL   H45934911   4.084   1.097   6.064 -1.2196  1.1621 -0.5348
   67MOL   H46034912   4.116   0.939   5.995  0.5978 -0.9230 -1.4997
   67MOL   H46134913   4.233   1.022   5.824  0.5657  1.1015 -0.4132
   67MOL   H46234914   4.120   1.475   5.476 -0.0856  0.0290 -0.3458
   67MOL   H46334915   4.186   1.300   5.300  0.0320 -2.5495  0.0917
   67MOL   H46434916   4.278   1.085   5.372 -0.7663  0.2779 -0.5748
   67MOL   H46534917   4.271   1.023   5.612 -1.0857 -0.6911 -0.4950
   67MOL   H46634918   4.120   1.327   6.092 -0.4702  1.4295  1.2923
   67MOL   H46734919   4.075   1.564   6.123  1.4390 -0.1554  0.9418
   67MOL   H46834920   4.083   1.713   5.934  0.3601 -0.0787  2.1443
   67MOL   H46934921   4.105   1.627   5.698 -1.0443 -1.0749  0.2814
   67MOL   C47034922   4.333   1.113   5.991  0.8690  0.2541 -0.0544
   67MOL   C47134923   4.472   1.126   5.931  0.4703 -0.1100 -0.2595
   67MOL   N47234924   4.570   1.144   6.042  0.1517  0.2254 -0.1017
   67MOL   C47334925   4.648   1.257   6.066  0.4041 -0.4091  0.1434
   67MOL   C47434926   4.737   1.234   6.178  0.5960  0.3153 -0.3035
   67MOL   C47534927   4.834   1.329   6.206 -0.7452  0.0720  0.6847
   67MOL   C47634928   4.850   1.445   6.126 -0.8723  0.3441  0.2896
   67MOL   C47734929   4.759   1.473   6.025 -0.0987 -0.3369 -0.1271
   67MOL   C47834930   4.653   1.384   6.000  0.0596  0.7796 -0.0010
   67MOL   C47934931   4.704   1.103   6.225  0.3372  0.7104  0.7529
   67MOL   C48034932   4.606   1.048   6.133 -0.2997 -0.2207  0.3296
   67MOL   C48134933   4.565   0.914   6.142  0.4391  0.5037 -0.9375
   67MOL   C48234934   4.620   0.833   6.238 -0.2496 -0.0507  0.1417
   67MOL   C48334935   4.708   0.887   6.335 -0.1463  0.3531  0.4849
   67MOL   C48434936   4.758   1.020   6.321 -0.1613 -0.3904  0.0836
   67MOL   H48534937   4.310   1.191   6.063 -0.9510  1.4302 -1.8508
   67MOL   H48634938   4.327   1.026   6.056 -0.6250  2.0149  2.2576
   67MOL   H48734939   4.472   1.221   5.878 -1.2471 -2.0926 -4.0421
   67MOL   H48834940   4.914   1.307   6.275  0.2154 -0.4611 -0.5915
   67MOL   H48934941   4.934   1.509   6.150  0.2706 -1.3263  0.8863
   67MOL   H49034942   4.758   1.558   5.958 -1.1703 -0.1656  0.1002
   67MOL   H49134943   4.584   1.403   5.919 -1.2693  0.3370  1.0061
   67MOL   H49234944   4.492   0.877   6.072 -0.0666 -2.2896  0.9568
   67MOL   H49334945   4.578   0.733   6.240 -0.1421 -0.0898  0.9301
   67MOL   H49434946   4.745   0.824   6.414 -0.0047  2.4174  2.0997
   67MOL   H49534947   4.825   1.071   6.389  0.8006  1.9833 -2.5283
   67MOL   C49634948   4.513   1.010   5.832  0.5893  0.6938 -0.2655
   67MOL   C49734949   4.659   1.019   5.768  0.2733 -0.7580  0.1379
   67MOL   N49834950   4.697   0.903   5.694  0.1793  0.7190 -0.0621
   67MOL   C49934951   4.782   0.803   5.746  0.0252  0.2064  0.6381
   67MOL   C50034952   4.789   0.697   5.650  0.2342  0.1582  0.8942
   67MOL   C50134953   4.866   0.590   5.682 -0.0344  0.0586  0.5659
   67MOL   C50234954   4.946   0.580   5.796  0.8165 -0.7955  0.1620
   67MOL   C50334955   4.939   0.683   5.893 -0.6528  0.0711  0.6015
   67MOL   C50434956   4.857   0.791   5.870 -0.0343 -0.1573 -0.0093
   67MOL   C50534957   4.703   0.739   5.540  0.5230 -0.0558 -0.2388
   67MOL   C50634958   4.647   0.863   5.573  0.4651  0.4566 -0.0938
   67MOL   C50734959   4.550   0.922   5.491  0.2449  0.1050 -0.5898
   67MOL   C50834960   4.508   0.862   5.371  0.1302 -0.7166  0.5303
   67MOL   C50934961   4.574   0.745   5.329  0.4399 -0.1063  0.2046
   67MOL   C51034962   4.668   0.681   5.415 -0.3361 -0.4185  0.7043
   67MOL   H51134963   4.498   0.911   5.874 -0.4738  0.2762 -1.6252
   67MOL   H51234964   4.441   1.016   5.750 -3.1515 -0.4019  2.8256
   67MOL   H51334965   4.736   1.039   5.843  1.1485 -0.3145 -0.8731
   67MOL   H51434966   4.876   0.509   5.612  1.2633 -0.3449  1.2170
   67MOL   H51534967   5.004   0.490   5.807 -0.4089 -1.5844  0.1289
   67MOL   H51634968   4.997   0.671   5.983 -0.3930  2.8767  0.8521
   67MOL   H51734969   4.857   0.865   5.949 -2.2833 -1.8702  1.6289
   67MOL   H51834970   4.502   1.012   5.525 -0.1725  0.3386 -1.7739
   67MOL   H51934971   4.437   0.913   5.308  2.9862  0.8577 -1.5441
   67MOL   H52034972   4.545   0.697   5.236  2.6059 -0.6939 -0.1779
   67MOL   H52134973   4.716   0.587   5.393  0.7218  0.4798 -0.9622
   67MOL   H52234974   4.664   1.107   5.704 -2.6030 -0.4077  0.2957
   68MOL     C134975   0.556   3.463   7.868 -0.0044 -0.0370 -0.3414
   68MOL     C234976   0.446   3.365   7.828  0.1242 -0.3031 -0.0562
   68MOL     N334977   0.312   3.407   7.855  0.0342  0.5552 -0.2434
   68MOL     C434978   0.233   3.349   7.961 -1.0564 -0.5069  0.1374
   68MOL     C534979   0.104   3.416   7.969  0.5728  0.3284 -0.1543
   68MOL     C634980   0.013   3.374   8.070 -0.9062 -0.2488  0.3122
   68MOL     C734981   0.048   3.278   8.169 -0.5289  0.0647  0.3119
   68MOL     C834982   0.169   3.210   8.151  0.0070  0.2448 -0.1877
   68MOL     C934983   0.262   3.249   8.055  0.0972 -0.6239  0.2057
   68MOL    C1034984   0.101   3.514   7.855 -0.0771  0.1690 -0.1751
   68MOL    C1134985   0.228   3.504   7.785  0.3412 -0.3901 -0.8496
   68MOL    C1234986   0.253   3.589   7.684  0.1221 -0.0910  0.5774
   68MOL    C1334987   0.156   3.675   7.634  0.3801  0.4142 -0.1386
   68MOL    C1434988   0.027   3.679   7.698 -0.0839  0.6072  0.9032
   68MOL    C1534989   0.003   3.593   7.800  0.1428 -0.2783 -0.1139
   68MOL    H1634990   0.557   3.546   7.797 -1.8487  0.8372  0.6451
   68MOL    H1734991   0.656   3.421   7.877  0.1774  0.7298  1.3911
   68MOL    H1834992   0.455   3.268   7.877 -2.1502 -0.3045  0.4371
   68MOL    H1934993   8.142   3.418   8.069 -1.8886 -2.3629 -0.6045
   68MOL    H2034994   8.203   3.253   0.017 -1.0585  0.1426 -0.1688
   68MOL    H2134995   0.192   3.133   8.223 -0.0385  1.2575  0.9043
   68MOL    H2234996   0.353   3.190   8.052  0.4389 -0.1171  0.5085
   68MOL    H2334997   0.354   3.599   7.646  0.3571  0.7218  1.4328
   68MOL    H2434998   0.164   3.750   7.556 -2.7735  0.6610 -0.2923
   68MOL    H2534999   8.177   3.748   7.665 -2.2990 -2.0822  0.3124
   68MOL    H2635000   8.130   3.590   7.842 -0.7241  1.9206 -1.9369
   68MOL    H2735001   0.528   3.511   7.961 -1.6774 -2.9024  0.7026
   68MOL    C2835002   0.466   3.316   7.683  0.0733 -0.0148 -0.2720
   68MOL    C2935003   0.603   3.251   7.656 -0.0489 -0.0564 -0.0669
   68MOL    N3035004   0.654   3.156   7.755  0.3894  0.0446  0.0562
   68MOL    C3135005   0.780   3.156   7.818 -0.4843 -0.7185  0.1022
   68MOL    C3235006   0.779   3.058   7.920  0.3824 -0.3466  0.4154
   68MOL    C3335007   0.891   3.052   8.008 -0.7420 -0.0325  0.1059
   68MOL    C3435008   1.003   3.139   8.000  0.9842 -0.3073  0.4710
   68MOL    C3535009   1.000   3.239   7.902 -0.3463  0.8211 -0.1824
   68MOL    C3635010   0.892   3.244   7.809 -0.0483 -0.9984  0.7568
   68MOL    C3735011   0.655   2.981   7.902 -0.2338 -0.4959  0.4750
   68MOL    C3835012   0.579   3.043   7.798  0.2664  0.5264 -0.2011
   68MOL    C3935013   0.448   2.989   7.766 -0.2307  0.7371  0.1285
   68MOL    C4035014   0.406   2.872   7.833 -0.4709 -0.1338 -0.1762
   68MOL    C4135015   0.485   2.819   7.937 -0.1334  0.0974 -0.3623
   68MOL    C4235016   0.609   2.869   7.965 -0.5351 -0.2332 -0.3135
   68MOL    H4335017   0.381   3.252   7.658 -2.2559  2.8612  0.0208
   68MOL    H4435018   0.460   3.402   7.617 -0.9176 -0.8067 -1.2313
   68MOL    H4535019   0.678   3.329   7.662  1.5145 -1.5356 -0.0439
   68MOL    H4635020   0.894   2.959   8.063 -1.2160 -0.2810 -0.2811
   68MOL    H4735021   1.089   3.125   8.064  0.4972 -1.1996  0.9445
   68MOL    H4835022   1.071   3.321   7.899 -0.7768  1.1519 -2.1474
   68MOL    H4935023   0.895   3.327   7.741  2.9115 -0.9300  0.9133
   68MOL    H5035024   0.389   3.039   7.691 -0.4089  2.3665  1.3279
   68MOL    H5135025   0.307   2.837   7.804 -0.2670 -1.3917  0.6115
   68MOL    H5235026   0.453   2.735   7.998  0.3387 -0.7793 -1.3005
   68MOL    H5335027   0.666   2.828   8.048  0.6851  1.4048 -0.3182
   68MOL    C5435028   0.618   3.178   7.521  0.2065 -0.1233 -0.4023
   68MOL    C5535029   0.600   3.259   7.396  0.0416 -0.0286 -0.5192
   68MOL    N5635030   0.673   3.390   7.397  0.0144  0.4844 -0.7110
   68MOL    C5735031   0.611   3.517   7.402 -0.5174  0.1583 -0.0089
   68MOL    C5835032   0.705   3.622   7.413  0.1239 -0.1098  0.1301
   68MOL    C5935033   0.654   3.757   7.413 -0.7493  0.1245  0.0487
   68MOL    C6035034   0.517   3.784   7.400  0.4362  0.5896 -0.1934
   68MOL    C6135035   0.423   3.685   7.382 -0.0270 -0.3968 -0.1501
   68MOL    C6235036   0.474   3.552   7.386  0.2443  0.6274 -0.0627
   68MOL    C6335037   0.828   3.560   7.416 -0.0928  0.2361 -0.5853
   68MOL    C6435038   0.809   3.419   7.407  0.4617  0.3058 -0.0146
   68MOL    C6535039   0.921   3.332   7.406 -0.2728 -0.0194  0.0336
   68MOL    C6635040   1.055   3.383   7.410 -0.2743  0.6505 -0.2776
   68MOL    C6735041   1.073   3.522   7.426  0.2507  0.0620 -0.3785
   68MOL    C6835042   0.967   3.604   7.425 -0.2006  0.0842 -0.0759
   68MOL    H6935043   0.716   3.130   7.517 -1.0146 -2.6550 -0.8239
   68MOL    H7035044   0.557   3.089   7.531  1.3678 -0.9723 -0.7352
   68MOL    H7135045   0.493   3.281   7.399 -0.7045 -3.2220 -1.5601
   68MOL    H7235046   0.726   3.835   7.429 -1.3818  0.6883  0.1852
   68MOL    H7335047   0.478   3.884   7.390 -1.7703 -0.1102  1.0351
   68MOL    H7435048   0.318   3.702   7.364  0.1835  0.1440 -0.9147
   68MOL    H7535049   0.402   3.475   7.362  0.2362  0.5298  0.2625
   68MOL    H7635050   0.904   3.225   7.410 -2.1868  0.2832  0.0007
   68MOL    H7735051   1.142   3.320   7.414 -1.0224 -0.2980  1.6413
   68MOL    H7835052   1.175   3.557   7.437 -0.3108  1.7843 -0.4522
   68MOL    H7935053   0.981   3.711   7.430  0.6213  0.0444 -1.2892
   68MOL    C8035054   0.656   3.186   7.265 -0.0699 -0.2437 -0.4937
   68MOL    C8135055   0.563   3.067   7.231 -0.1476 -0.4264 -0.4663
   68MOL    N8235056   0.420   3.103   7.219 -0.2362 -0.2833 -0.8236
   68MOL    C8335057   0.319   3.062   7.315  0.5177  0.4669 -0.7968
   68MOL    C8435058   0.201   3.135   7.287  0.4158  0.1459  0.1183
   68MOL    C8535059   0.084   3.120   7.363 -0.5382 -0.8360  0.3615
   68MOL    C8635060   0.083   3.028   7.470 -0.4212 -0.2641 -0.2434
   68MOL    C8735061   0.198   2.949   7.497  0.3984  0.5496  0.1203
   68MOL    C8835062   0.321   2.972   7.424  0.0957  0.7418  0.6069
   68MOL    C8935063   0.226   3.213   7.173 -0.2516 -0.6067  0.7645
   68MOL    C9035064   0.362   3.193   7.133  0.6024 -0.1242 -0.5244
   68MOL    C9135065   0.412   3.262   7.019  0.4988  0.9998 -0.3803
   68MOL    C9235066   0.326   3.341   6.941 -0.9023 -0.1163  0.4005
   68MOL    C9335067   0.193   3.364   6.978 -0.1179 -0.6362 -0.2337
   68MOL    C9435068   0.142   3.295   7.091 -0.1714 -0.4191  0.1505
   68MOL    H9535069   0.659   3.249   7.176 -0.6193 -0.4450 -0.6610
   68MOL    H9635070   0.757   3.148   7.282  0.2918  1.3113  0.9627
   68MOL    H9735071   0.564   2.999   7.317  0.3740 -0.4282 -0.4749
   68MOL    H9835072   8.222   3.173   7.335  0.6800  1.2784  0.4310
   68MOL    H9935073   8.219   3.017   7.526 -0.6078 -1.0538 -0.6897
   68MOL   H10035074   0.197   2.871   7.571  2.1156 -0.7531 -1.1841
   68MOL   H10135075   0.409   2.910   7.435  0.2248  0.7169 -0.5830
   68MOL   H10235076   0.516   3.261   6.988  0.3560  3.3616 -1.0442
   68MOL   H10335077   0.355   3.398   6.854  3.8215 -2.6615  0.1597
   68MOL   H10435078   0.132   3.417   6.907  0.1124 -0.6241 -0.4216
   68MOL   H10535079   0.036   3.298   7.110 -0.4384 -1.1895 -1.1392
   68MOL   C10635080   0.612   2.981   7.110  0.3008  0.0138  0.0791
   68MOL   C10735081   0.741   2.901   7.133 -0.1432  0.0650 -0.6408
   68MOL   N10835082   0.746   2.851   7.271  0.4553  0.0332  0.5970
   68MOL   C10935083   0.835   2.871   7.379 -0.3461 -0.5449  0.3989
   68MOL   C11035084   0.788   2.797   7.492 -0.4168  0.1542  0.2993
   68MOL   C11135085   0.866   2.804   7.613 -1.0159  0.1967  0.1447
   68MOL   C11235086   0.974   2.895   7.619 -0.3348 -0.2505  0.6617
   68MOL   C11335087   1.015   2.964   7.506 -0.0061 -0.0351 -0.8428
   68MOL   C11435088   0.947   2.952   7.382 -0.3714  0.0151  0.2505
   68MOL   C11535089   0.669   2.728   7.455  0.0908  0.6913  0.7524
   68MOL   C11635090   0.648   2.759   7.317 -0.3060  0.1552 -0.0728
   68MOL   C11735091   0.544   2.694   7.245 -1.0497 -0.1482  0.3106
   68MOL   C11835092   0.455   2.614   7.318  0.0005 -0.0437  0.2513
   68MOL   C11935093   0.472   2.582   7.451 -0.4203  0.3428  0.0600
   68MOL   C12035094   0.580   2.637   7.518  0.3074  0.3611  0.6394
   68MOL   H12135095   0.537   2.909   7.078  2.0489 -1.0967 -1.5714
   68MOL   H12235096   0.623   3.045   7.023 -0.3648  2.5702  1.8057
   68MOL   H12335097   0.820   2.976   7.132  0.7386 -0.8587 -0.7452
   68MOL   H12435098   0.833   2.744   7.697  1.3229 -0.2039  0.8141
   68MOL   H12535099   1.039   2.898   7.705 -0.0913 -1.4156  0.5263
   68MOL   H12635100   1.102   3.027   7.518 -0.6698  0.7193  0.1615
   68MOL   H12735101   0.986   3.006   7.297  0.9325 -2.4716 -0.7856
   68MOL   H12835102   0.525   2.707   7.139 -2.0584  0.0469  0.5124
   68MOL   H12935103   0.363   2.581   7.271 -0.8362  2.7101 -0.1249
   68MOL   H13035104   0.395   2.534   7.508  0.1168  0.3503  0.8057
   68MOL   H13135105   0.604   2.615   7.620  2.2874  0.1484  0.1529
   68MOL   C13235106   0.779   2.794   7.020 -0.0322  0.2941 -0.4696
   68MOL   C13335107   0.867   2.868   6.916  0.6432 -0.1808  0.4671
   68MOL   N13435108   1.002   2.916   6.972 -0.2265  0.1657 -0.0376
   68MOL   C13535109   1.030   3.054   6.987 -0.5141  0.7468  1.0069
   68MOL   C13635110   1.158   3.070   7.045  0.7119 -0.5213 -0.9468
   68MOL   C13735111   1.212   3.195   7.075 -0.1753  0.4557  0.5798
   68MOL   C13835112   1.130   3.307   7.055  0.1885  0.1267  0.3064
   68MOL   C13935113   1.004   3.296   7.002  0.1980  0.3968 -0.4468
   68MOL   C14035114   0.954   3.170   6.961 -0.7012  0.1876 -0.2143
   68MOL   C14135115   1.212   2.938   7.064 -0.3338 -0.7819  0.2102
   68MOL   C14235116   1.113   2.842   7.026 -0.0153 -0.1037  0.3037
   68MOL   C14335117   1.141   2.706   7.037 -0.4594  0.2880 -0.0712
   68MOL   C14435118   1.255   2.659   7.099  0.8026  0.6748 -0.1821
   68MOL   C14535119   1.350   2.757   7.142 -0.1169 -0.5454  0.1530
   68MOL   C14635120   1.329   2.898   7.133  0.1836 -0.5561  0.2342
   68MOL   H14735121   0.834   2.724   7.083 -1.5221  0.6805  1.3031
   68MOL   H14835122   0.689   2.750   6.978 -0.1159 -1.3953  1.4106
   68MOL   H14935123   0.815   2.961   6.892  1.0674  0.4686  2.0305
   68MOL   H15035124   1.313   3.196   7.115  0.7187 -4.1410 -1.2540
   68MOL   H15135125   1.174   3.403   7.076  1.6049 -0.3833 -0.2920
   68MOL   H15235126   0.956   3.392   6.984  2.2201  1.1911 -1.8104
   68MOL   H15335127   0.855   3.167   6.917 -0.0193 -1.5100 -1.7010
   68MOL   H15435128   1.075   2.632   6.995 -0.3418 -0.7688  1.5610
   68MOL   H15535129   1.274   2.554   7.109 -0.2866  0.5615  0.7496
   68MOL   H15635130   1.435   2.722   7.198 -0.6672  2.6864  3.2179
   68MOL   H15735131   1.407   2.965   7.166  1.1836  0.8795 -4.6306
   68MOL   C15835132   0.896   2.784   6.784  0.7016 -1.0241  0.0026
   68MOL   C15935133   0.770   2.751   6.699 -0.2863 -0.1142  0.0528
   68MOL   N16035134   0.656   2.843   6.720 -0.2706  0.4311  0.0019
   68MOL   C16135135   0.528   2.806   6.765  0.1894  0.6474  0.0189
   68MOL   C16235136   0.432   2.910   6.737  0.4877  0.4982 -0.6261
   68MOL   C16335137   0.296   2.893   6.763 -0.5603  0.4810 -0.3093
   68MOL   C16435138   0.258   2.765   6.811  0.4423  0.4825  0.3833
   68MOL   C16535139   0.348   2.658   6.839 -0.2003  0.4585  0.0404
   68MOL   C16635140   0.483   2.683   6.820  0.1241  0.2751 -0.3523
   68MOL   C16735141   0.518   3.022   6.692  0.4929 -1.0450  0.2735
   68MOL   C16835142   0.653   2.983   6.701 -0.7916 -0.0309  0.0439
   68MOL   C16935143   0.759   3.075   6.678 -0.1896  0.1140 -0.3853
   68MOL   C17035144   0.733   3.208   6.645 -0.0037 -0.0223 -0.1387
   68MOL   C17135145   0.593   3.248   6.634 -0.1984 -0.0800  0.2438
   68MOL   C17235146   0.490   3.154   6.648 -0.9903  0.0520 -0.4602
   68MOL   H17335147   0.980   2.828   6.731  0.2773 -0.2929 -0.0661
   68MOL   H17435148   0.923   2.686   6.825  1.0978 -0.9607 -0.1069
   68MOL   H17535149   0.728   2.655   6.729  1.0375 -0.3631  1.1547
   68MOL   H17635150   0.227   2.973   6.741 -0.7788  0.7074  1.1425
   68MOL   H17735151   0.152   2.751   6.829  0.1751 -1.4032 -2.3795
   68MOL   H17835152   0.309   2.567   6.881  1.9114  0.5943  2.4181
   68MOL   H17935153   0.557   2.604   6.828  0.0805  0.2090 -0.5900
   68MOL   H18035154   0.861   3.040   6.679  0.1470  1.0652  0.4806
   68MOL   H18135155   0.810   3.284   6.639  1.1011 -1.2165 -1.2991
   68MOL   H18235156   0.572   3.348   6.598  2.0138  0.5911  0.7746
   68MOL   H18335157   0.387   3.185   6.640 -1.3151 -0.8170  0.2543
   68MOL   C18435158   0.808   2.735   6.549 -0.7111 -0.3186  0.1398
   68MOL   C18535159   0.689   2.731   6.452 -0.0449  0.0121  0.5777
   68MOL   N18635160   0.716   2.790   6.320  0.0093  0.1704 -0.8191
   68MOL   C18735161   0.670   2.915   6.273  0.8796  0.2113  0.5428
   68MOL   C18835162   0.697   2.916   6.130 -0.0015  0.6485  0.6082
   68MOL   C18935163   0.652   3.032   6.055  0.0197  0.1887  0.6735
   68MOL   C19035164   0.584   3.140   6.110  0.2926 -0.3863  0.1278
   68MOL   C19135165   0.549   3.127   6.249  0.6475 -0.2973  0.4510
   68MOL   C19235166   0.595   3.021   6.329 -0.4612 -0.5763  0.2065
   68MOL   C19335167   0.769   2.795   6.099 -0.1104  0.4563  0.2256
   68MOL   C19435168   0.789   2.725   6.219  0.3787 -0.5420  0.8739
   68MOL   C19535169   0.859   2.600   6.217 -0.3655  0.0697  0.2541
   68MOL   C19635170   0.911   2.546   6.097 -0.1414 -0.3791  0.6526
   68MOL   C19735171   0.885   2.613   5.980  0.6748 -0.3347  0.3984
   68MOL   C19835172   0.816   2.735   5.983 -0.2645 -0.1571  0.4620
   68MOL   H19935173   0.857   2.830   6.529  1.3879 -1.0885  1.3068
   68MOL   H20035174   0.870   2.651   6.518  1.1771  1.1085 -0.0564
   68MOL   H20135175   0.617   2.796   6.500 -0.3809 -1.4875  2.1525
   68MOL   H20235176   0.675   3.043   5.950 -2.2577 -0.6496  0.0530
   68MOL   H20335177   0.541   3.220   6.051  0.6647  1.2814  2.0791
   68MOL   H20435178   0.493   3.206   6.296  0.1364 -0.4921  0.1683
   68MOL   H20535179   0.575   3.021   6.435  0.1335 -0.9203  0.3188
   68MOL   H20635180   0.857   2.541   6.307 -3.4995  1.2654  1.0235
   68MOL   H20735181   0.968   2.454   6.095  2.0188  0.9353  0.0192
   68MOL   H20835182   0.933   2.581   5.889 -1.2238 -0.6888 -0.4810
   68MOL   H20935183   0.814   2.790   5.891 -0.2394 -3.4615 -1.5995
   68MOL   C21035184   0.619   2.597   6.444 -0.7947  1.4447  0.4181
   68MOL   C21135185   0.495   2.595   6.355 -0.2027 -0.3823  0.9153
   68MOL   N21235186   0.441   2.458   6.330  0.0693  0.6850 -0.2847
   68MOL   C21335187   0.453   2.370   6.219  0.0452  0.0840  0.1103
   68MOL   C21435188   0.368   2.256   6.244  0.6022 -0.3039  0.2139
   68MOL   C21535189   0.354   2.156   6.145 -0.3397  0.0047 -0.4679
   68MOL   C21635190   0.425   2.163   6.023 -0.7153 -0.2002 -0.1239
   68MOL   C21735191   0.519   2.267   6.007 -0.1278 -0.3489  0.0108
   68MOL   C21835192   0.525   2.376   6.099 -0.1027 -0.6623 -0.0814
   68MOL   C21935193   0.318   2.269   6.375  0.0910 -0.4427 -0.0364
   68MOL   C22035194   0.379   2.384   6.433 -0.6847  0.3336  0.0563
   68MOL   C22135195   0.359   2.411   6.569  0.1729  0.1664 -0.4261
   68MOL   C22235196   0.274   2.326   6.646 -0.2147  0.3610 -0.6300
   68MOL   C22335197   0.208   2.212   6.586 -0.3580 -0.6320  0.4752
   68MOL   C22435198   0.241   2.181   6.449 -0.0645 -0.5067 -0.4761
   68MOL   H22535199   0.679   2.514   6.407  0.5336  1.9468  1.3871
   68MOL   H22635200   0.591   2.569   6.546  0.4680  0.5396  0.5242
   68MOL   H22735201   0.525   2.630   6.256 -0.2223 -0.7322  0.7867
   68MOL   H22835202   0.293   2.070   6.170  1.0886  0.1420  3.9110
   68MOL   H22935203   0.411   2.092   5.942 -1.1946  0.6698 -0.8138
   68MOL   H23035204   0.576   2.276   5.916 -0.1341  0.5867  0.0936
   68MOL   H23135205   0.592   2.454   6.065  0.6124 -0.9614  0.6077
   68MOL   H23235206   0.408   2.495   6.617 -0.9375 -0.1894  1.3813
   68MOL   H23335207   0.272   2.340   6.753  0.4138 -0.2983 -0.5230
   68MOL   H23435208   0.145   2.145   6.644 -0.3209  1.3755  2.9182
   68MOL   H23535209   0.195   2.091   6.412  1.7237 -1.8221  0.4762
   68MOL   C23635210   0.387   2.699   6.408 -0.3816  0.7699  0.6300
   68MOL   C23735211   0.239   2.692   6.365 -0.2474 -0.0486 -0.6703
   68MOL   N23835212   0.151   2.772   6.452  0.0460 -0.5570  0.3794
   68MOL   C23935213   0.051   2.720   6.540  0.2200  0.3433 -0.0198
   68MOL   C24035214   8.203   2.833   6.599  0.1916  0.3588  0.5798
   68MOL   C24135215   8.103   2.797   6.696  0.4495 -0.3631  0.7321
   68MOL   C24235216   8.079   2.668   6.742 -0.0834  0.5219  0.2651
   68MOL   C24335217   8.148   2.565   6.677 -0.5579 -0.6650  0.5527
   68MOL   C24435218   0.025   2.586   6.581 -0.8520 -0.0599  0.0578
   68MOL   C24535219   0.025   2.949   6.529  0.0452  0.3468  0.2181
   68MOL   C24635220   0.139   2.917   6.456 -0.2750 -0.2206  0.2796
   68MOL   C24735221   0.214   3.015   6.384  0.1442 -0.7205 -0.2932
   68MOL   C24835222   0.177   3.150   6.394 -0.5290 -0.5165 -0.2652
   68MOL   C24935223   0.074   3.184   6.479 -0.0567  0.4383  0.2914
   68MOL   C25035224   8.222   3.084   6.540 -0.6831 -0.1809  0.5883
   68MOL   H25135225   0.386   2.679   6.515 -2.5391  1.8645  0.8423
   68MOL   H25235226   0.417   2.802   6.390 -1.8220  1.7142  3.4307
   68MOL   H25335227   0.206   2.588   6.375 -3.4432  0.8329 -1.4890
   68MOL   H25435228   8.038   2.873   6.738 -0.1019 -0.2414 -0.3237
   68MOL   H25535229   8.007   2.655   6.821  1.1500  0.5197  1.4062
   68MOL   H25635230   8.130   2.466   6.714 -1.4828 -0.3231  1.0308
   68MOL   H25735231   0.080   2.502   6.543 -0.1076 -1.1497  3.3927
   68MOL   H25835232   0.296   2.992   6.318 -1.1575  0.6711 -2.4531
   68MOL   H25935233   0.224   3.234   6.344 -0.0282 -1.8132 -2.0324
   68MOL   H26035234   0.042   3.287   6.487  1.4211  1.0628 -1.2693
   68MOL   H26135235   8.135   3.114   6.596  0.5458  0.2319  2.3087
   68MOL   C26235236   0.217   2.721   6.212 -0.4796  0.5002  0.9360
   68MOL   C26335237   0.071   2.706   6.170  0.1590  0.1465  0.4495
   68MOL   N26435238   0.041   2.759   6.040  0.5599  0.1416 -0.5224
   68MOL   C26535239   8.208   2.882   6.022  0.1840  0.1788 -0.6489
   68MOL   C26635240   8.180   2.906   5.887 -0.6350 -0.3220 -0.0714
   68MOL   C26735241   8.109   3.026   5.849 -0.0341  0.1711  0.0425
   68MOL   C26835242   8.067   3.118   5.946 -0.1256  0.5260  0.3920
   68MOL   C26935243   8.097   3.094   6.081 -0.5925 -0.4921  0.5598
   68MOL   C27035244   8.169   2.977   6.118 -0.0265  0.4254 -0.1811
   68MOL   C27135245   8.226   2.794   5.813  0.3686 -0.2928  0.2555
   68MOL   C27235246   0.059   2.711   5.909 -0.3677 -0.4625 -0.3004
   68MOL   C27335247   0.109   2.590   5.863  0.4963  0.7132  0.7305
   68MOL   C27435248   0.101   2.553   5.727  0.4373  0.1736 -0.2838
   68MOL   C27535249   0.034   2.636   5.634  0.3837  0.5130  0.2971
   68MOL   C27635250   8.210   2.756   5.678  0.1071 -0.7489  0.0778
   68MOL   H27735251   0.261   2.818   6.190 -2.0156  1.5781  2.4737
   68MOL   H27835252   0.270   2.644   6.157 -2.5031 -1.4873  1.6949
   68MOL   H27935253   0.012   2.770   6.236  0.1933 -1.6210  2.1977
   68MOL   H28035254   8.081   3.046   5.747  0.4848 -2.1683 -0.5917
   68MOL   H28135255   8.008   3.199   5.905  1.5376  1.9362  0.7238
   68MOL   H28235256   8.064   3.168   6.152 -0.5912  0.0480  0.0032
   68MOL   H28335257   8.178   2.958   6.224  1.0576 -2.0132 -0.6918
   68MOL   H28435258   0.146   2.521   5.938 -0.8107 -0.6919  0.1093
   68MOL   H28535259   0.137   2.457   5.695 -1.6297 -0.7952  0.1866
   68MOL   H28635260   0.022   2.604   5.532  1.3868  0.5703  0.1561
   68MOL   H28735261   8.152   2.821   5.614 -0.6001 -0.2578  1.1974
   68MOL   C28835262   8.224   2.569   6.195 -0.0249 -0.3501 -0.1039
   68MOL   C28935263   8.068   2.580   6.158 -1.1438 -0.1002 -0.3961
   68MOL   N29035264   8.001   2.442   6.168  0.4295 -0.0873  0.5532
   68MOL   C29135265   7.954   2.371   6.055  0.1563  0.3742  0.1752
   68MOL   C29235266   7.859   2.273   6.108  0.5258 -0.0500  0.1893
   68MOL   C29335267   7.788   2.192   6.011 -0.3824  0.0105  0.0539
   68MOL   C29435268   7.809   2.216   5.872 -0.5743 -0.7925  0.7539
   68MOL   C29535269   7.893   2.312   5.824 -0.5358 -0.4365  0.1101
   68MOL   C29635270   7.968   2.395   5.911  0.3960  0.4923  0.1909
   68MOL   C29735271   7.872   2.273   6.248  0.2696  0.4851 -0.1381
   68MOL   C29835272   7.964   2.373   6.283 -0.5814  0.2912 -0.4116
   68MOL   C29935273   8.005   2.396   6.417 -0.4868 -0.2127  0.5563
   68MOL   C30035274   7.941   2.324   6.518 -0.6166  0.6181 -0.2340
   68MOL   C30135275   7.840   2.229   6.487 -0.2631  0.1619  0.0839
   68MOL   C30235276   7.817   2.194   6.351  0.3356  0.2752 -0.4307
   68MOL   H30335277   0.047   2.490   6.139 -1.3059 -0.5332 -1.0391
   68MOL   H30435278   0.000   2.556   6.303  2.0598  1.7460  0.1159
   68MOL   H30535279   8.063   2.597   6.050 -1.0253 -1.3987 -0.6077
   68MOL   H30635280   7.716   2.118   6.043 -2.1343  1.9703  0.7782
   68MOL   H30735281   7.754   2.153   5.803 -1.0288 -0.2378  0.6095
   68MOL   H30835282   7.911   2.324   5.718  0.1038  0.7493  0.3400
   68MOL   H30935283   8.021   2.481   5.875 -2.5543  2.2290 -0.1947
   68MOL   H31035284   8.085   2.460   6.449 -1.9758  0.2720  3.5794
   68MOL   H31135285   7.981   2.330   6.619 -0.0230  0.8895 -0.4825
   68MOL   H31235286   7.804   2.161   6.563 -0.6211  0.1338 -0.1093
   68MOL   H31335287   7.746   2.119   6.320 -0.7836  0.4844  1.4994
   68MOL   C31435288   7.989   2.694   6.229  0.8833 -0.4404 -0.7034
   68MOL   C31535289   7.844   2.697   6.187 -0.2734 -0.2429 -0.4076
   68MOL   N31635290   7.763   2.759   6.288  0.4736  0.4010  0.0115
   68MOL   C31735291   7.672   2.688   6.370 -0.1820  0.1318  0.4992
   68MOL   C31835292   7.618   2.783   6.459 -0.0250 -0.7092  1.0617
   68MOL   C31935293   7.522   2.740   6.554  0.0771 -0.1170 -0.5374
   68MOL   C32035294   7.482   2.605   6.559  0.0181 -0.6540  0.2151
   68MOL   C32135295   7.534   2.515   6.467  0.0735 -0.2654 -0.2175
   68MOL   C32235296   7.638   2.548   6.379 -0.0279  0.3445 -0.1501
   68MOL   C32335297   7.665   2.920   6.423 -1.0287 -0.5539  0.2968
   68MOL   C32435298   7.758   2.895   6.318  1.1579 -0.6364 -0.2301
   68MOL   C32535299   7.823   3.000   6.252  0.7583 -0.0475  0.0380
   68MOL   C32635300   7.791   3.128   6.286  0.2755  0.4945 -0.4258
   68MOL   C32735301   7.703   3.161   6.394 -0.5867  0.3375 -0.4960
   68MOL   C32835302   7.637   3.056   6.458 -0.1975  0.2373 -0.3091
   68MOL   H32935303   7.995   2.683   6.338  1.0813 -1.4434 -0.8161
   68MOL   H33035304   8.024   2.797   6.218  0.0836  0.1187  1.6446
   68MOL   H33135305   7.820   2.591   6.194 -2.3599  0.1958 -0.8231
   68MOL   H33235306   7.489   2.817   6.622 -0.3153  0.6881 -1.6402
   68MOL   H33335307   7.393   2.584   6.618 -0.7186 -0.0282 -0.6742
   68MOL   H33435308   7.512   2.410   6.472  1.7759 -0.6422 -0.3595
   68MOL   H33535309   7.677   2.474   6.310  0.8273  0.2204  0.4573
   68MOL   H33635310   7.895   2.985   6.173  0.8068 -1.8564  0.4043
   68MOL   H33735311   7.837   3.210   6.233 -0.1529  0.0467 -1.5163
   68MOL   H33835312   7.690   3.266   6.411 -0.6415 -0.0946  2.4130
   68MOL   H33935313   7.561   3.082   6.530  1.4907  1.1806  1.1671
   68MOL   C34035314   7.812   2.740   6.040  0.2050 -0.4998 -0.2597
   68MOL   C34135315   7.667   2.713   6.000  0.0861 -0.5332  0.6120
   68MOL   N34235316   7.635   2.788   5.877 -0.0100  0.4698  0.2946
   68MOL   C34335317   7.538   2.888   5.869 -0.1011  0.3301 -0.4489
   68MOL   C34435318   7.528   2.921   5.731 -0.1823 -0.8604 -1.0982
   68MOL   C34535319   7.424   3.007   5.697 -0.3129 -0.6336 -0.6099
   68MOL   C34635320   7.335   3.058   5.793 -0.0233 -0.1570 -0.4948
   68MOL   C34735321   7.359   3.045   5.930  0.9297  0.8720 -0.1760
   68MOL   C34835322   7.460   2.954   5.966  0.3555  1.1467 -0.1478
   68MOL   C34935323   7.630   2.855   5.653 -0.5166 -0.0985 -0.4652
   68MOL   C35035324   7.684   2.759   5.748  0.2951 -0.7572  0.5823
   68MOL   C35135325   7.783   2.664   5.711 -0.0518 -0.7304 -0.2635
   68MOL   C35235326   7.827   2.661   5.579 -0.0652  0.1686 -0.1146
   68MOL   C35335327   7.777   2.751   5.487 -0.6006 -0.6930  0.8912
   68MOL   C35435328   7.680   2.848   5.523  0.4536  0.1251  0.0065
   68MOL   H35535329   7.850   2.842   6.024  1.1194 -0.0895  4.0183
   68MOL   H35635330   7.880   2.681   5.979  1.7585  0.8786  0.0954
   68MOL   H35735331   7.599   2.744   6.078  1.5013 -0.9393  2.0397
   68MOL   H35835332   7.399   3.032   5.594  1.4263  1.4162 -0.5638
   68MOL   H35935333   7.245   3.116   5.777  0.0491  0.2053  0.3540
   68MOL   H36035334   7.285   3.072   6.005 -2.3319 -1.2188 -2.5007
   68MOL   H36135335   7.468   2.918   6.067  1.3285  0.2034 -0.5493
   68MOL   H36235336   7.822   2.600   5.788 -1.3536 -2.0614 -0.6906
   68MOL   H36335337   7.904   2.589   5.553  0.2032  0.5881 -0.4926
   68MOL   H36435338   7.800   2.748   5.381 -0.2646  0.0188  0.9409
   68MOL   H36535339   7.630   2.908   5.449 -2.9680 -2.6084  0.0153
   68MOL   C36635340   7.640   2.558   5.997  0.2424  0.3114  0.5384
   68MOL   C36735341   7.502   2.522   5.932 -0.0925  0.0740 -0.1719
   68MOL   N36835342   7.485   2.375   5.921 -0.5041 -0.3984 -0.3619
   68MOL   C36935343   7.488   2.308   5.802 -0.2748  0.7292  0.7482
   68MOL   C37035344   7.446   2.177   5.817  0.0953  0.1475 -0.3333
   68MOL   C37135345   7.428   2.090   5.706  1.0524  0.6081 -0.4457
   68MOL   C37235346   7.457   2.141   5.578  0.0569  0.0189  1.0704
   68MOL   C37335347   7.506   2.271   5.557 -0.6499 -0.2045 -0.0471
   68MOL   C37435348   7.523   2.353   5.668 -0.0625  0.4519  0.0368
   68MOL   C37535349   7.432   2.155   5.964 -0.6360  0.5274 -0.3247
   68MOL   C37635350   7.466   2.279   6.025 -0.4880 -0.1280 -0.7065
   68MOL   C37735351   7.450   2.290   6.168 -0.3580  0.7513 -0.6480
   68MOL   C37835352   7.409   2.181   6.237  0.0182  0.2387  0.7620
   68MOL   C37935353   7.388   2.055   6.182  0.2063 -0.1769 -0.0793
   68MOL   C38035354   7.395   2.044   6.047  0.6250  0.3589  0.3455
   68MOL   H38135355   7.716   2.498   5.947 -0.6151  0.0283 -0.4617
   68MOL   H38235356   7.637   2.515   6.096  4.1930 -4.5395 -1.2744
   68MOL   H38335357   7.507   2.569   5.833  0.0921  0.5781  0.0745
   68MOL   H38435358   7.374   1.997   5.718  1.0379  0.7025  0.2450
   68MOL   H38535359   7.447   2.069   5.499  1.1979 -0.6640  1.5392
   68MOL   H38635360   7.520   2.311   5.458 -0.9453  2.3441  0.8943
   68MOL   H38735361   7.567   2.451   5.652 -2.1997  1.4658  0.2530
   68MOL   H38835362   7.469   2.380   6.225 -1.5773 -0.4680  1.7778
   68MOL   H38935363   7.396   2.196   6.343  1.5693  1.1200  0.8493
   68MOL   H39035364   7.363   1.972   6.247  1.9400 -0.3389  0.4063
   68MOL   H39135365   7.386   1.949   5.997  0.7890 -0.1454  1.2803
   68MOL   C39235366   7.382   2.579   6.009 -0.3587  0.4009 -0.3168
   68MOL   C39335367   7.253   2.561   5.933 -0.2138  0.0308  0.2670
   68MOL   N39435368   7.136   2.542   6.014  0.2088 -0.0934  0.2941
   68MOL   C39535369   7.069   2.420   6.033 -0.6700 -0.1269  0.5942
   68MOL   C39635370   6.962   2.447   6.123 -0.2063  0.1710 -0.0982
   68MOL   C39735371   6.885   2.335   6.168 -0.3290  0.7647  0.3317
   68MOL   C39835372   6.919   2.203   6.139  0.5515 -0.5009  0.9244
   68MOL   C39935373   7.022   2.185   6.053 -0.2249  0.5985 -0.4890
   68MOL   C40035374   7.096   2.286   5.998  0.1461 -0.0228  0.0274
   68MOL   C40135375   6.945   2.592   6.129  0.1624  0.5104 -0.5195
   68MOL   C40235376   7.055   2.651   6.067 -0.1239 -0.3601  0.4813
   68MOL   C40335377   7.062   2.794   6.054  0.3417  0.4137  0.4321
   68MOL   C40435378   6.965   2.878   6.116 -0.4703 -0.3486 -0.2598
   68MOL   C40535379   6.858   2.816   6.185 -0.4110 -0.5536  0.3622
   68MOL   C40635380   6.846   2.673   6.185  0.0774  0.4284  0.4432
   68MOL   H40735381   7.372   2.531   6.106  1.2798  1.9612  0.6656
   68MOL   H40835382   7.390   2.684   6.039  0.6178  1.0120 -2.5835
   68MOL   H40935383   7.263   2.461   5.892 -2.3347  1.0340 -2.8089
   68MOL   H41035384   6.788   2.348   6.214 -0.2699  2.1536  0.0852
   68MOL   H41135385   6.858   2.122   6.175 -1.2977  0.1169 -0.7732
   68MOL   H41235386   7.057   2.086   6.024  0.2447  1.1933 -1.9866
   68MOL   H41335387   7.177   2.256   5.933 -1.1530 -0.2290 -1.5506
   68MOL   H41435388   7.145   2.836   6.000 -2.1826  0.3661 -3.7206
   68MOL   H41535389   6.990   2.983   6.117  0.5155 -0.5502 -1.6282
   68MOL   H41635390   6.783   2.879   6.229 -1.4202 -1.0565 -0.6203
   68MOL   H41735391   6.758   2.627   6.227  0.9792 -0.2836  1.5784
   68MOL   C41835392   7.241   2.653   5.811 -0.1761 -0.3993 -0.1852
   68MOL   C41935393   7.123   2.617   5.724 -0.6092 -0.3102 -0.0421
   68MOL   N42035394   7.110   2.716   5.619 -0.3029  0.0408  0.6353
   68MOL   C42135395   7.025   2.828   5.617  0.2626  0.6549 -0.4574
   68MOL   C42235396   7.057   2.905   5.501  0.4314  0.0444 -0.8419
   68MOL   C42335397   6.968   3.016   5.460 -0.4670  0.2873  0.7372
   68MOL   C42435398   6.861   3.042   5.539  0.0493  0.8968  0.0640
   68MOL   C42535399   6.835   2.972   5.657  0.8747 -0.1250 -0.8527
   68MOL   C42635400   6.924   2.876   5.704  0.4288  0.2844  1.3226
   68MOL   C42735401   7.169   2.849   5.441  0.6447  0.0478  0.0269
   68MOL   C42835402   7.203   2.738   5.517  0.1314  0.0143  0.1040
   68MOL   C42935403   7.323   2.668   5.486  0.6635 -0.5689 -0.2429
   68MOL   C43035404   7.407   2.708   5.379 -0.0201 -0.3932  0.1567
   68MOL   C43135405   7.369   2.820   5.301  0.0971  0.0662 -0.8302
   68MOL   C43235406   7.248   2.886   5.337 -0.5039 -0.2908 -0.2825
   68MOL   H43335407   7.232   2.758   5.836  0.2516 -0.3933 -0.0445
   68MOL   H43435408   7.336   2.644   5.759 -0.0213 -2.9288  0.4673
   68MOL   H43535409   7.032   2.626   5.784 -0.3077 -0.4876  0.4435
   68MOL   H43635410   6.991   3.055   5.362  3.6519  1.7257  2.1490
   68MOL   H43735411   6.788   3.111   5.498 -1.9089 -0.5332  1.0687
   68MOL   H43835412   6.745   2.983   5.715  1.5169 -2.0346  0.5795
   68MOL   H43935413   6.899   2.829   5.798  3.0249 -1.0022  1.4117
   68MOL   H44035414   7.355   2.587   5.550  1.7004  0.2728  0.3288
   68MOL   H44135415   7.502   2.660   5.362  0.6582  0.8192  0.4619
   68MOL   H44235416   7.418   2.864   5.216  1.5129  1.7033  0.8102
   68MOL   H44335417   7.229   2.969   5.271  0.8338 -1.3073 -1.9933
   68MOL   C44435418   7.130   2.466   5.673 -0.7009  0.0578  0.7082
   68MOL   C44535419   7.054   2.424   5.547  0.3122 -0.3974 -0.2203
   68MOL   N44635420   7.077   2.284   5.520 -1.3414 -0.6635 -0.4996
   68MOL   C44735421   7.162   2.231   5.418  0.2707 -0.8676 -0.7923
   68MOL   C44835422   7.167   2.091   5.434 -0.0546  0.1206 -0.2218
   68MOL   C44935423   7.243   2.019   5.334  0.3767  0.4193 -0.7499
   68MOL   C45035424   7.328   2.081   5.243 -0.1459 -0.2513  0.3520
   68MOL   C45135425   7.321   2.221   5.229  0.2381 -0.0293 -0.1714
   68MOL   C45235426   7.237   2.298   5.319 -0.1580  0.9499  0.5413
   68MOL   C45335427   7.070   2.054   5.536 -0.8659  0.0904  0.2703
   68MOL   C45435428   7.023   2.174   5.596 -0.4026  0.2440  0.0862
   68MOL   C45535429   6.944   2.166   5.710  0.4756 -0.8621 -0.1742
   68MOL   C45635430   6.909   2.044   5.763  0.4094 -0.6495 -0.1541
   68MOL   C45735431   6.941   1.923   5.701 -0.8387 -0.5878 -0.1435
   68MOL   C45835432   7.024   1.933   5.584 -0.8511  0.4156  0.1892
   68MOL   H45935433   7.233   2.438   5.650 -0.5912  0.3712  0.8214
   68MOL   H46035434   7.107   2.385   5.742 -0.7335  0.0321  0.6683
   68MOL   H46135435   7.105   2.480   5.468 -0.7703  1.5280  0.4111
   68MOL   H46235436   7.251   1.912   5.346 -2.9963  0.2405  0.5261
   68MOL   H46335437   7.394   2.014   5.190 -2.1000 -2.4888  0.6297
   68MOL   H46435438   7.380   2.273   5.154  1.4629 -1.5105 -0.2584
   68MOL   H46535439   7.236   2.405   5.314  1.3566  0.9796  0.7413
   68MOL   H46635440   6.905   2.252   5.763  1.6505 -0.1599 -0.4301
   68MOL   H46735441   6.840   2.047   5.847 -0.1267  3.1870 -0.6405
   68MOL   H46835442   6.897   1.831   5.737 -0.7438 -0.8923 -0.7990
   68MOL   H46935443   7.051   1.839   5.537 -0.9719  0.1295  0.6831
   68MOL   C47035444   6.911   2.463   5.556 -0.2236 -0.0168 -0.0746
   68MOL   C47135445   6.842   2.439   5.422 -0.9969  0.3080 -0.3883
   68MOL   N47235446   6.694   2.439   5.426 -0.9363  0.2834  0.6447
   68MOL   C47335447   6.614   2.324   5.418  0.1052  0.7923 -0.0670
   68MOL   C47435448   6.478   2.365   5.431 -0.3779 -0.0308  0.2778
   68MOL   C47535449   6.376   2.269   5.421 -1.4056  0.6274 -0.1435
   68MOL   C47635450   6.410   2.132   5.413  0.7769 -0.2475  1.1812
   68MOL   C47735451   6.545   2.095   5.402 -0.3271  0.6417 -0.0057
   68MOL   C47835452   6.642   2.189   5.396  0.7292 -0.1110  0.1953
   68MOL   C47935453   6.477   2.507   5.456 -0.1864 -0.7715  0.7608
   68MOL   C48035454   6.611   2.551   5.449 -0.3793 -0.5851  0.3729
   68MOL   C48135455   6.638   2.689   5.472  0.0535 -0.6454 -0.4481
   68MOL   C48235456   6.529   2.779   5.491 -0.0731  0.3453  0.1066
   68MOL   C48335457   6.396   2.727   5.502 -0.6357 -0.6021 -0.1354
   68MOL   C48435458   6.371   2.590   5.473  0.0725 -0.4254  0.2156
   68MOL   H48535459   6.857   2.409   5.634 -2.1012  0.4643 -0.9935
   68MOL   H48635460   6.900   2.568   5.583  0.7447  0.1329 -0.2450
   68MOL   H48735461   6.880   2.342   5.391  0.5511  0.9238 -0.4400
   68MOL   H48835462   6.271   2.292   5.410 -2.0117 -2.3047 -0.9269
   68MOL   H48935463   6.333   2.056   5.412  0.6491 -0.1032 -1.1781
   68MOL   H49035464   6.567   1.990   5.391 -1.7219  0.2750  0.5758
   68MOL   H49135465   6.744   2.156   5.380  0.3188 -0.6900 -1.2351
   68MOL   H49235466   6.739   2.726   5.480 -0.0531 -0.2588 -0.8414
   68MOL   H49335467   6.549   2.884   5.505 -0.9332  0.7525 -1.5847
   68MOL   H49435468   6.315   2.796   5.522  0.1208  0.1770  0.2690
   68MOL   H49535469   6.271   2.551   5.469 -0.6414  1.3938  0.2495
   68MOL   C49635470   6.894   2.542   5.314  0.1654 -0.1818  0.0157
   68MOL   C49735471   6.821   2.562   5.177  0.4669  0.7717 -0.9337
   68MOL   N49835472   6.841   2.691   5.130 -0.4808 -0.7615 -0.2038
   68MOL   C49935473   6.955   2.748   5.073  0.0785 -0.2200 -0.3594
   68MOL   C50035474   6.926   2.881   5.044  0.4237 -0.1955  0.6142
   68MOL   C50135475   7.031   2.969   5.011  0.0804 -0.2375  0.4441
   68MOL   C50235476   7.163   2.923   4.995  0.5170 -0.0999  1.0934
   68MOL   C50335477   7.193   2.788   5.019  0.1962  0.8819 -0.1208
   68MOL   C50435478   7.087   2.695   5.061 -0.2927 -0.9752  0.0940
   68MOL   C50535479   6.787   2.901   5.064  0.1593  0.3256 -0.0768
   68MOL   C50635480   6.737   2.778   5.111 -0.4698  0.2600  0.1997
   68MOL   C50735481   6.599   2.766   5.134 -0.3963 -0.1339  0.2380
   68MOL   C50835482   6.511   2.875   5.122 -0.0711  0.2867  0.1816
   68MOL   C50935483   6.562   2.997   5.070  0.0733  0.8674  0.3383
   68MOL   C51035484   6.699   3.009   5.043 -0.3043 -0.0646 -0.0562
   68MOL   H51135485   6.904   2.640   5.360  0.4002 -0.7773  1.2443
   68MOL   H51235486   6.999   2.529   5.287  0.0822 -0.3445 -0.2317
   68MOL   H51335487   6.716   2.545   5.202  0.7006  0.0513 -0.4256
   68MOL   H51435488   7.008   3.070   4.980  3.3611 -0.2794 -2.4950
   68MOL   H51535489   7.231   2.997   4.954 -2.0506  1.8745  0.2620
   68MOL   H51635490   7.297   2.758   5.012 -0.2357 -0.3642 -1.1887
   68MOL   H51735491   7.116   2.595   5.088 -1.1627 -1.7118 -1.6680
   68MOL   H51835492   6.556   2.673   5.170 -1.7519  0.8237  1.1221
   68MOL   H51935493   6.406   2.862   5.144  0.2405  0.4834  1.8566
   68MOL   H52035494   6.488   3.076   5.059 -0.6937  0.6643  3.7104
   68MOL   H52135495   6.722   3.110   5.011  0.4399  0.3178  1.6278
   68MOL   H52235496   6.854   2.486   5.106  0.8927 -0.7631  0.8375
   69MOL     C135497   2.027   4.581   0.185  0.2305 -0.1579  0.1005
   69MOL     C235498   2.082   4.721   0.212  0.1259  0.6864  0.3788
   69MOL     N335499   2.006   4.831   0.172 -0.2414  0.3240 -0.0975
   69MOL     C435500   2.044   4.933   0.078  0.1934  0.9536  0.0849
   69MOL     C535501   1.946   5.032   0.077 -0.6565 -0.9482 -0.4873
   69MOL     C635502   1.976   5.150   8.219 -0.3971  0.0417 -0.1130
   69MOL     C735503   2.076   5.149   8.124  0.0104 -0.4563 -0.6575
   69MOL     C835504   2.165   5.043   8.126 -0.7063  0.5289 -0.0106
   69MOL     C935505   2.150   4.934   8.219  0.0150 -0.4004 -0.8686
   69MOL    C1035506   1.846   5.000   0.173  0.0164 -0.6187 -0.3595
   69MOL    C1135507   1.878   4.869   0.228 -0.7579  0.1750  0.8788
   69MOL    C1235508   1.785   4.808   0.316 -0.0856  0.1024 -0.5123
   69MOL    C1335509   1.671   4.877   0.352  0.3072 -0.0601 -0.0069
   69MOL    C1435510   1.642   5.003   0.305 -0.0953 -0.0865 -0.8560
   69MOL    C1535511   1.730   5.061   0.215 -0.6994 -0.1160 -0.8414
   69MOL    H1635512   2.000   4.568   0.080  0.9904 -0.8016 -0.0193
   69MOL    H1735513   1.932   4.556   0.232 -0.1959  1.3715  0.0662
   69MOL    H1835514   2.171   4.730   0.150 -1.0636  1.4765 -1.2544
   69MOL    H1935515   1.908   5.233   8.214  1.8103  1.7632 -2.3984
   69MOL    H2035516   2.102   5.243   8.075  0.7423  0.7689  2.0099
   69MOL    H2135517   2.251   5.046   8.061 -0.1826 -2.0858  0.5054
   69MOL    H2235518   2.228   4.860   8.209  0.0338 -0.4025 -0.6956
   69MOL    H2335519   1.813   4.713   0.359  0.3929  1.0122  1.1994
   69MOL    H2435520   1.603   4.824   0.417 -0.5427  1.8206  0.6725
   69MOL    H2535521   1.546   5.046   0.329 -0.1588  1.2024 -3.2714
   69MOL    H2635522   1.694   5.154   0.175 -1.1406  0.6912  1.3313
   69MOL    H2735523   2.096   4.500   0.211 -0.3354 -0.2694  1.2794
   69MOL    C2835524   2.114   4.737   0.354 -0.1956 -0.0214  0.5450
   69MOL    C2935525   2.243   4.654   0.410 -0.6796  0.3150  0.0123
   69MOL    N3035526   2.352   4.643   0.312  0.0246  0.6286  0.4594
   69MOL    C3135527   2.411   4.523   0.268 -0.7201 -0.8282 -0.2324
   69MOL    C3235528   2.505   4.558   0.169  0.6334  0.1723 -1.1134
   69MOL    C3335529   2.579   4.451   0.115 -0.0121  0.3309 -0.0703
   69MOL    C3435530   2.559   4.319   0.155  0.7616 -0.1486 -0.6477
   69MOL    C3535531   2.452   4.288   0.247  0.0859  0.1466  0.1524
   69MOL    C3635532   2.382   4.391   0.307 -0.1052 -0.5437  0.3092
   69MOL    C3735533   2.503   4.698   0.143  0.7373  0.1523 -0.1385
   69MOL    C3835534   2.414   4.745   0.239 -0.3820 -0.6448 -0.2804
   69MOL    C3935535   2.401   4.884   0.257 -0.6030  0.3415 -0.7543
   69MOL    C4035536   2.467   4.974   0.170 -0.2240 -0.1394  0.5121
   69MOL    C4135537   2.557   4.927   0.070  0.8311 -0.6063  0.5105
   69MOL    C4235538   2.576   4.792   0.063  0.0068 -0.7471  0.9383
   69MOL    H4335539   2.109   4.836   0.399  0.3740 -0.8286  2.4479
   69MOL    H4435540   2.033   4.691   0.410  0.9911 -2.4346  0.3478
   69MOL    H4535541   2.204   4.553   0.422  0.2281 -0.1617 -1.0465
   69MOL    H4635542   2.657   4.467   0.042  0.1500  0.4477  0.1275
   69MOL    H4735543   2.609   4.237   0.107  1.7601 -0.0936  0.2735
   69MOL    H4835544   2.432   4.187   0.279  1.0334 -0.2647 -0.5417
   69MOL    H4935545   2.314   4.364   0.387  1.5518 -1.0269  1.5914
   69MOL    H5035546   2.340   4.929   0.334 -0.2773  1.2398 -1.0064
   69MOL    H5135547   2.447   5.079   0.181 -0.5325 -0.3036  1.6072
   69MOL    H5235548   2.609   4.989   8.226 -0.1910 -1.2403 -0.8007
   69MOL    H5335549   2.650   4.749   8.225 -0.3385 -2.3746  1.5700
   69MOL    C5435550   2.300   4.693   0.547  0.6647  0.5095  0.2729
   69MOL    C5535551   2.200   4.687   0.666 -0.2711  0.1767  0.3544
   69MOL    N5635552   2.149   4.556   0.686  0.0099 -0.2620 -0.1129
   69MOL    C5735553   2.012   4.524   0.667  0.0379  0.6628 -0.2011
   69MOL    C5835554   1.999   4.387   0.716  0.6003 -0.9498 -0.4182
   69MOL    C5935555   1.867   4.332   0.707 -0.1105  0.5526 -0.2278
   69MOL    C6035556   1.756   4.404   0.667  0.4829 -0.5750 -0.5426
   69MOL    C6135557   1.768   4.538   0.631  0.2873  0.0916 -0.0826
   69MOL    C6235558   1.899   4.594   0.620  0.6058  0.2481 -0.1272
   69MOL    C6335559   2.118   4.345   0.779 -0.5192 -0.9260  0.3940
   69MOL    C6435560   2.216   4.448   0.754  0.5770  0.3650 -0.1909
   69MOL    C6535561   2.348   4.429   0.801  0.0850 -0.6093  0.2283
   69MOL    C6635562   2.383   4.311   0.869 -0.1253 -0.5656  0.6340
   69MOL    C6735563   2.295   4.211   0.890  0.6149  0.2031 -0.6406
   69MOL    C6835564   2.160   4.228   0.851 -0.4354 -0.0288  0.5847
   69MOL    H6935565   2.372   4.614   0.569  0.6996  0.4280 -0.1260
   69MOL    H7035566   2.357   4.785   0.545 -0.2973  1.1150  0.4913
   69MOL    H7135567   2.113   4.747   0.639 -0.3172 -0.1592 -0.2397
   69MOL    H7235568   1.858   4.226   0.725 -1.7755  0.5047 -1.2767
   69MOL    H7335569   1.664   4.351   0.647  1.0449 -1.6175 -0.4240
   69MOL    H7435570   1.681   4.586   0.590 -0.1014 -1.1732 -0.7745
   69MOL    H7535571   1.909   4.696   0.586  0.8646 -0.1416 -1.2328
   69MOL    H7635572   2.428   4.499   0.783 -0.1280  0.4736  3.3527
   69MOL    H7735573   2.488   4.298   0.888  0.7716  0.9156 -2.7929
   69MOL    H7835574   2.315   4.118   0.939 -1.8413 -1.1520 -2.0846
   69MOL    H7935575   2.090   4.149   0.873 -0.6626  0.5997  2.1584
   69MOL    C8035576   2.249   4.742   0.807  0.2274 -0.7742  0.1761
   69MOL    C8135577   2.271   4.892   0.814 -0.6854  0.3564 -0.0122
   69MOL    N8235578   2.168   4.969   0.741 -0.1171 -0.1714  0.0654
   69MOL    C8335579   2.197   5.058   0.636 -0.0199 -0.3416  1.0330
   69MOL    C8435580   2.079   5.080   0.563 -0.4246 -0.2166 -0.7381
   69MOL    C8535581   2.089   5.142   0.435  0.0833  0.5920  0.0416
   69MOL    C8635582   2.211   5.182   0.377 -0.1631  0.1682  0.9793
   69MOL    C8735583   2.325   5.165   0.454  0.0517  0.4332  0.4578
   69MOL    C8835584   2.319   5.101   0.579  0.1737 -0.1376  1.0918
   69MOL    C8935585   1.967   5.028   0.646 -0.0586 -0.5899 -0.3186
   69MOL    C9035586   2.028   4.967   0.761  0.1596 -0.4287 -0.4596
   69MOL    C9135587   1.950   4.906   0.864 -0.3056 -0.2132  0.3322
   69MOL    C9235588   1.809   4.911   0.853 -0.0694  0.4597  0.0828
   69MOL    C9335589   1.745   4.971   0.741 -0.9939 -0.3477 -0.6222
   69MOL    C9435590   1.825   5.024   0.635  0.3357  0.4032 -0.0751
   69MOL    H9535591   2.193   4.717   0.897 -1.4587  2.2240  0.0108
   69MOL    H9635592   2.340   4.687   0.832  1.5091  0.1883 -2.1718
   69MOL    H9735593   2.370   4.916   0.776  0.3833 -0.1753  2.3035
   69MOL    H9835594   2.007   5.161   0.368  0.9604 -0.8707 -1.4644
   69MOL    H9935595   2.220   5.226   0.279  0.3342  0.8849  1.3471
   69MOL   H10035596   2.420   5.187   0.408 -0.4031  1.7876  0.1318
   69MOL   H10135597   2.415   5.066   0.615 -0.0434 -1.0785  0.7776
   69MOL   H10235598   1.987   4.852   0.949 -0.5611 -1.0763 -0.1037
   69MOL   H10335599   1.755   4.866   0.935  0.4374 -0.0063  0.1610
   69MOL   H10435600   1.639   4.990   0.734 -1.0440  0.5989  2.0247
   69MOL   H10535601   1.772   5.077   0.557 -0.9153 -1.6444 -0.6482
   69MOL   C10635602   2.280   4.941   0.956  0.1299  0.1702  0.1782
   69MOL   C10735603   2.390   4.864   1.050 -0.1149  0.0138 -0.6673
   69MOL   N10835604   2.509   4.837   0.987 -1.1020  0.4235  0.0168
   69MOL   C10935605   2.577   4.717   0.995  0.1112  0.3074  0.1993
   69MOL   C11035606   2.699   4.723   0.922 -0.6842 -0.5402  0.1057
   69MOL   C11135607   2.782   4.606   0.912  0.1261  0.5717  0.5657
   69MOL   C11235608   2.740   4.487   0.977  0.1583 -0.2543 -0.6304
   69MOL   C11335609   2.625   4.482   1.058 -0.6866  0.4174 -0.5007
   69MOL   C11435610   2.553   4.604   1.077  0.1481 -0.0301  0.3395
   69MOL   C11535611   2.708   4.857   0.866  0.0765  0.1743 -0.3150
   69MOL   C11635612   2.599   4.928   0.918 -0.5732  0.4126 -0.0470
   69MOL   C11735613   2.590   5.066   0.886  0.3258  0.0151  0.0426
   69MOL   C11835614   2.689   5.132   0.808 -0.4170 -0.9270  0.3706
   69MOL   C11935615   2.794   5.056   0.755  0.3737 -0.4531  0.2778
   69MOL   C12035616   2.805   4.919   0.783 -0.2109 -0.0621  0.3199
   69MOL   H12135617   2.307   5.046   0.963  0.4085 -0.0016  1.6950
   69MOL   H12235618   2.181   4.941   1.001  0.0560  0.5274  0.0168
   69MOL   H12335619   2.345   4.768   1.076  2.0427 -0.3524  1.8460
   69MOL   H12435620   2.877   4.613   0.863  0.1202 -2.0316  0.1156
   69MOL   H12535621   2.798   4.396   0.968  0.2853 -0.3393  0.9183
   69MOL   H12635622   2.609   4.394   1.118  1.9870  1.0915  1.2449
   69MOL   H12735623   2.472   4.600   1.148  1.1837  0.4628  1.5654
   69MOL   H12835624   2.504   5.125   0.914  1.3236  1.2675  0.5045
   69MOL   H12935625   2.684   5.237   0.783  2.6495 -0.7162  0.4434
   69MOL   H13035626   2.871   5.107   0.699 -1.5027  2.2402  0.0102
   69MOL   H13135627   2.889   4.864   0.742 -0.9407 -1.6725  0.9684
   69MOL   C13235628   2.412   4.928   1.189  0.2611 -0.5106  0.3967
   69MOL   C13335629   2.281   4.963   1.271  0.6211 -0.2671  0.4902
   69MOL   N13435630   2.195   4.853   1.292 -0.2551  0.0986 -0.3712
   69MOL   C13535631   2.055   4.862   1.273 -0.4835 -0.0606 -0.0562
   69MOL   C13635632   1.984   4.745   1.313  0.3851 -0.1326  0.4791
   69MOL   C13735633   1.843   4.742   1.297  0.2361 -0.7275 -0.0457
   69MOL   C13835634   1.775   4.856   1.251  0.2162 -0.3696 -0.3699
   69MOL   C13935635   1.849   4.973   1.212  0.5997 -0.6144 -0.3306
   69MOL   C14035636   1.988   4.973   1.218  0.5500 -0.3684 -0.5069
   69MOL   C14135637   2.091   4.657   1.360  0.6239 -1.3028  0.4085
   69MOL   C14235638   2.215   4.724   1.344 -0.0462  0.4730  0.4402
   69MOL   C14335639   2.333   4.667   1.390 -0.4906 -0.5214 -0.2194
   69MOL   C14435640   2.336   4.537   1.448 -0.1036 -0.2483 -0.3151
   69MOL   C14535641   2.213   4.465   1.459 -0.8191 -0.0832 -0.1011
   69MOL   C14635642   2.100   4.530   1.420 -0.1564 -0.1910  0.1518
   69MOL   H14735643   2.464   4.852   1.247  0.2660 -0.4295  0.4983
   69MOL   H14835644   2.469   5.021   1.185 -0.2517 -0.1464  1.2835
   69MOL   H14935645   2.232   5.037   1.207 -1.6973 -2.2182 -0.0921
   69MOL   H15035646   1.796   4.648   1.319 -0.8836 -0.5260 -1.5420
   69MOL   H15135647   1.669   4.862   1.227 -0.2232  2.5681  2.0658
   69MOL   H15235648   1.802   5.061   1.169 -2.6282 -1.3828  1.4710
   69MOL   H15335649   2.035   5.061   1.175  1.2557 -0.1152  0.7477
   69MOL   H15435650   2.433   4.705   1.375 -0.1530 -1.2973  0.0266
   69MOL   H15535651   2.430   4.492   1.477  0.1982  0.0659 -0.7890
   69MOL   H15635652   2.210   4.363   1.494 -3.2074  0.2943  0.8914
   69MOL   H15735653   2.011   4.469   1.427 -0.7152  0.5395 -0.5503
   69MOL   C15835654   2.309   5.043   1.405  0.1591 -0.5185  0.3923
   69MOL   C15935655   2.332   5.194   1.375 -0.0870 -0.5388 -0.3683
   69MOL   N16035656   2.216   5.257   1.329  0.2055 -0.0123 -0.5327
   69MOL   C16135657   2.189   5.303   1.194 -0.3478  0.5503 -0.1555
   69MOL   C16235658   2.053   5.345   1.179  0.2360 -0.6423 -0.2725
   69MOL   C16335659   2.007   5.393   1.055 -0.0069 -0.2476 -0.0472
   69MOL   C16435660   2.091   5.387   0.939  1.0131  0.5664 -0.3719
   69MOL   C16535661   2.223   5.345   0.955 -0.5956 -0.2619  0.0264
   69MOL   C16635662   2.274   5.301   1.081  0.3781 -0.8590  0.3775
   69MOL   C16735663   1.992   5.326   1.303 -0.4156 -0.5157  0.2813
   69MOL   C16835664   2.088   5.267   1.391 -0.1170  0.5957  0.7525
   69MOL   C16935665   2.051   5.233   1.524  0.5715 -0.5335  0.2544
   69MOL   C17035666   1.922   5.244   1.573 -0.0248 -0.1324 -0.2223
   69MOL   C17135667   1.828   5.302   1.486  0.2060  0.4973  0.8480
   69MOL   C17235668   1.860   5.342   1.355 -0.3801  0.6919  0.0536
   69MOL   H17335669   2.227   5.031   1.476 -0.2545  1.2824  0.2404
   69MOL   H17435670   2.400   4.999   1.445  1.1558 -1.0507 -2.3502
   69MOL   H17535671   2.401   5.200   1.290 -0.2245 -1.2076 -0.5286
   69MOL   H17635672   1.905   5.422   1.034  0.3064 -0.1105 -1.4162
   69MOL   H17735673   2.063   5.417   0.839 -1.3429  0.4868  0.2487
   69MOL   H17835674   2.297   5.364   0.878 -0.1378  0.6883  0.6873
   69MOL   H17935675   2.378   5.273   1.095  0.2207 -1.2218  0.8032
   69MOL   H18035676   2.131   5.187   1.580  1.6948  1.4719  0.3415
   69MOL   H18135677   1.901   5.221   1.677  3.1014 -0.2944  0.4305
   69MOL   H18235678   1.726   5.318   1.520 -0.2839 -0.9132  0.0798
   69MOL   H18335679   1.788   5.392   1.291 -0.3022  0.7803  0.0347
   69MOL   C18435680   2.398   5.272   1.492  0.4320  0.1594 -0.7723
   69MOL   C18535681   2.535   5.215   1.541 -0.5117 -0.4827 -0.3651
   69MOL   N18635682   2.624   5.169   1.428 -0.0773 -0.7543 -0.7152
   69MOL   C18735683   2.684   5.046   1.423 -0.2569  0.7141 -0.3956
   69MOL   C18835684   2.761   5.027   1.312  0.4769  0.6972 -0.2351
   69MOL   C18935685   2.832   4.912   1.298 -1.0454 -0.4108 -0.5868
   69MOL   C19035686   2.818   4.797   1.383  0.6431 -0.1451 -0.5090
   69MOL   C19135687   2.739   4.813   1.500  0.3381  0.5408 -0.0595
   69MOL   C19235688   2.680   4.942   1.523  0.6447  0.5149 -0.3148
   69MOL   C19335689   2.749   5.151   1.234 -0.6295  0.2217  0.3063
   69MOL   C19435690   2.656   5.234   1.302  0.6052 -0.1459 -0.4382
   69MOL   C19535691   2.626   5.362   1.253  0.0877 -0.2160 -0.3454
   69MOL   C19635692   2.674   5.411   1.133 -0.9580 -0.3293 -0.6741
   69MOL   C19735693   2.770   5.333   1.068  0.0129 -0.5412 -0.5814
   69MOL   C19835694   2.809   5.204   1.114  0.2715  0.9790 -0.6095
   69MOL   H19935695   2.414   5.377   1.466  0.8588 -0.0617 -1.4205
   69MOL   H20035696   2.335   5.276   1.580  0.9570 -1.4385 -0.3206
   69MOL   H20135697   2.510   5.123   1.594  0.0150 -0.6913 -0.4662
   69MOL   H20235698   2.894   4.903   1.210  0.9939  0.2742  0.7684
   69MOL   H20335699   2.869   4.704   1.367  1.0167  0.2351 -1.5914
   69MOL   H20435700   2.726   4.733   1.571  2.4656  2.1385  2.2353
   69MOL   H20535701   2.624   4.959   1.614  0.5376 -3.4268  0.4308
   69MOL   H20635702   2.549   5.415   1.307 -0.7533 -0.6633 -1.1038
   69MOL   H20735703   2.658   5.515   1.107 -0.2191  0.1953  0.9014
   69MOL   H20835704   2.803   5.365   0.970 -0.5976  1.0585 -0.2746
   69MOL   H20935705   2.878   5.147   1.053  0.3441  2.2056 -1.7062
   69MOL   C21035706   2.611   5.320   1.634 -0.3364 -0.3626 -0.5116
   69MOL   C21135707   2.525   5.357   1.756 -0.8268  0.4475  0.7581
   69MOL   N21235708   2.466   5.245   1.830  0.3302  0.0529  0.1525
   69MOL   C21335709   2.330   5.229   1.857 -0.4232 -0.9569  0.2815
   69MOL   C21435710   2.304   5.091   1.899 -1.0243 -0.3401 -0.5171
   69MOL   C21535711   2.169   5.056   1.916 -0.2586  0.8661  0.5426
   69MOL   C21635712   2.066   5.152   1.914 -0.7505  0.1223  0.2038
   69MOL   C21735713   2.100   5.286   1.889 -0.5530 -0.2916  0.1660
   69MOL   C21835714   2.230   5.323   1.862  0.4038 -0.7551  0.1802
   69MOL   C21935715   2.428   5.021   1.912  0.0110  0.1573  0.8915
   69MOL   C22035716   2.526   5.118   1.867 -0.5098 -0.2298 -0.1671
   69MOL   C22135717   2.664   5.080   1.872 -0.3349 -0.0574  0.9288
   69MOL   C22235718   2.695   4.946   1.902  0.0725  0.0862  0.6432
   69MOL   C22335719   2.596   4.853   1.951  0.0324 -0.3520  0.4010
   69MOL   C22435720   2.464   4.892   1.956  0.1771  0.0362  0.1159
   69MOL   H22535721   2.707   5.284   1.670  1.5473  2.3364 -2.6283
   69MOL   H22635722   2.624   5.409   1.573  1.4586  1.2361  2.0769
   69MOL   H22735723   2.441   5.419   1.724 -1.7094 -1.2167 -0.2289
   69MOL   H22835724   2.142   4.953   1.937  1.3936 -0.0340 -1.5954
   69MOL   H22935725   1.965   5.122   1.935 -0.4545 -0.9471  0.1470
   69MOL   H23035726   2.017   5.355   1.887  1.7214  2.6136  1.7051
   69MOL   H23135727   2.245   5.429   1.849 -4.1949 -0.2919 -2.2123
   69MOL   H23235728   2.742   5.145   1.833  0.0222 -0.7504  0.4828
   69MOL   H23335729   2.802   4.929   1.913  0.3115  1.1357 -0.0172
   69MOL   H23435730   2.635   4.756   1.979  1.3264 -0.2400 -0.9428
   69MOL   H23535731   2.386   4.822   1.980 -1.1592  1.2073 -0.7503
   69MOL   C23635732   2.602   5.445   1.856  0.0695 -0.2955 -0.2515
   69MOL   C23735733   2.626   5.588   1.808  0.0188  0.8964  0.0969
   69MOL   N23835734   2.504   5.671   1.815 -0.0549 -0.4141  0.2531
   69MOL   C23935735   2.433   5.715   1.704  0.0096 -0.2464  0.2612
   69MOL   C24035736   2.336   5.811   1.752  0.2844  0.0176  0.0002
   69MOL   C24135737   2.266   5.886   1.657  0.9289 -0.5652 -0.5873
   69MOL   C24235738   2.269   5.859   1.523 -0.2563 -0.6532 -0.3775
   69MOL   C24335739   2.373   5.772   1.474  0.0471  0.0514  0.0790
   69MOL   C24435740   2.456   5.702   1.566  0.0401  0.1272 -0.1485
   69MOL   C24535741   2.339   5.808   1.899  0.6956 -0.1600 -0.3903
   69MOL   C24635742   2.431   5.708   1.929 -0.1104  0.5775 -0.3555
   69MOL   C24735743   2.458   5.673   2.065  0.2982  0.0145  0.6718
   69MOL   C24835744   2.382   5.725   2.164 -0.0690 -0.2431 -0.4428
   69MOL   C24935745   2.296   5.833   2.133  0.1668 -0.4087 -0.5052
   69MOL   C25035746   2.272   5.877   2.009  0.4115  0.2998 -0.0607
   69MOL   H25135747   2.544   5.449   1.949 -1.3178 -1.2965 -1.0540
   69MOL   H25235748   2.694   5.391   1.877 -0.0636  0.2331  1.7954
   69MOL   H25335749   2.652   5.573   1.704  2.1097 -1.3659  0.8892
   69MOL   H25435750   2.200   5.959   1.701  1.7071  0.1819 -0.6417
   69MOL   H25535751   2.200   5.916   1.462 -0.7944 -0.5479  0.3272
   69MOL   H25635752   2.387   5.752   1.369  0.3557  0.3077  0.0703
   69MOL   H25735753   2.533   5.636   1.529 -0.9141 -0.9248 -0.2819
   69MOL   H25835754   2.530   5.599   2.097 -2.0455 -2.5810  0.0943
   69MOL   H25935755   2.391   5.690   2.266 -0.6725 -0.5213 -0.4814
   69MOL   H26035756   2.246   5.889   2.210  0.4403  0.0979 -0.6898
   69MOL   H26135757   2.201   5.959   2.002  0.3684  0.3145  0.5282
   69MOL   C26235758   2.746   5.658   1.885  0.1057 -0.3995  0.5597
   69MOL   C26335759   2.891   5.618   1.840 -0.0973 -0.0003 -0.8653
   69MOL   N26435760   2.900   5.571   1.696 -0.1394  0.3730 -0.4317
   69MOL   C26535761   2.945   5.440   1.655 -0.5268  0.2206  0.1903
   69MOL   C26635762   2.935   5.434   1.515 -0.4642  0.4005 -0.4023
   69MOL   C26735763   2.979   5.312   1.455  0.5474 -0.7184  0.1732
   69MOL   C26835764   3.017   5.198   1.519 -0.0671  0.2389 -0.5809
   69MOL   C26935765   3.020   5.202   1.662  0.2036 -0.0148  0.7018
   69MOL   C27035766   2.985   5.320   1.725  0.1048 -0.1449 -0.4853
   69MOL   C27135767   2.899   5.564   1.468  0.5793 -0.7209  0.4722
   69MOL   C27235768   2.868   5.644   1.582  0.9505  0.2780  0.1156
   69MOL   C27335769   2.813   5.779   1.560  0.6520 -0.2017  0.1345
   69MOL   C27435770   2.779   5.813   1.431  0.0990 -0.1680 -0.0880
   69MOL   C27535771   2.809   5.735   1.325 -0.2248  0.3902 -0.1039
   69MOL   C27635772   2.864   5.609   1.340 -0.4166 -0.1878 -0.2802
   69MOL   H27735773   2.746   5.765   1.865  1.2657 -0.1302  1.8399
   69MOL   H27835774   2.732   5.652   1.993 -1.2025  1.3033  0.4950
   69MOL   H27935775   2.920   5.531   1.899  0.2331  0.3438 -0.5204
   69MOL   H28035776   2.977   5.318   1.347 -1.0331  1.8250  0.2944
   69MOL   H28135777   3.028   5.104   1.467 -1.1875 -0.7265  0.8644
   69MOL   H28235778   3.054   5.123   1.727  3.7323  1.6964  1.0615
   69MOL   H28335779   2.988   5.317   1.833 -0.1439 -1.0568 -0.4950
   69MOL   H28435780   2.806   5.841   1.649  1.1706 -2.6662  1.9615
   69MOL   H28535781   2.740   5.913   1.417  0.1593 -0.4038 -2.0272
   69MOL   H28635782   2.790   5.768   1.224  1.2214 -0.2455 -0.6115
   69MOL   H28735783   2.885   5.541   1.259 -1.0579 -1.9919  1.0438
   69MOL   C28835784   2.995   5.730   1.873  0.0665 -0.1209 -0.1475
   69MOL   C28935785   3.004   5.775   2.024 -0.0367 -1.3512  0.2939
   69MOL   N29035786   3.043   5.664   2.104  0.2313 -0.6842 -0.3278
   69MOL   C29135787   2.959   5.613   2.208 -0.0707  0.1808 -0.0217
   69MOL   C29235788   3.033   5.521   2.283  0.7872 -0.6707 -0.1598
   69MOL   C29335789   2.973   5.456   2.392 -0.3232  0.2231 -0.3919
   69MOL   C29435790   2.844   5.492   2.436 -0.6167  0.1309  0.2854
   69MOL   C29535791   2.777   5.591   2.362  0.5588  0.8205 -0.0919
   69MOL   C29635792   2.829   5.649   2.248  0.6547  0.0094  0.0828
   69MOL   C29735793   3.158   5.500   2.215  0.8124 -0.5106 -0.1302
   69MOL   C29835794   3.164   5.593   2.106  0.2018  0.1144  0.2700
   69MOL   C29935795   3.284   5.603   2.028  0.2459 -0.3811  0.1330
   69MOL   C30035796   3.396   5.518   2.047  0.1195 -0.2933 -0.9087
   69MOL   C30135797   3.393   5.435   2.159 -0.1810  0.0396  0.4722
   69MOL   C30235798   3.272   5.413   2.230  0.2170  0.1626 -0.3108
   69MOL   H30335799   3.093   5.694   1.843  0.3439 -0.8922  1.6400
   69MOL   H30435800   2.957   5.807   1.805  1.7580  0.1286 -0.8198
   69MOL   H30535801   2.906   5.806   2.061 -0.2075 -0.4202 -0.9077
   69MOL   H30635802   3.030   5.396   2.462 -1.3700  0.2555  0.4970
   69MOL   H30735803   2.793   5.453   2.523 -0.9986 -1.0860 -0.4779
   69MOL   H30835804   2.680   5.631   2.386  1.0915  3.1263 -1.6559
   69MOL   H30935805   2.776   5.723   2.191 -0.5524 -2.2173 -1.7860
   69MOL   H31035806   3.291   5.678   1.950  0.0290  0.0373  0.5123
   69MOL   H31135807   3.484   5.537   1.987 -0.0458  1.3667 -0.6378
   69MOL   H31235808   3.473   5.367   2.184  1.2023  0.9106 -1.3927
   69MOL   H31335809   3.273   5.343   2.312  0.1388  0.9626  0.3808
   69MOL   C31435810   3.095   5.894   2.042 -0.0701 -0.6613 -0.3142
   69MOL   C31535811   3.057   6.020   1.951  0.6778 -0.1561 -0.2133
   69MOL   N31635812   2.912   6.044   1.936  0.7667  0.4695 -0.3781
   69MOL   C31735813   2.854   6.068   1.810  0.0465 -0.6004  0.4946
   69MOL   C31835814   2.713   6.081   1.822  0.4138  1.3975 -0.4610
   69MOL   C31935815   2.631   6.098   1.705 -0.0557 -0.1680 -0.4027
   69MOL   C32035816   2.689   6.104   1.575 -0.7313 -0.0128 -0.4913
   69MOL   C32135817   2.827   6.102   1.565 -0.5488 -0.3061  0.1831
   69MOL   C32235818   2.909   6.078   1.678  0.1731 -0.5978  0.3309
   69MOL   C32335819   2.686   6.081   1.966  0.4601 -0.6763 -0.2218
   69MOL   C32435820   2.810   6.060   2.032  0.0104  0.4190  0.3306
   69MOL   C32535821   2.811   6.043   2.176 -0.2986 -1.0363 -0.7662
   69MOL   C32635822   2.686   6.040   2.242  0.6942 -0.4279  0.6541
   69MOL   C32735823   2.570   6.061   2.172 -0.7256 -0.0962 -0.0598
   69MOL   C32835824   2.572   6.086   2.039 -0.5318 -0.6373 -0.7473
   69MOL   H32935825   3.097   5.917   2.149  0.4800 -1.2869 -0.1829
   69MOL   H33035826   3.197   5.879   2.006  0.3482  2.9252 -0.7773
   69MOL   H33135827   3.086   5.976   1.855  0.3826  0.9137 -0.7929
   69MOL   H33235828   2.524   6.100   1.723 -0.6652 -0.0201 -3.6782
   69MOL   H33335829   2.623   6.117   1.491 -0.9539 -0.3130 -0.3635
   69MOL   H33435830   2.860   6.118   1.464 -0.4971  2.1390  0.5487
   69MOL   H33535831   3.014   6.069   1.655  0.1487 -0.9314  0.3575
   69MOL   H33635832   2.899   6.013   2.231  0.9665  2.5692 -0.7063
   69MOL   H33735833   2.687   6.016   2.347  0.4890  0.2697  0.8149
   69MOL   H33835834   2.477   6.065   2.227 -1.3441 -0.0992 -1.0769
   69MOL   H33935835   2.476   6.103   1.993 -0.1324  1.1328 -0.9416
   69MOL   C34035836   3.121   6.161   1.973  0.4830  0.0485  0.1362
   69MOL   C34135837   3.257   6.189   1.909 -0.5572 -0.3738 -0.2632
   69MOL   N34235838   3.269   6.145   1.771 -0.5220 -0.4137  0.0551
   69MOL   C34335839   3.342   6.038   1.729 -0.1287 -0.1802  0.0110
   69MOL   C34435840   3.345   6.042   1.580  0.0725  0.3044 -1.7933
   69MOL   C34535841   3.414   5.945   1.509  0.7731  0.5353 -0.1184
   69MOL   C34635842   3.489   5.851   1.581  0.1919  0.3000 -0.2597
   69MOL   C34735843   3.491   5.854   1.722  0.4366 -0.0054 -0.0198
   69MOL   C34835844   3.420   5.944   1.795  0.6259 -0.4594 -0.2076
   69MOL   C34935845   3.265   6.153   1.537 -0.2030  0.4200  0.3706
   69MOL   C35035846   3.212   6.211   1.659  0.5465 -0.0914  0.1875
   69MOL   C35135847   3.125   6.328   1.650  0.7152 -0.0772  0.1004
   69MOL   C35235848   3.087   6.371   1.522  0.5240  0.3464 -0.4275
   69MOL   C35335849   3.134   6.312   1.404  0.9294  0.0471  0.7259
   69MOL   C35435850   3.224   6.210   1.411 -0.2940 -0.1466 -0.0041
   69MOL   H35535851   3.052   6.234   1.932  1.9768  1.6412  0.3805
   69MOL   H35635852   3.133   6.173   2.080 -0.1295  1.2386  0.0752
   69MOL   H35735853   3.332   6.128   1.959 -0.4458 -1.8240 -2.1716
   69MOL   H35835854   3.421   5.944   1.401  0.4901 -3.0438 -0.1526
   69MOL   H35935855   3.538   5.773   1.525 -2.3213 -0.7466 -1.0751
   69MOL   H36035856   3.552   5.775   1.764  3.8450  0.5188 -3.6506
   69MOL   H36135857   3.429   5.942   1.903  1.0318  1.9664 -0.1722
   69MOL   H36235858   3.086   6.388   1.731  0.2052  0.5963 -0.6379
   69MOL   H36335859   3.008   6.445   1.515  0.4328  0.5275  1.9376
   69MOL   H36435860   3.092   6.340   1.308  1.0141  0.5298  0.8302
   69MOL   H36535861   3.268   6.169   1.321 -1.9574 -2.3487  0.1620
   69MOL   C36635862   3.294   6.341   1.935 -0.0407 -0.1846 -0.3340
   69MOL   C36735863   3.428   6.388   1.875 -0.0064 -0.6031  0.3217
   69MOL   N36835864   3.433   6.536   1.871 -0.5591 -0.1457  0.1626
   69MOL   C36935865   3.403   6.617   1.759 -0.2957 -0.0327  0.4204
   69MOL   C37035866   3.420   6.754   1.795  0.0096 -0.9868  0.1937
   69MOL   C37135867   3.390   6.856   1.696 -0.0992  0.8382 -0.1061
   69MOL   C37235868   3.377   6.817   1.558  0.0020 -0.3760  0.2376
   69MOL   C37335869   3.364   6.684   1.526  0.0491 -0.1104  0.0632
   69MOL   C37435870   3.365   6.585   1.625 -0.1130  0.8994 -0.5946
   69MOL   C37535871   3.446   6.763   1.935 -0.3484  0.1798 -0.2578
   69MOL   C37635872   3.453   6.623   1.978  0.0441  0.1667  0.5823
   69MOL   C37735873   3.469   6.589   2.114  0.1310 -0.1663 -0.6150
   69MOL   C37835874   3.495   6.691   2.202 -0.0225  0.4330 -0.3890
   69MOL   C37935875   3.493   6.826   2.160 -0.3588  0.8232  0.3076
   69MOL   C38035876   3.462   6.872   2.031  0.2055  1.1500 -0.3016
   69MOL   H38135877   3.217   6.403   1.889  0.0798 -1.6966 -2.6828
   69MOL   H38235878   3.273   6.367   2.039  0.7289 -1.3860  0.1392
   69MOL   H38335879   3.431   6.350   1.772  0.1294  1.3081 -0.3899
   69MOL   H38435880   3.393   6.961   1.722  0.7503  0.8626 -0.2837
   69MOL   H38535881   3.374   6.889   1.478 -1.7670 -0.4992  0.1731
   69MOL   H38635882   3.347   6.657   1.422 -1.6586 -2.3478  0.8840
   69MOL   H38735883   3.351   6.485   1.587 -1.4251  0.7562  0.2289
   69MOL   H38835884   3.479   6.488   2.151  0.2775  0.3407  0.7532
   69MOL   H38935885   3.515   6.665   2.305  0.5281  2.0448 -0.0749
   69MOL   H39035886   3.501   6.901   2.237  0.8670 -0.1403  1.1501
   69MOL   H39135887   3.466   6.976   2.003 -2.2213  1.0048 -1.2907
   69MOL   C39235888   3.549   6.319   1.942 -0.1831  0.3851  0.2443
   69MOL   C39335889   3.696   6.370   1.942  0.0751 -0.4719 -0.0529
   69MOL   N39435890   3.770   6.295   2.041  0.1396 -0.1518 -0.3324
   69MOL   C39535891   3.840   6.357   2.143 -0.6159 -0.0673  0.6122
   69MOL   C39635892   3.897   6.260   2.233 -0.3029  0.4136  0.3099
   69MOL   C39735893   3.979   6.302   2.341 -0.1434 -0.5180 -0.1817
   69MOL   C39835894   3.994   6.443   2.360  0.1556 -0.4026 -0.5506
   69MOL   C39935895   3.942   6.535   2.270  0.3429  0.0909  0.4189
   69MOL   C40035896   3.857   6.496   2.168  0.0307 -0.5853 -0.0496
   69MOL   C40135897   3.852   6.131   2.183 -0.6518  0.7356 -0.9613
   69MOL   C40235898   3.774   6.157   2.065  0.0403  0.4091 -0.4453
   69MOL   C40335899   3.724   6.043   1.995 -0.2785 -0.2888 -0.0599
   69MOL   C40435900   3.742   5.915   2.044  1.0375 -0.5154  0.0477
   69MOL   C40535901   3.814   5.893   2.162  0.0645  0.2706 -0.0708
   69MOL   C40635902   3.873   5.998   2.234 -0.1495 -0.0397 -0.0011
   69MOL   H40735903   3.523   6.316   2.048 -0.6669  1.4320  0.1647
   69MOL   H40835904   3.547   6.216   1.908 -0.9871  1.1383 -2.1243
   69MOL   H40935905   3.692   6.478   1.957 -0.0307 -0.4058 -0.5480
   69MOL   H41035906   4.020   6.232   2.411  0.2940  0.4160  0.5101
   69MOL   H41135907   4.052   6.478   2.444 -0.9420  1.1740 -0.4355
   69MOL   H41235908   3.949   6.638   2.300  3.8204 -0.0531  0.3442
   69MOL   H41335909   3.819   6.571   2.100  1.6295  0.2955  0.0109
   69MOL   H41435910   3.667   6.046   1.904  2.3639 -0.1184 -1.7438
   69MOL   H41535911   3.705   5.826   1.995 -0.8791 -0.3663  1.1660
   69MOL   H41635912   3.820   5.791   2.199  0.0428  0.6435  0.9901
   69MOL   H41735913   3.936   5.985   2.321 -0.9723 -0.9581  0.4660
   69MOL   C41835914   3.753   6.366   1.800  0.3723 -0.1812 -0.3255
   69MOL   C41935915   3.878   6.282   1.759  0.1338 -0.0184  0.9896
   69MOL   N42035916   3.891   6.265   1.610  1.2272  0.3019 -0.1429
   69MOL   C42135917   3.881   6.141   1.540  1.1471  0.6414 -0.4806
   69MOL   C42235918   3.927   6.157   1.411 -0.0558 -0.6713  0.2803
   69MOL   C42335919   3.921   6.054   1.318 -0.1021  0.3695  0.3993
   69MOL   C42435920   3.878   5.928   1.359 -0.0456  0.0283  0.0403
   69MOL   C42535921   3.826   5.908   1.490 -0.1217 -0.1180 -0.3170
   69MOL   C42635922   3.826   6.019   1.583 -0.6827  0.2587  0.3891
   69MOL   C42735923   3.961   6.289   1.397  0.0589 -0.6753 -0.0019
   69MOL   C42835924   3.929   6.359   1.519  0.1039  0.1690 -0.3932
   69MOL   C42935925   3.942   6.501   1.527 -0.1308 -0.7149 -1.0003
   69MOL   C43035926   4.005   6.572   1.424 -0.1407  0.0339  0.3014
   69MOL   C43135927   4.046   6.505   1.306 -0.3841 -0.3554 -0.1356
   69MOL   C43235928   4.025   6.363   1.299  0.6344  0.2192 -0.2319
   69MOL   H43335929   3.689   6.295   1.748  2.0767 -0.4422 -2.1132
   69MOL   H43435930   3.746   6.456   1.739  0.7983 -0.3465 -0.6135
   69MOL   H43535931   3.870   6.182   1.800  0.1887  0.5946  2.5183
   69MOL   H43635932   3.958   6.075   1.219 -0.5916 -0.3764  0.0558
   69MOL   H43735933   3.872   5.854   1.281  1.2716 -0.6451  0.5721
   69MOL   H43835934   3.779   5.816   1.520 -1.2406  1.0759  1.7394
   69MOL   H43935935   3.786   6.008   1.683  1.4783 -0.1828  1.2280
   69MOL   H44035936   3.922   6.564   1.613 -1.6371 -1.7408 -0.5871
   69MOL   H44135937   4.016   6.679   1.438  1.0232  0.0388 -0.5992
   69MOL   H44235938   4.084   6.559   1.220 -2.3558 -0.0391 -0.8316
   69MOL   H44335939   4.050   6.311   1.208  0.1980  0.7931 -0.6860
   69MOL   C44435940   4.017   6.328   1.826 -0.5603 -0.2174  0.4619
   69MOL   C44535941   4.115   6.211   1.857 -0.1065  0.0424  0.1687
   69MOL   N44635942   4.155   6.123   1.743 -0.4207 -0.1961  0.4939
   69MOL   C44735943   4.134   5.987   1.729 -0.1986 -0.5526  0.2813
   69MOL   C44835944   4.193   5.943   1.603 -0.3959 -0.5507 -0.0189
   69MOL   C44935945   4.186   5.807   1.577  0.5353  0.1751  0.2793
   69MOL   C45035946   4.118   5.717   1.662 -0.4696 -0.1128 -0.4014
   69MOL   C45135947   4.048   5.761   1.775  0.3226  0.0358 -0.0827
   69MOL   C45235948   4.072   5.896   1.815  0.3428  0.1190 -0.1224
   69MOL   C45335949   4.239   6.056   1.534 -0.1860  0.0109 -0.3253
   69MOL   C45435950   4.221   6.162   1.625  0.6005  0.0310  0.3085
   69MOL   C45535951   4.289   6.282   1.594 -0.1744 -0.0262 -0.0650
   69MOL   C45635952   4.347   6.301   1.466  0.2355  0.3404 -0.1311
   69MOL   C45735953   4.354   6.198   1.372  0.0012  0.6979 -0.0536
   69MOL   C45835954   4.299   6.072   1.410  0.6498 -0.4668 -0.2510
   69MOL   H45935955   4.066   6.416   1.782  1.4453 -1.7314 -0.4247
   69MOL   H46035956   4.000   6.377   1.921 -0.5024 -1.3959  1.0822
   69MOL   H46135957   4.054   6.146   1.920  0.7435 -1.5064 -0.5793
   69MOL   H46235958   4.224   5.769   1.483  0.4280 -1.6303  0.9422
   69MOL   H46335959   4.106   5.612   1.644 -3.7728 -0.3095  2.4774
   69MOL   H46435960   3.992   5.693   1.837  0.0628  1.6219  1.4534
   69MOL   H46535961   4.037   5.917   1.915  4.1905  1.3278  1.0329
   69MOL   H46635962   4.294   6.366   1.661  0.3075 -0.3613  0.3243
   69MOL   H46735963   4.377   6.402   1.444 -0.7808  0.7473  0.3027
   69MOL   H46835964   4.394   6.215   1.274  1.2203  1.0066  0.4868
   69MOL   H46935965   4.302   5.989   1.340 -0.1389 -1.2998  0.6878
   69MOL   C47035966   4.234   6.265   1.948  0.8045  0.3794  0.2152
   69MOL   C47135967   4.301   6.154   2.024 -0.6289  0.0987  0.1651
   69MOL   N47235968   4.428   6.201   2.078 -0.2279 -0.1294 -0.3344
   69MOL   C47335969   4.559   6.165   2.035  0.0894  0.0952 -0.0277
   69MOL   C47435970   4.657   6.221   2.123  0.8229  0.3722  0.2525
   69MOL   C47535971   4.796   6.195   2.100  0.1785  0.1245 -0.3198
   69MOL   C47635972   4.834   6.127   1.982 -0.4691 -0.3100  0.1846
   69MOL   C47735973   4.734   6.077   1.899 -0.7070  0.1033  0.3336
   69MOL   C47835974   4.600   6.088   1.931  0.0706 -0.3004  0.0791
   69MOL   C47935975   4.583   6.292   2.221  0.2628  0.4109 -0.4970
   69MOL   C48035976   4.439   6.289   2.192 -0.0752  0.5340 -0.5434
   69MOL   C48135977   4.348   6.355   2.273  0.0784 -0.5833 -0.1119
   69MOL   C48235978   4.392   6.417   2.390 -0.1696 -0.2771  0.0046
   69MOL   C48335979   4.528   6.411   2.432  0.5253  0.1261  0.0489
   69MOL   C48435980   4.619   6.353   2.344 -0.4405 -0.3160  0.0677
   69MOL   H48535981   4.311   6.312   1.888  0.0945 -0.4250 -1.3574
   69MOL   H48635982   4.184   6.335   2.016 -3.1519 -2.9883  0.9925
   69MOL   H48735983   4.329   6.071   1.960 -2.5813 -0.6513  0.2545
   69MOL   H48835984   4.871   6.240   2.162  0.6154  0.6892 -1.2429
   69MOL   H48935985   4.939   6.114   1.961  0.3471  1.4490  2.9625
   69MOL   H49035986   4.767   6.037   1.804  0.4084  4.2186 -1.1189
   69MOL   H49135987   4.526   6.044   1.866  0.1944 -0.4628  0.0479
   69MOL   H49235988   4.243   6.357   2.247  0.1405  0.4502 -0.3055
   69MOL   H49335989   4.316   6.455   2.457  1.1703 -1.0690  2.0336
   69MOL   H49435990   4.561   6.438   2.531  0.7845 -1.4120  0.3964
   69MOL   H49535991   4.723   6.347   2.373 -0.9647  1.7687  2.5058
   69MOL   C49635992   4.217   6.084   2.132 -0.6325 -0.1886  0.4456
   69MOL   C49735993   4.294   5.981   2.215  0.2954  0.3567 -0.3356
   69MOL   N49835994   4.209   5.908   2.305  0.3661  0.1994 -0.1888
   69MOL   C49935995   4.139   5.786   2.281 -0.3543 -0.4986 -0.6593
   69MOL   C50035996   4.069   5.753   2.402  0.8661 -0.2294  0.8700
   69MOL   C50135997   3.992   5.633   2.412 -0.1166 -0.5088  0.4937
   69MOL   C50235998   3.982   5.562   2.287 -0.3828 -0.1034  0.2217
   69MOL   C50335999   4.053   5.595   2.170 -0.1599 -0.4171  0.0571
   69MOL   C50436000   4.137   5.707   2.167 -0.6683 -0.2619 -0.5676
   69MOL   C50536001   4.093   5.861   2.498 -0.3199 -0.1502  0.3970
   69MOL   C50636002   4.178   5.955   2.433  0.3052 -0.7643 -0.0053
   69MOL   C50736003   4.225   6.074   2.495  0.3485 -0.0356  0.3978
   69MOL   C50836004   4.183   6.098   2.626 -0.8464 -0.3873 -0.3254
   69MOL   C50936005   4.095   6.005   2.687  0.7950 -0.2447 -0.2649
   69MOL   C51036006   4.044   5.891   2.625 -0.4840 -0.2224  0.6654
   69MOL   H51136007   4.155   6.140   2.202  0.0183 -0.5648  1.3403
   69MOL   H51236008   4.139   6.026   2.081  0.3762 -0.9233 -0.2723
   69MOL   H51336009   4.380   6.016   2.272  0.9110 -2.0215  0.2579
   69MOL   H51436010   3.947   5.600   2.504 -0.1913 -1.2032  0.2063
   69MOL   H51536011   3.927   5.470   2.287 -0.9310  0.2148 -0.7864
   69MOL   H51636012   4.039   5.547   2.075  0.0064  1.3072 -0.8636
   69MOL   H51736013   4.188   5.739   2.078 -2.6388 -0.1850 -1.6958
   69MOL   H51836014   4.278   6.151   2.441 -0.7306 -0.0716 -0.7448
   69MOL   H51936015   4.215   6.174   2.696 -0.3712  0.7771 -1.7889
   69MOL   H52036016   4.065   6.033   2.787 -0.6885 -1.6534 -0.2928
   69MOL   H52136017   3.979   5.822   2.676 -0.0600  0.9759  2.8927
   69MOL   H52236018   4.340   5.903   2.154 -1.2193 -0.0490 -0.9772
   70MOL     C136019   4.794   6.119   4.418  0.3467  0.1212  0.3202
   70MOL     C236020   4.929   6.137   4.495  0.4841  0.6233  0.6883
   70MOL     N336021   4.930   6.106   4.637  0.0361 -0.2434  0.1837
   70MOL     C436022   4.912   5.976   4.689  0.3577 -0.2825 -0.6492
   70MOL     C536023   4.939   5.972   4.831 -1.0621 -0.3636  0.3681
   70MOL     C636024   4.921   5.848   4.898 -0.1951  0.4889  0.1050
   70MOL     C736025   4.880   5.735   4.826 -0.5253 -0.1004 -0.1125
   70MOL     C836026   4.854   5.732   4.689  0.0518 -0.4501 -0.7107
   70MOL     C936027   4.871   5.855   4.619 -0.5125 -0.3815  0.3811
   70MOL    C1036028   4.979   6.104   4.863 -0.0777 -0.2157  0.3086
   70MOL    C1136029   4.959   6.190   4.747 -0.2224 -0.1939  0.1385
   70MOL    C1236030   4.979   6.331   4.753  0.0211  1.0966 -1.0020
   70MOL    C1336031   5.008   6.392   4.871  0.1135 -0.3746 -0.1721
   70MOL    C1436032   5.043   6.310   4.980 -0.2195  0.5102 -0.3168
   70MOL    C1536033   5.024   6.171   4.981  0.8600  0.6166 -0.0194
   70MOL    H1636034   4.803   6.159   4.317 -1.6380  0.6173  0.3108
   70MOL    H1736035   4.714   6.174   4.467  0.5869  1.8680 -1.1865
   70MOL    H1836036   4.956   6.242   4.486  0.9118  0.4650  0.0209
   70MOL    H1936037   4.945   5.839   5.003  1.6121  1.8697 -0.1701
   70MOL    H2036038   4.879   5.656   4.900 -0.3410  0.2529  0.2689
   70MOL    H2136039   4.828   5.646   4.629  0.4599 -1.4753  0.5674
   70MOL    H2236040   4.853   5.858   4.513  0.1927 -1.8442  0.2121
   70MOL    H2336041   4.974   6.387   4.660 -1.0243  0.2192 -1.4967
   70MOL    H2436042   5.011   6.500   4.877 -1.1005 -0.3041 -0.7214
   70MOL    H2536043   5.072   6.365   5.069 -0.4355  0.0986  0.0085
   70MOL    H2636044   5.049   6.110   5.066 -0.5685 -0.1910 -0.1590
   70MOL    H2736045   4.765   6.014   4.412 -2.5862  0.8836  0.1894
   70MOL    C2836046   5.049   6.076   4.421  0.2439  0.1262  0.0275
   70MOL    C2936047   5.192   6.113   4.471 -0.4174 -0.4592  1.0760
   70MOL    N3036048   5.250   6.018   4.558 -0.2314 -0.2404  0.1860
   70MOL    C3136049   5.302   6.050   4.685  0.3808  0.2203 -0.7805
   70MOL    C3236050   5.349   5.936   4.750  0.4579  0.8089  0.5647
   70MOL    C3336051   5.391   5.945   4.883 -0.3530 -1.1381 -0.6179
   70MOL    C3436052   5.405   6.067   4.950 -0.5151  0.6193 -0.1372
   70MOL    C3536053   5.376   6.187   4.881 -0.0747 -0.3370  0.4308
   70MOL    C3636054   5.316   6.180   4.752  0.1064 -1.0540  0.0710
   70MOL    C3736055   5.335   5.829   4.658  0.2866 -0.2039  0.1695
   70MOL    C3836056   5.265   5.879   4.543 -0.4530 -0.6319  0.4352
   70MOL    C3936057   5.240   5.798   4.431  0.9123 -0.9064  0.1712
   70MOL    C4036058   5.267   5.657   4.435  0.2645 -0.7184 -0.3273
   70MOL    C4136059   5.331   5.609   4.551 -0.2761  0.6895  0.5714
   70MOL    C4236060   5.369   5.687   4.659 -0.5668  0.0815 -0.8080
   70MOL    H4336061   5.034   5.970   4.401  0.8693  0.2038 -0.8936
   70MOL    H4436062   5.045   6.125   4.324 -0.7411 -0.8400 -0.4231
   70MOL    H4536063   5.176   6.205   4.528  1.5775  0.8065 -0.3365
   70MOL    H4636064   5.423   5.849   4.922  1.8672 -0.2011 -0.0008
   70MOL    H4736065   5.428   6.067   5.055 -0.8558 -0.7048 -0.0624
   70MOL    H4836066   5.387   6.284   4.927 -0.1919  0.1598 -0.5722
   70MOL    H4936067   5.281   6.272   4.707 -1.5594 -1.8865 -0.3913
   70MOL    H5036068   5.201   5.843   4.342  1.4064  0.7061  0.7495
   70MOL    H5136069   5.247   5.591   4.351 -0.7934 -1.1891  0.2802
   70MOL    H5236070   5.357   5.505   4.564  0.4430  0.8718  0.6366
   70MOL    H5336071   5.402   5.646   4.753 -1.8310 -0.1824 -0.4695
   70MOL    C5436072   5.285   6.148   4.351 -0.2330 -0.2110  0.5169
   70MOL    C5536073   5.270   6.281   4.274  0.3169 -0.5509  0.1132
   70MOL    N5636074   5.288   6.404   4.355 -0.3759  0.2627  0.3591
   70MOL    C5736075   5.223   6.526   4.335  0.0610 -0.2498  0.0756
   70MOL    C5836076   5.267   6.621   4.433  0.0148 -0.3078  0.9023
   70MOL    C5936077   5.220   6.754   4.416 -0.1640 -0.1071 -0.1198
   70MOL    C6036078   5.131   6.790   4.316 -0.1830 -0.2241 -0.4618
   70MOL    C6136079   5.085   6.695   4.220 -0.2757 -0.0073  0.0741
   70MOL    C6236080   5.134   6.565   4.229  0.1798 -0.4962 -0.2087
   70MOL    C6336081   5.366   6.559   4.514  0.1492  0.0295  0.3603
   70MOL    C6436082   5.373   6.424   4.464  0.2986  0.5970 -0.0144
   70MOL    C6536083   5.462   6.336   4.528 -0.6101  0.3708 -0.5631
   70MOL    C6636084   5.542   6.380   4.638 -0.3157  0.0616 -0.0499
   70MOL    C6736085   5.535   6.512   4.683  0.2108 -0.2414  0.0916
   70MOL    C6836086   5.450   6.599   4.625 -0.0069 -0.0597 -1.0233
   70MOL    H6936087   5.384   6.111   4.375 -0.2156 -1.8984 -1.9848
   70MOL    H7036088   5.259   6.067   4.282 -2.5205 -0.7588  1.9770
   70MOL    H7136089   5.174   6.292   4.223  1.4954 -1.4670 -2.3690
   70MOL    H7236090   5.258   6.836   4.475 -0.1063 -0.3300  0.1518
   70MOL    H7336091   5.100   6.893   4.312 -1.2133 -0.4466  1.5700
   70MOL    H7436092   5.026   6.726   4.135  0.3656 -0.5507 -0.5782
   70MOL    H7536093   5.109   6.491   4.155  0.2412 -0.2330 -0.4906
   70MOL    H7636094   5.486   6.237   4.492  0.6722  1.1464 -1.8918
   70MOL    H7736095   5.612   6.306   4.673 -0.6794 -0.7938 -1.0856
   70MOL    H7836096   5.609   6.552   4.751  0.1288 -2.5100  1.5690
   70MOL    H7936097   5.437   6.702   4.657  0.9494 -1.0607  2.8281
   70MOL    C8036098   5.360   6.288   4.146 -0.6161 -0.0324  0.0861
   70MOL    C8136099   5.329   6.174   4.044  0.1318 -0.6571  0.1903
   70MOL    N8236100   5.193   6.184   3.986 -0.4634 -0.2182  0.3134
   70MOL    C8336101   5.093   6.080   3.991 -0.4466 -0.0315  0.3743
   70MOL    C8436102   4.977   6.134   3.928  0.2053 -0.1350 -0.1335
   70MOL    C8536103   4.857   6.056   3.926 -0.2677  0.0113  0.0000
   70MOL    C8636104   4.858   5.926   3.988  0.3313  0.2906  0.4665
   70MOL    C8736105   4.974   5.870   4.035  0.0732  0.4328 -0.2184
   70MOL    C8836106   5.093   5.947   4.040  0.3892 -0.0951  0.1299
   70MOL    C8936107   5.006   6.268   3.875 -0.5845 -0.3763  0.3002
   70MOL    C9036108   5.137   6.296   3.922  0.7687 -0.1346  0.1822
   70MOL    C9136109   5.197   6.423   3.890 -0.2406 -0.4722 -0.4364
   70MOL    C9236110   5.124   6.523   3.823 -0.3467 -0.2793  0.4045
   70MOL    C9336111   4.997   6.497   3.778  0.2267 -0.6025 -0.5910
   70MOL    C9436112   4.939   6.369   3.802 -1.1298  0.4563  0.7673
   70MOL    H9536113   5.352   6.387   4.102 -0.8640 -0.1393 -0.1175
   70MOL    H9636114   5.461   6.274   4.183 -0.6472  0.7146  0.4468
   70MOL    H9736115   5.339   6.082   4.101 -2.4573 -0.2648  1.3365
   70MOL    H9836116   4.769   6.099   3.882  0.8920  0.3671 -2.0629
   70MOL    H9936117   4.765   5.871   3.986  0.8774 -0.6730  1.7446
   70MOL   H10036118   4.973   5.779   4.093  1.8249 -0.0894 -0.9728
   70MOL   H10136119   5.182   5.906   4.086  0.6138  0.9743  0.6483
   70MOL   H10236120   5.297   6.443   3.925 -1.0198  0.0998  1.5101
   70MOL   H10336121   5.167   6.622   3.814 -2.0064  0.4144  0.0045
   70MOL   H10436122   4.934   6.567   3.725  0.9109  1.3227  1.1061
   70MOL   H10536123   4.841   6.360   3.756 -0.2831 -1.1272 -0.7398
   70MOL   C10636124   5.424   6.164   3.926  0.7064 -0.1426  0.2022
   70MOL   C10736125   5.566   6.108   3.952  0.7734  0.0683 -0.7421
   70MOL   N10836126   5.572   5.996   4.048 -0.3830  0.4156  0.6332
   70MOL   C10936127   5.624   5.997   4.180 -1.4147 -0.1314 -0.3406
   70MOL   C11036128   5.596   5.874   4.243  0.2566 -0.5788  0.3186
   70MOL   C11136129   5.638   5.856   4.377  0.1341 -0.0584 -0.4762
   70MOL   C11236130   5.703   5.963   4.445  0.8426 -0.5243 -0.2002
   70MOL   C11336131   5.727   6.083   4.374  0.6517 -0.9809 -0.4869
   70MOL   C11436132   5.685   6.103   4.246 -0.2141  0.5766 -0.3228
   70MOL   C11536133   5.533   5.787   4.150  0.3118 -0.8116  0.7660
   70MOL   C11636134   5.528   5.863   4.032 -0.3347 -0.5249 -0.0366
   70MOL   C11736135   5.457   5.818   3.919 -0.2538  0.2074 -0.8864
   70MOL   C11836136   5.401   5.688   3.917 -0.4167  0.5077 -0.2030
   70MOL   C11936137   5.416   5.600   4.032  0.2596 -0.6135 -0.6877
   70MOL   C12036138   5.479   5.650   4.147  0.3525 -0.2529  0.4997
   70MOL   H12136139   5.376   6.093   3.858  0.0764  0.9186 -0.4686
   70MOL   H12236140   5.431   6.260   3.877  0.7682 -1.5102 -2.5425
   70MOL   H12336141   5.622   6.181   4.009 -1.0880  0.3698  0.7351
   70MOL   H12436142   5.624   5.759   4.423 -1.6524  0.9585  1.1837
   70MOL   H12536143   5.741   5.945   4.544 -1.2069 -1.6008  0.4251
   70MOL   H12636144   5.793   6.154   4.424 -0.6833  0.3675 -0.6105
   70MOL   H12736145   5.706   6.196   4.195  1.4683  0.7120  0.6104
   70MOL   H12836146   5.443   5.883   3.834  0.5009  1.3483 -0.1436
   70MOL   H12936147   5.354   5.653   3.825  2.5147 -0.3765 -1.4106
   70MOL   H13036148   5.378   5.499   4.029 -1.0435 -0.1111 -1.3922
   70MOL   H13136149   5.497   5.599   4.240  1.2970 -0.4661  0.2132
   70MOL   C13236150   5.645   6.080   3.821  0.0147 -0.2537 -0.3083
   70MOL   C13336151   5.668   6.210   3.736  0.5547  0.0362  0.5888
   70MOL   N13436152   5.734   6.318   3.814  0.1480 -0.1102 -0.5412
   70MOL   C13536153   5.677   6.434   3.871 -0.4742  0.6353  0.0616
   70MOL   C13636154   5.766   6.502   3.954 -0.3427  0.0354  0.0289
   70MOL   C13736155   5.730   6.621   4.021  0.2302 -0.3306 -0.7628
   70MOL   C13836156   5.596   6.674   4.010 -0.6965 -0.8754  0.2074
   70MOL   C13936157   5.505   6.600   3.930 -0.4517 -1.0274 -0.3174
   70MOL   C14036158   5.549   6.483   3.861  0.4899 -0.6646  0.2506
   70MOL   C14136159   5.890   6.434   3.940 -0.1414  0.5224 -0.7144
   70MOL   C14236160   5.866   6.309   3.871 -0.1213 -0.1437  0.2758
   70MOL   C14336161   5.967   6.208   3.861  0.1271  0.2982 -0.7210
   70MOL   C14436162   6.095   6.236   3.905  0.2255  1.4147  0.6530
   70MOL   C14536163   6.124   6.366   3.951 -0.3613  0.4327 -0.2858
   70MOL   C14636164   6.023   6.457   3.979  0.6056  0.2514  0.4991
   70MOL   H14736165   5.738   6.031   3.849 -0.9382 -1.7099  0.4016
   70MOL   H14836166   5.586   6.009   3.764 -0.2470 -0.7181  0.5413
   70MOL   H14936167   5.568   6.250   3.722 -0.2634 -2.3103 -0.5203
   70MOL   H15036168   5.808   6.662   4.084 -0.9642  1.5637 -0.4892
   70MOL   H15136169   5.556   6.755   4.068 -3.3558 -0.6870 -1.8205
   70MOL   H15236170   5.404   6.638   3.925 -0.6831 -1.7411 -1.2721
   70MOL   H15336171   5.479   6.444   3.789 -0.3452 -0.1253  0.7609
   70MOL   H15436172   5.959   6.123   3.794  0.8872  1.2217 -2.0007
   70MOL   H15536173   6.176   6.166   3.892  1.4909  3.0295 -0.3750
   70MOL   H15636174   6.228   6.390   3.964 -0.1393 -0.4840 -0.2809
   70MOL   H15736175   6.052   6.547   4.031 -0.2189 -0.0319  1.4722
   70MOL   C15836176   5.739   6.189   3.603 -0.2819 -0.8750  0.2105
   70MOL   C15936177   5.660   6.112   3.497 -0.0783 -0.4322 -0.2913
   70MOL   N16036178   5.523   6.154   3.495 -1.0542 -0.6227 -0.2136
   70MOL   C16136179   5.411   6.071   3.504  0.0610 -0.1422  0.0248
   70MOL   C16236180   5.290   6.152   3.505 -0.0633  0.3327 -0.0531
   70MOL   C16336181   5.163   6.086   3.506 -0.3027  0.4886  0.0131
   70MOL   C16436182   5.153   5.941   3.519  0.2456  0.0378 -0.4485
   70MOL   C16536183   5.276   5.866   3.518 -0.8471 -0.4986 -0.3117
   70MOL   C16636184   5.401   5.929   3.515  0.1627  0.1834 -1.2420
   70MOL   C16736185   5.331   6.289   3.505 -0.1855  0.8106  0.1132
   70MOL   C16836186   5.475   6.289   3.488 -0.4809  0.2030 -0.0575
   70MOL   C16936187   5.541   6.417   3.480 -0.3094  0.4508 -0.2944
   70MOL   C17036188   5.468   6.536   3.493 -0.7194 -0.2862 -0.4154
   70MOL   C17136189   5.332   6.530   3.508 -0.1435  0.1617 -0.5930
   70MOL   C17236190   5.263   6.409   3.516  0.1449 -0.2587 -0.2394
   70MOL   H17336191   5.782   6.284   3.573  0.0056 -0.9261  0.4570
   70MOL   H17436192   5.835   6.140   3.620 -0.7527 -1.4329  1.3562
   70MOL   H17536193   5.655   6.010   3.534 -1.4026 -0.0115  0.7547
   70MOL   H17636194   5.074   6.146   3.500 -0.4373  0.1431 -2.0563
   70MOL   H17736195   5.056   5.897   3.531 -0.2715  1.2201 -0.1950
   70MOL   H17836196   5.265   5.759   3.526  1.5813 -0.7150  0.6350
   70MOL   H17936197   5.491   5.869   3.514  0.3504  0.4722 -1.3704
   70MOL   H18036198   5.647   6.433   3.465 -0.0170 -1.1073  0.0268
   70MOL   H18136199   5.525   6.628   3.489 -0.6208 -0.3335 -0.1173
   70MOL   H18236200   5.271   6.617   3.525  2.3283  1.7131  0.6274
   70MOL   H18336201   5.158   6.398   3.533 -0.3036  0.6109 -2.2328
   70MOL   C18436202   5.721   6.112   3.354  0.5700  0.0896  0.3959
   70MOL   C18536203   5.862   6.062   3.325  0.3309 -0.3820 -0.3161
   70MOL   N18636204   5.881   5.933   3.391 -0.3069  0.2064 -0.0874
   70MOL   C18736205   6.003   5.909   3.461 -0.8873  0.5151  0.4350
   70MOL   C18836206   6.007   5.773   3.507  0.1647  0.0772 -0.8315
   70MOL   C18936207   6.124   5.717   3.562 -0.6943  0.1375 -0.2079
   70MOL   C19036208   6.242   5.795   3.567 -0.6008 -0.7226  0.5204
   70MOL   C19136209   6.238   5.930   3.525 -0.0982 -0.3681 -0.5805
   70MOL   C19236210   6.126   5.984   3.469  0.3745 -0.1935  0.1463
   70MOL   C19336211   5.887   5.713   3.466 -0.0424  0.1381  0.4246
   70MOL   C19436212   5.812   5.811   3.397  0.2973  0.1883 -0.4132
   70MOL   C19536213   5.694   5.777   3.332 -0.2047  0.5971  0.3436
   70MOL   C19636214   5.644   5.643   3.348  0.8961  0.5261 -0.2260
   70MOL   C19736215   5.720   5.549   3.425 -0.1959 -0.6804 -0.6775
   70MOL   C19836216   5.842   5.586   3.482  0.2013 -0.3034  0.0025
   70MOL   H19936217   5.643   6.084   3.282  0.0592 -2.0875  1.7628
   70MOL   H20036218   5.724   6.215   3.317  1.0189 -0.9801 -2.7313
   70MOL   H20136219   5.931   6.140   3.357 -1.4429  0.9295  0.4117
   70MOL   H20236220   6.117   5.616   3.602  0.5484 -0.4184 -1.3407
   70MOL   H20336221   6.330   5.743   3.601 -1.1414 -1.2257  1.1747
   70MOL   H20436222   6.321   5.999   3.521  1.3724 -2.1513 -1.8418
   70MOL   H20536223   6.122   6.084   3.429  0.4144  0.0215  0.6663
   70MOL   H20636224   5.632   5.843   3.274 -1.7294 -2.9578 -2.2628
   70MOL   H20736225   5.543   5.613   3.323  0.4116  2.8196 -1.1440
   70MOL   H20836226   5.692   5.450   3.457  1.0586 -1.2769 -1.3727
   70MOL   H20936227   5.911   5.519   3.532  4.0377  4.4288  1.4873
   70MOL   C21036228   5.889   6.061   3.173  0.1731  0.2875  1.1162
   70MOL   C21136229   5.920   6.201   3.107  0.2572 -0.5170  0.9461
   70MOL   N21236230   6.036   6.258   3.162  0.4985 -0.0822 -0.6810
   70MOL   C21336231   6.039   6.396   3.210  0.4381  0.1990 -0.0878
   70MOL   C21436232   6.169   6.405   3.264  0.2388  0.2506  0.1792
   70MOL   C21536233   6.206   6.534   3.317 -0.1707 -0.5086  0.0522
   70MOL   C21636234   6.122   6.641   3.319 -0.1251  0.1638  0.7563
   70MOL   C21736235   5.991   6.620   3.268  0.5196  0.0871 -0.4239
   70MOL   C21836236   5.949   6.502   3.211  0.3445  0.1509  0.5484
   70MOL   C21936237   6.246   6.283   3.242  0.3847 -0.4545 -0.6648
   70MOL   C22036238   6.162   6.191   3.174 -0.3933  0.5959  0.0351
   70MOL   C22136239   6.216   6.065   3.130  0.2202 -0.1955  0.2247
   70MOL   C22236240   6.349   6.034   3.156  0.6563  0.4224 -0.4028
   70MOL   C22336241   6.427   6.123   3.230 -0.0145 -0.4737  0.2571
   70MOL   C22436242   6.378   6.246   3.275 -0.2953 -0.4287  0.0786
   70MOL   H22536243   5.969   5.989   3.158  0.5823  0.9511  0.0718
   70MOL   H22636244   5.805   6.020   3.117  1.3105  1.5000 -1.5739
   70MOL   H22736245   5.830   6.257   3.133 -0.0130 -0.3753 -0.2497
   70MOL   H22836246   6.309   6.547   3.345 -0.3581 -0.8461  0.9245
   70MOL   H22936247   6.157   6.735   3.360 -0.9867  0.0519  1.7925
   70MOL   H23036248   5.920   6.701   3.257 -2.1775 -2.2770 -0.9704
   70MOL   H23136249   5.854   6.494   3.161  0.2289  0.3003  0.7424
   70MOL   H23236250   6.153   5.999   3.071  0.6531  0.8895 -1.4952
   70MOL   H23336251   6.381   5.935   3.128 -2.2866 -0.8607  0.6270
   70MOL   H23436252   6.528   6.091   3.251 -0.2201 -1.3254 -0.0516
   70MOL   H23536253   6.432   6.316   3.338 -3.1179  1.0704  0.9045
   70MOL   C23636254   5.932   6.203   2.957 -0.9603 -0.8791 -0.9870
   70MOL   C23736255   5.810   6.141   2.879 -0.2687 -0.0710  0.6461
   70MOL   N23836256   5.678   6.165   2.945  0.3257 -0.6227  0.3235
   70MOL   C23936257   5.580   6.073   2.978  0.1998  0.4530 -1.4891
   70MOL   C24036258   5.474   6.140   3.048  0.5059  0.9653 -0.8398
   70MOL   C24136259   5.372   6.054   3.098  0.1836 -0.2547  0.4157
   70MOL   C24236260   5.375   5.919   3.073  0.6228  0.5992 -0.8052
   70MOL   C24336261   5.481   5.857   2.998 -0.5712 -0.1153 -0.0501
   70MOL   C24436262   5.582   5.934   2.949 -0.4111 -0.7816 -0.1793
   70MOL   C24536263   5.506   6.278   3.044  0.2115  0.2995 -0.3375
   70MOL   C24636264   5.632   6.292   2.978 -0.1691 -0.4909 -0.7233
   70MOL   C24736265   5.683   6.420   2.954 -0.7415 -0.3782 -0.4771
   70MOL   C24836266   5.611   6.537   2.988 -0.0126 -0.0603 -0.5548
   70MOL   C24936267   5.483   6.527   3.052 -0.1736  0.0242  0.1529
   70MOL   C25036268   5.438   6.396   3.085  0.1117 -0.2441 -0.5012
   70MOL   H25136269   5.963   6.298   2.913 -2.4051 -0.4366 -1.0613
   70MOL   H25236270   6.024   6.147   2.942 -0.0467 -0.2042  1.7871
   70MOL   H25336271   5.827   6.033   2.885  1.2254  0.2266  2.4188
   70MOL   H25436272   5.289   6.104   3.144 -1.1534 -1.3143 -0.8038
   70MOL   H25536273   5.290   5.870   3.118 -0.1823  3.6400  1.1587
   70MOL   H25636274   5.482   5.750   2.984  2.1443 -0.1796  0.4246
   70MOL   H25736275   5.661   5.890   2.889  1.5377 -0.3562  1.9901
   70MOL   H25836276   5.782   6.424   2.911 -1.1101 -0.1285 -1.3181
   70MOL   H25936277   5.651   6.633   2.959 -2.3709  1.4115  0.9537
   70MOL   H26036278   5.418   6.610   3.075  0.8402  0.9720 -0.3398
   70MOL   H26136279   5.340   6.390   3.130  0.5208  0.2502  0.4755
   70MOL   C26236280   5.799   6.185   2.728 -0.3524  0.1644  0.0337
   70MOL   C26336281   5.918   6.137   2.642 -0.1850 -0.2511  0.8823
   70MOL   N26436282   5.962   5.999   2.664 -0.3963 -0.1478  0.1612
   70MOL   C26536283   6.095   5.947   2.687 -0.1491 -1.2874  0.3537
   70MOL   C26636284   6.083   5.807   2.702 -0.2925 -0.2968  0.2770
   70MOL   C26736285   6.199   5.731   2.731 -0.2107 -0.5965  0.1647
   70MOL   C26836286   6.327   5.791   2.734 -0.5075 -0.6869 -0.0895
   70MOL   C26936287   6.335   5.934   2.715  0.0156 -0.2581 -0.7049
   70MOL   C27036288   6.221   6.015   2.695  0.3993 -0.7949  0.6701
   70MOL   C27136289   5.946   5.768   2.688 -0.0789 -0.1107  0.3291
   70MOL   C27236290   5.878   5.887   2.646 -0.3233  0.0013 -0.0329
   70MOL   C27336291   5.739   5.878   2.604  0.4579  0.5878 -0.3515
   70MOL   C27436292   5.682   5.752   2.585 -0.1538  0.7681 -0.1627
   70MOL   C27536293   5.741   5.640   2.640  0.2799 -0.5299  0.3913
   70MOL   C27636294   5.873   5.647   2.686  0.5210  0.0794 -0.0568
   70MOL   H27736295   5.706   6.145   2.687  0.2869  0.4024 -1.6817
   70MOL   H27836296   5.781   6.293   2.727  1.2057  0.4447 -2.8623
   70MOL   H27936297   6.005   6.196   2.669 -1.4054  1.3255  1.4547
   70MOL   H28036298   6.195   5.628   2.762 -0.8869 -0.8169 -0.6424
   70MOL   H28136299   6.416   5.736   2.762 -1.2224 -1.4249  0.7677
   70MOL   H28236300   6.433   5.980   2.721  0.6423 -1.4119 -1.7350
   70MOL   H28336301   6.225   6.122   2.682 -3.8354 -0.4497  1.2361
   70MOL   H28436302   5.683   5.963   2.568 -1.2523 -1.4627 -2.7201
   70MOL   H28536303   5.579   5.740   2.554 -0.1179 -0.8110  0.2666
   70MOL   H28636304   5.685   5.547   2.646  2.6378 -2.0757 -0.9271
   70MOL   H28736305   5.924   5.560   2.725 -0.5392 -1.7099 -2.5020
   70MOL   C28836306   5.892   6.166   2.488 -0.4474  0.0852 -0.8004
   70MOL   C28936307   5.903   6.313   2.451 -0.5419 -0.3090 -0.1748
   70MOL   N29036308   6.039   6.357   2.481 -0.3060 -0.1064 -0.7918
   70MOL   C29136309   6.073   6.458   2.567  0.1124  0.5126 -0.0563
   70MOL   C29236310   6.216   6.462   2.585  1.0237  0.4577  0.4009
   70MOL   C29336311   6.271   6.548   2.681 -0.0452  0.3399  0.2492
   70MOL   C29436312   6.188   6.622   2.763 -0.5063  0.6561 -0.1158
   70MOL   C29536313   6.045   6.622   2.743 -0.8895  0.4898 -0.0951
   70MOL   C29636314   5.989   6.541   2.642  0.5429 -0.1013 -0.1204
   70MOL   C29736315   6.271   6.365   2.501  0.2181 -0.9236 -0.9073
   70MOL   C29836316   6.165   6.307   2.430  0.0804  0.0392  0.1208
   70MOL   C29936317   6.189   6.204   2.340 -0.5867 -0.3719 -0.2253
   70MOL   C30036318   6.323   6.167   2.312  0.1955 -0.0868 -0.4959
   70MOL   C30136319   6.431   6.233   2.379 -0.9693  0.8461 -0.2283
   70MOL   C30236320   6.409   6.341   2.469  0.0905  0.6071 -0.4455
   70MOL   H30336321   5.956   6.098   2.432  0.0984  1.1082 -1.4395
   70MOL   H30436322   5.787   6.147   2.465 -1.5575  0.4430  3.4697
   70MOL   H30536323   5.838   6.366   2.520 -2.0162 -0.1716 -1.6330
   70MOL   H30636324   6.378   6.552   2.689 -0.0956  0.2772  1.0755
   70MOL   H30736325   6.233   6.685   2.837  1.3841 -1.7378  0.8358
   70MOL   H30836326   5.988   6.670   2.821 -0.6000  0.5414  0.0863
   70MOL   H30936327   5.882   6.534   2.642  0.4830  0.6636 -0.8026
   70MOL   H31036328   6.110   6.154   2.285  2.0983 -2.1986 -2.5174
   70MOL   H31136329   6.352   6.084   2.249 -0.5138 -2.4666  2.1926
   70MOL   H31236330   6.529   6.199   2.351 -0.2580  3.5095 -1.1683
   70MOL   H31336331   6.487   6.399   2.515  2.0742 -2.5574  0.3324
   70MOL   C31436332   5.859   6.354   2.311  0.4216 -0.3634 -0.4744
   70MOL   C31536333   5.704   6.333   2.285 -0.1353  0.3192  0.1207
   70MOL   N31636334   5.626   6.378   2.405  0.0748  0.0386  0.1869
   70MOL   C31736335   5.532   6.301   2.480  0.1794 -0.3104 -0.1975
   70MOL   C31836336   5.481   6.387   2.583 -0.6041 -0.1613  0.3589
   70MOL   C31936337   5.392   6.329   2.682 -0.3038 -0.1087 -0.3638
   70MOL   C32036338   5.351   6.197   2.674 -0.0453  0.2203 -0.1167
   70MOL   C32136339   5.398   6.120   2.565  0.3454  0.1363 -0.3009
   70MOL   C32236340   5.491   6.172   2.474  0.0483 -0.3817 -0.2242
   70MOL   C32336341   5.535   6.516   2.562  0.0627 -0.3956 -0.0408
   70MOL   C32436342   5.623   6.509   2.450  0.9560  0.1010 -0.0516
   70MOL   C32536343   5.691   6.628   2.409  0.4460 -0.2722 -0.1867
   70MOL   C32636344   5.671   6.749   2.481 -0.8667  0.3864  0.1727
   70MOL   C32736345   5.595   6.753   2.596  0.5387  0.1914 -0.1315
   70MOL   C32836346   5.531   6.631   2.632  0.3638  0.1889  0.4597
   70MOL   H32936347   5.899   6.452   2.281 -0.5448  0.0171 -0.5160
   70MOL   H33036348   5.912   6.294   2.237  0.6580 -0.1624 -0.4678
   70MOL   H33136349   5.673   6.229   2.279 -1.4284  0.8497 -3.4783
   70MOL   H33236350   5.366   6.384   2.770 -0.8092 -0.4389 -0.3058
   70MOL   H33336351   5.280   6.157   2.745  0.5193  1.1366  1.0010
   70MOL   H33436352   5.356   6.021   2.549  2.0160 -0.5647 -0.4257
   70MOL   H33536353   5.525   6.111   2.391  1.3585  1.2420 -0.8880
   70MOL   H33636354   5.755   6.636   2.322 -0.0841  0.2402 -0.5290
   70MOL   H33736355   5.730   6.837   2.460  0.1093 -0.1954  0.4399
   70MOL   H33836356   5.596   6.839   2.661 -0.5831  0.9457 -1.1168
   70MOL   H33936357   5.457   6.634   2.710 -0.3992 -0.6124 -0.2290
   70MOL   C34036358   5.633   6.399   2.162 -0.9806  1.0338 -0.2830
   70MOL   C34136359   5.679   6.344   2.024  0.3168  0.1047 -0.7330
   70MOL   N34236360   5.689   6.207   2.009 -0.5149 -0.6747  0.0002
   70MOL   C34336361   5.805   6.144   1.972  0.3325  0.0353  0.2822
   70MOL   C34436362   5.779   6.007   1.952 -0.0744  0.4222 -0.9008
   70MOL   C34536363   5.879   5.923   1.898  0.2411  0.4881  0.2533
   70MOL   C34636364   6.009   5.965   1.871 -0.3152 -0.3411  0.4245
   70MOL   C34736365   6.036   6.104   1.887 -0.5442 -0.0426 -0.7191
   70MOL   C34836366   5.936   6.190   1.937 -0.1992  0.1670 -0.6623
   70MOL   C34936367   5.646   5.980   2.003 -0.2508  0.0763  0.0936
   70MOL   C35036368   5.595   6.105   2.038 -0.0852 -0.2112 -0.3376
   70MOL   C35136369   5.465   6.115   2.087  0.2534  0.0228 -0.2145
   70MOL   C35236370   5.388   5.997   2.113 -0.2120  0.3888 -0.5902
   70MOL   C35336371   5.439   5.870   2.080 -0.5560 -0.0996  0.3013
   70MOL   C35436372   5.565   5.872   2.021 -0.7843  0.0881  0.0425
   70MOL   H35536373   5.528   6.380   2.184 -1.2659  1.8322 -0.9355
   70MOL   H35636374   5.640   6.507   2.150  3.5490  0.9466  0.4291
   70MOL   H35736375   5.778   6.381   1.998  0.5237 -2.0295 -3.2364
   70MOL   H35836376   5.838   5.824   1.885  1.4389 -0.2040  1.4982
   70MOL   H35936377   6.092   5.898   1.853  1.3727  2.2548 -2.0675
   70MOL   H36036378   6.135   6.137   1.862 -0.6079 -2.0814 -3.9398
   70MOL   H36136379   5.960   6.295   1.946 -1.4744  0.5684 -1.7896
   70MOL   H36236380   5.432   6.210   2.126  0.0078  0.0878 -0.5882
   70MOL   H36336381   5.296   6.000   2.170 -0.4919 -2.5922 -0.8023
   70MOL   H36436382   5.378   5.782   2.087  3.0184 -2.7378 -0.5156
   70MOL   H36536383   5.605   5.773   2.000 -0.1936  0.3204  0.0552
   70MOL   C36636384   5.585   6.395   1.912  0.4164  0.2663  0.8978
   70MOL   C36736385   5.618   6.539   1.860 -0.0979  0.0049 -0.1758
   70MOL   N36836386   5.761   6.567   1.845  0.0534  0.2500  0.6449
   70MOL   C36936387   5.836   6.654   1.923 -1.0139  0.1127 -0.0536
   70MOL   C37036388   5.976   6.636   1.889 -0.6361 -0.2398 -0.5478
   70MOL   C37136389   6.069   6.717   1.957  0.4474 -0.4569 -0.4288
   70MOL   C37236390   6.033   6.805   2.060  0.0956  0.2039  0.0750
   70MOL   C37336391   5.893   6.819   2.093  0.6233  0.0828 -0.8932
   70MOL   C37436392   5.797   6.745   2.027  0.0225  0.4396  0.6445
   70MOL   C37536393   5.983   6.541   1.782 -0.3744  0.1390 -0.5324
   70MOL   C37636394   5.853   6.501   1.761  0.4613  0.3102  0.8558
   70MOL   C37736395   5.813   6.405   1.665  0.3691 -0.1253  0.3479
   70MOL   C37836396   5.909   6.355   1.582 -0.4912  0.5747  0.3095
   70MOL   C37936397   6.041   6.397   1.591  0.6767 -1.1285 -0.4590
   70MOL   C38036398   6.080   6.480   1.699 -0.6760 -0.1774  0.0724
   70MOL   H38136399   5.590   6.330   1.825 -0.2943  1.1474  0.1920
   70MOL   H38236400   5.482   6.393   1.948  0.1796  0.2447  0.2340
   70MOL   H38336401   5.594   6.592   1.953 -0.2565 -0.3230 -0.0299
   70MOL   H38436402   6.171   6.700   1.927  0.4651  0.3372 -0.8110
   70MOL   H38536403   6.111   6.862   2.109  0.5494  0.3620 -0.8126
   70MOL   H38636404   5.857   6.890   2.166  0.2248 -0.3013 -0.7195
   70MOL   H38736405   5.694   6.754   2.059  0.2786  0.4012  1.4803
   70MOL   H38836406   5.710   6.374   1.653 -0.0067 -0.0858  3.2088
   70MOL   H38936407   5.889   6.278   1.509 -0.4284  1.8300 -1.0564
   70MOL   H39036408   6.116   6.372   1.517 -1.4337 -0.7318 -2.8273
   70MOL   H39136409   6.183   6.511   1.710 -0.6094  0.1537 -1.3653
   70MOL   C39236410   5.535   6.602   1.740 -0.1226  0.0044  0.6274
   70MOL   C39336411   5.382   6.616   1.771  0.4855  0.7154 -0.2030
   70MOL   N39436412   5.352   6.666   1.906  0.3277  0.0547  0.1754
   70MOL   C39536413   5.288   6.593   2.002  0.1182  0.1696  0.2033
   70MOL   C39636414   5.306   6.661   2.125 -0.2558 -0.0002 -0.1175
   70MOL   C39736415   5.261   6.595   2.244  0.0023 -0.3361 -0.0939
   70MOL   C39836416   5.202   6.462   2.239 -0.1926 -0.6213  0.4604
   70MOL   C39936417   5.186   6.405   2.113 -0.0127  0.0250 -0.2748
   70MOL   C40036418   5.226   6.469   1.997  0.4468 -0.7684  0.0393
   70MOL   C40136419   5.365   6.787   2.094 -0.2564 -0.9189 -0.1868
   70MOL   C40236420   5.391   6.789   1.957  0.2419  0.3369 -0.2662
   70MOL   C40336421   5.453   6.895   1.900 -0.2310  0.0966 -0.4627
   70MOL   C40436422   5.494   7.009   1.974 -0.1163  0.2990 -0.2509
   70MOL   C40536423   5.465   7.011   2.110 -0.2134  0.3420  0.0256
   70MOL   C40636424   5.404   6.899   2.172 -0.4570 -0.0242  0.0357
   70MOL   H40736425   5.579   6.701   1.725 -0.4375  0.1100  0.3894
   70MOL   H40836426   5.557   6.556   1.644  1.2161  2.9133 -0.5371
   70MOL   H40936427   5.343   6.514   1.771  1.4216  0.3415 -2.0684
   70MOL   H41036428   5.287   6.634   2.341 -0.2097  1.4772 -0.7512
   70MOL   H41136429   5.189   6.394   2.321 -0.0971 -0.5276  0.5537
   70MOL   H41236430   5.133   6.311   2.107 -0.8100  0.4819 -0.4041
   70MOL   H41336431   5.215   6.427   1.897  1.3402  0.7183 -0.7025
   70MOL   H41436432   5.461   6.885   1.792  0.5031 -2.1404 -0.2383
   70MOL   H41536433   5.542   7.092   1.925  0.8816  0.2646  0.6614
   70MOL   H41636434   5.495   7.099   2.166  1.7280 -1.0809  1.2906
   70MOL   H41736435   5.381   6.895   2.278 -0.2875  1.6627  0.1394
   70MOL   C41836436   5.302   6.702   1.681  0.3213 -0.5048  0.3173
   70MOL   C41936437   5.256   6.633   1.553  0.6236 -0.0189 -0.3494
   70MOL   N42036438   5.155   6.528   1.583 -0.3193  0.3372  0.0503
   70MOL   C42136439   5.173   6.390   1.591  0.2684 -0.6688  0.7674
   70MOL   C42236440   5.054   6.325   1.638  0.2204 -0.1884 -0.4729
   70MOL   C42336441   5.062   6.189   1.665 -0.5287  0.4489  1.4254
   70MOL   C42436442   5.173   6.109   1.630  0.5738 -0.4516 -0.3147
   70MOL   C42536443   5.281   6.169   1.562  0.1429  0.0526 -0.5780
   70MOL   C42636444   5.286   6.314   1.550  0.0832 -0.3366  0.4107
   70MOL   C42736445   4.956   6.426   1.648  0.7574  0.5032  0.2648
   70MOL   C42836446   5.022   6.554   1.623 -0.5699  0.3823 -0.7406
   70MOL   C42936447   4.952   6.671   1.650 -0.0658  0.2756  0.0376
   70MOL   C43036448   4.812   6.668   1.688  0.0158  0.6580  0.6094
   70MOL   C43136449   4.753   6.541   1.698  0.4614  0.2758 -0.4600
   70MOL   C43236450   4.824   6.422   1.688  0.0949  0.0364 -0.8490
   70MOL   H43336451   5.213   6.744   1.729  1.0254  0.9627  0.3827
   70MOL   H43436452   5.355   6.791   1.645 -1.1974  0.4831  0.4481
   70MOL   H43536453   5.339   6.569   1.523  0.9126 -0.6549  1.6937
   70MOL   H43636454   4.974   6.135   1.695 -0.1357 -0.5613  0.7686
   70MOL   H43736455   5.166   6.001   1.626 -2.2053 -0.3857  1.1420
   70MOL   H43836456   5.352   6.111   1.505 -0.4926 -0.6522 -0.6522
   70MOL   H43936457   5.367   6.365   1.500  1.2984 -0.9152  1.7520
   70MOL   H44036458   4.993   6.771   1.648 -0.7565  0.6131  2.2199
   70MOL   H44136459   4.760   6.761   1.704  0.2801  0.9246 -0.0468
   70MOL   H44236460   4.648   6.539   1.726  0.1412 -0.0132 -1.6821
   70MOL   H44336461   4.787   6.324   1.716  1.9587 -0.9398 -1.6880
   70MOL   C44436462   5.204   6.712   1.432 -0.4245 -0.2274 -0.7187
   70MOL   C44536463   5.309   6.800   1.357  0.2344 -0.4905  0.2841
   70MOL   N44636464   5.433   6.731   1.353 -0.2773  0.5037  0.2084
   70MOL   C44736465   5.547   6.766   1.427  0.2039 -0.1693  0.1254
   70MOL   C44836466   5.650   6.669   1.403  0.0763 -0.0174 -0.1606
   70MOL   C44936467   5.775   6.679   1.464 -0.2246  0.0935  0.2393
   70MOL   C45036468   5.809   6.791   1.541 -0.3655 -0.3905 -0.0451
   70MOL   C45136469   5.713   6.900   1.553 -0.0367  0.5682 -0.0984
   70MOL   C45236470   5.583   6.886   1.501 -0.2111  0.3755 -0.8168
   70MOL   C45336471   5.590   6.561   1.332 -0.7119  0.4688  0.1108
   70MOL   C45436472   5.463   6.607   1.296  0.9213  1.0145 -0.0113
   70MOL   C45536473   5.378   6.523   1.223 -0.0004  0.0904  0.1071
   70MOL   C45636474   5.412   6.390   1.193  0.6797 -0.5632 -0.8873
   70MOL   C45736475   5.538   6.344   1.229 -0.1177 -0.1085  0.2894
   70MOL   C45836476   5.629   6.426   1.298 -0.2806  0.1663  0.2686
   70MOL   H45936477   5.176   6.638   1.356 -4.9610 -0.5464  1.1275
   70MOL   H46036478   5.120   6.775   1.460  0.2559 -0.4300  1.9154
   70MOL   H46136479   5.335   6.880   1.427 -1.0340  0.9518 -0.8453
   70MOL   H46236480   5.840   6.594   1.451 -1.1864 -0.3330 -1.8595
   70MOL   H46336481   5.899   6.776   1.599 -0.4108 -0.7980 -0.0820
   70MOL   H46436482   5.724   6.979   1.626 -0.7159  0.2551  0.3475
   70MOL   H46536483   5.516   6.968   1.525 -0.2884 -0.2825  1.3148
   70MOL   H46636484   5.280   6.550   1.186  0.0593  0.1324 -0.0195
   70MOL   H46736485   5.354   6.326   1.127 -0.5774 -0.5168  0.1527
   70MOL   H46836486   5.560   6.245   1.192 -1.5941 -0.8344  1.2960
   70MOL   H46936487   5.717   6.380   1.340 -1.6753 -1.6821  1.2157
   70MOL   C47036488   5.283   6.869   1.224 -0.1370  0.5189  0.2002
   70MOL   C47136489   5.189   6.997   1.233 -0.1719  0.2556  0.3631
   70MOL   N47236490   5.207   7.070   1.359 -0.0617  0.3000  0.3562
   70MOL   C47336491   5.122   7.076   1.470 -0.7068  0.1766 -0.1717
   70MOL   C47436492   5.178   7.156   1.575 -0.2024  0.3034  0.0415
   70MOL   C47536493   5.102   7.182   1.690  0.3563 -0.4850 -0.4977
   70MOL   C47636494   4.971   7.127   1.705 -0.6512  0.2449  0.6805
   70MOL   C47736495   4.918   7.050   1.602  0.0667 -0.0896 -0.3918
   70MOL   C47836496   4.993   7.021   1.488 -0.0285 -0.2656 -0.4975
   70MOL   C47936497   5.305   7.203   1.523  0.3661 -0.0464 -0.5104
   70MOL   C48036498   5.323   7.143   1.395 -0.1492  0.6203 -0.9783
   70MOL   C48136499   5.445   7.161   1.333  0.0519 -0.1336  0.1877
   70MOL   C48236500   5.536   7.259   1.377  1.1020 -0.5373  0.5693
   70MOL   C48336501   5.507   7.326   1.500 -0.2671 -0.0617 -0.3390
   70MOL   C48436502   5.398   7.297   1.569  0.0117  0.2707 -0.9178
   70MOL   H48536503   5.373   6.892   1.167  0.6351 -0.4221  1.0285
   70MOL   H48636504   5.230   6.805   1.154  0.5359  1.0641 -0.8234
   70MOL   H48736505   5.091   6.954   1.249 -0.3256  0.7113  0.6710
   70MOL   H48836506   5.148   7.241   1.768 -1.4907  2.3489 -1.4854
   70MOL   H48936507   4.909   7.156   1.788 -2.2088  1.1230 -0.7689
   70MOL   H49036508   4.821   7.002   1.614 -1.4270  2.9625  0.2508
   70MOL   H49136509   4.933   6.958   1.423 -0.2945 -1.5072  0.9359
   70MOL   H49236510   5.458   7.104   1.243  0.8810 -0.6010  0.6039
   70MOL   H49336511   5.626   7.272   1.318  0.2432  2.9379 -0.0814
   70MOL   H49436512   5.577   7.397   1.541  1.5738 -2.9324  1.6188
   70MOL   H49536513   5.386   7.343   1.666  4.8568  0.2002 -0.1672
   70MOL   C49636514   5.192   7.089   1.108  0.4834 -0.3581  0.3322
   70MOL   C49736515   5.135   7.234   1.117 -0.1902  0.1043  0.1338
   70MOL   N49836516   5.132   7.304   0.992 -0.1224  0.4410  0.3126
   70MOL   C49936517   5.232   7.393   0.945 -0.0135 -0.6033  0.1055
   70MOL   C50036518   5.198   7.450   0.817 -0.0820 -0.7599  0.7379
   70MOL   C50136519   5.269   7.559   0.766  0.7706  0.6562  0.3858
   70MOL   C50236520   5.383   7.603   0.830 -0.3077  0.2486  0.4098
   70MOL   C50336521   5.423   7.542   0.956  0.6518 -0.9873  0.0072
   70MOL   C50436522   5.344   7.444   1.014  0.0660 -0.3844  0.3575
   70MOL   C50536523   5.082   7.377   0.770  0.2186  0.5372  0.5306
   70MOL   C50636524   5.047   7.286   0.878 -0.2080  0.0915  0.0516
   70MOL   C50736525   4.946   7.191   0.868  0.1508  0.2067 -0.4783
   70MOL   C50836526   4.852   7.208   0.762  0.2363 -1.0261 -0.4075
   70MOL   C50936527   4.878   7.299   0.660 -0.1706  0.4138  0.3856
   70MOL   C51036528   4.995   7.378   0.661 -0.2155 -1.0559  0.8202
   70MOL   H51136529   5.295   7.110   1.079  1.0901 -0.7986  2.0639
   70MOL   H51236530   5.142   7.043   1.023 -1.1730  0.5817  0.7824
   70MOL   H51336531   5.190   7.290   1.192 -1.1141  1.2398 -0.0052
   70MOL   H51436532   5.240   7.618   0.680  0.4466  0.1319  0.1340
   70MOL   H51536533   5.424   7.691   0.783 -0.1313 -1.0705 -1.9435
   70MOL   H51636534   5.502   7.577   1.021 -0.6918  2.8795 -0.3439
   70MOL   H51736535   5.379   7.399   1.106 -0.7759  1.0616  1.3964
   70MOL   H51836536   4.916   7.131   0.953 -0.9531  1.3288 -0.0632
   70MOL   H51936537   4.768   7.143   0.747  1.2117 -1.6865 -3.3526
   70MOL   H52036538   4.815   7.299   0.572 -0.9638  0.6572  0.9446
   70MOL   H52136539   5.023   7.441   0.578  2.2810  0.3148  2.6361
   70MOL   H52236540   5.030   7.223   1.145 -0.2403 -2.3028 -0.8809
   71MOL     C136541   3.959   8.197   3.953 -0.3586  0.1127  0.6184
   71MOL     C236542   3.970   8.074   3.864  0.5743  0.5153  0.4597
   71MOL     N336543   3.848   8.057   3.788 -0.2528  0.0450 -0.1359
   71MOL     C436544   3.800   7.923   3.764  0.7579 -0.6615  0.1129
   71MOL     C536545   3.692   7.940   3.675 -0.0825 -0.2750 -0.0140
   71MOL     C636546   3.627   7.826   3.621  0.1129 -0.1508  0.1429
   71MOL     C736547   3.672   7.698   3.659 -0.5801  0.3962  0.5005
   71MOL     C836548   3.778   7.683   3.746 -0.2695 -0.0473  0.8659
   71MOL     C936549   3.842   7.796   3.798 -0.0039  0.2379  0.0096
   71MOL    C1036550   3.664   8.081   3.645  0.6041  0.4555 -0.1628
   71MOL    C1136551   3.764   8.148   3.715 -0.1725 -0.5087 -0.1588
   71MOL    C1236552   3.779   0.057   3.697  0.2115  0.1519 -0.9339
   71MOL    C1336553   3.690   0.130   3.621 -0.5242 -0.6839  0.6166
   71MOL    C1436554   3.581   0.068   3.553 -0.0594  1.0111 -0.1896
   71MOL    C1536555   3.562   8.153   3.568 -0.4279 -0.6438  0.0290
   71MOL    H1636556   3.857   0.007   3.958 -0.6598 -0.3107 -1.7419
   71MOL    H1736557   4.025   0.050   3.922  0.2118 -0.4653  0.3274
   71MOL    H1836558   3.984   7.982   3.921  1.3304 -1.3977 -2.6833
   71MOL    H1936559   3.545   7.831   3.551  0.1998  1.6106  0.1530
   71MOL    H2036560   3.638   7.613   3.602 -0.6169  0.7220  0.0269
   71MOL    H2136561   3.813   7.583   3.766 -0.7021 -0.3677  0.0677
   71MOL    H2236562   3.925   7.773   3.863 -1.2784  2.3702  2.5030
   71MOL    H2336563   3.861   0.108   3.747  2.1454 -0.8930 -2.9360
   71MOL    H2436564   3.711   0.236   3.615 -0.2396 -0.6798  1.6871
   71MOL    H2536565   3.510   0.125   3.494  1.7314  2.1734 -1.2557
   71MOL    H2636566   3.484   8.102   3.514  1.1421  0.9705 -3.9571
   71MOL    H2736567   3.982   8.166   4.055  1.0637  2.5110  1.0486
   71MOL    C2836568   4.100   8.082   3.776 -0.6236  0.5725  0.0595
   71MOL    C2936569   4.231   8.090   3.862  0.2521 -0.0703  0.3202
   71MOL    N3036570   4.245   7.978   3.953  0.3773 -0.5701 -0.2079
   71MOL    C3136571   4.246   7.981   4.098 -0.4170 -0.3848  0.0265
   71MOL    C3236572   4.274   7.846   4.146  0.7100 -0.2022  0.0843
   71MOL    C3336573   4.287   7.826   4.278  0.7913 -1.2070 -0.0727
   71MOL    C3436574   4.283   7.931   4.372  0.1636 -0.2250 -0.4077
   71MOL    C3536575   4.258   8.059   4.328  0.0324  0.4427 -0.1931
   71MOL    C3636576   4.236   8.085   4.189  0.0291 -0.4652 -0.1967
   71MOL    C3736577   4.287   7.760   4.028  0.5152 -0.3191  0.1431
   71MOL    C3836578   4.262   7.846   3.917  0.6143  0.1697 -0.0178
   71MOL    C3936579   4.265   7.783   3.785  0.4842  0.1852 -0.1397
   71MOL    C4036580   4.273   7.641   3.773 -0.2098 -0.1263  0.6205
   71MOL    C4136581   4.291   7.560   3.883 -0.2518  0.1287 -0.4813
   71MOL    C4236582   4.302   7.621   4.008 -0.6172 -0.6887  0.1624
   71MOL    H4336583   4.099   8.008   3.697 -0.5687 -0.0599  0.6449
   71MOL    H4436584   4.085   8.180   3.729  0.2385  0.6304 -0.0932
   71MOL    H4536585   4.235   8.180   3.923  1.2279  0.2190 -0.1641
   71MOL    H4636586   4.313   7.727   4.313 -2.0122 -2.2646 -0.7647
   71MOL    H4736587   4.311   7.919   4.476 -1.8112  0.4120  0.2220
   71MOL    H4836588   4.244   8.145   4.391 -2.2021 -0.2123  0.2536
   71MOL    H4936589   4.218   8.188   4.161  0.2303 -0.7888 -1.5705
   71MOL    H5036590   4.260   7.838   3.692 -2.4854 -2.4303 -1.6059
   71MOL    H5136591   4.277   7.590   3.678 -1.9677  0.8391  0.0080
   71MOL    H5236592   4.285   7.452   3.884 -1.0397  0.1712 -0.1784
   71MOL    H5336593   4.316   7.568   4.101  1.4230 -0.5729 -0.0465
   71MOL    C5436594   4.351   8.108   3.767 -0.8712  0.5763 -0.7640
   71MOL    C5536595   4.356   0.008   3.678 -0.1333 -0.5317 -0.0588
   71MOL    N5636596   4.307   0.127   3.749  0.5861 -0.4437  0.2648
   71MOL    C5736597   4.201   0.205   3.704 -0.0020 -0.4137  0.2296
   71MOL    C5836598   4.192   0.328   3.780  0.2257 -0.4297  0.4501
   71MOL    C5936599   4.090   0.422   3.753 -0.0021 -0.3289 -0.1639
   71MOL    C6036600   4.008   0.403   3.638 -0.8919 -0.5744  0.0681
   71MOL    C6136601   4.023   0.286   3.557 -0.5035  0.3998  0.2506
   71MOL    C6236602   4.116   0.186   3.596  0.7702 -0.1095  0.2808
   71MOL    C6336603   4.294   0.319   3.883  0.0148  1.0042  0.1197
   71MOL    C6436604   4.362   0.197   3.861 -0.1061  0.0417  0.0642
   71MOL    C6536605   4.468   0.158   3.944  0.5209 -0.6882  0.2647
   71MOL    C6636606   4.510   0.245   4.037 -0.3270  0.3917  0.5391
   71MOL    C6736607   4.448   0.370   4.053 -0.3016  0.7550 -0.0292
   71MOL    C6836608   4.341   0.409   3.975 -0.1594 -0.5721 -0.0631
   71MOL    H6936609   4.442   8.102   3.827 -1.7214 -1.2211  0.3837
   71MOL    H7036610   4.358   8.026   3.695 -1.6963  1.3648 -1.7520
   71MOL    H7136611   4.291   8.216   3.593 -1.2818  0.4731  0.5747
   71MOL    H7236612   4.087   0.510   3.816  3.0386  0.9769 -1.7212
   71MOL    H7336613   3.946   0.482   3.597  0.0876  0.7230  1.0478
   71MOL    H7436614   3.954   0.268   3.476 -0.0955 -0.4854  0.0983
   71MOL    H7536615   4.130   0.100   3.532 -1.4975 -1.6590  1.8013
   71MOL    H7636616   4.518   0.062   3.936  1.9471 -0.0591  1.4567
   71MOL    H7736617   4.588   0.219   4.106  1.1542  0.1545 -1.1665
   71MOL    H7836618   4.483   0.431   4.135 -1.5738  1.2220  0.1730
   71MOL    H7936619   4.292   0.502   4.000 -0.8987 -1.5708  2.3088
   71MOL    C8036620   4.497   0.029   3.617  0.4969  0.1845 -0.4353
   71MOL    C8136621   4.553   8.143   3.525  0.8183 -0.0370 -0.4444
   71MOL    N8236622   4.447   8.083   3.439  0.3241 -0.2323 -0.4634
   71MOL    C8336623   4.439   7.943   3.437 -0.2336  0.1799  0.2907
   71MOL    C8436624   4.327   7.909   3.356  0.7189 -0.3720  0.2295
   71MOL    C8536625   4.284   7.779   3.346 -0.0895  0.5557 -0.6799
   71MOL    C8636626   4.361   7.672   3.391 -0.0726  0.0583 -0.3500
   71MOL    C8736627   4.476   7.696   3.466  0.0839  0.4391  0.5952
   71MOL    C8836628   4.508   7.829   3.499 -0.5375  1.1781  0.5620
   71MOL    C8936629   4.280   8.034   3.300 -0.2731  0.4005  0.2581
   71MOL    C9036630   4.359   8.138   3.349  0.8814 -0.1402  0.1989
   71MOL    C9136631   4.331   0.045   3.312  0.1452  0.4725 -0.8614
   71MOL    C9236632   4.235   0.072   3.211 -0.5121  0.3511  0.3529
   71MOL    C9336633   4.151   8.194   3.163 -0.1077  0.2425 -0.5998
   71MOL    C9436634   4.177   8.066   3.207  0.5601  0.3309  0.9202
   71MOL    H9536635   4.494   0.116   3.552  0.1523  0.0596 -0.5866
   71MOL    H9636636   4.564   0.063   3.696 -0.4587  1.1486 -0.0219
   71MOL    H9736637   4.589   8.062   3.588  0.9374  1.8813  2.0623
   71MOL    H9836638   4.191   7.761   3.294 -1.3505 -1.0537  2.0205
   71MOL    H9936639   4.319   7.572   3.388  0.1968 -0.0592 -0.1681
   71MOL   H10036640   4.530   7.616   3.516 -0.9596 -1.9985 -2.0852
   71MOL   H10136641   4.597   7.848   3.558  0.2442 -1.2538  0.1832
   71MOL   H10236642   4.383   0.134   3.344 -2.1019  1.9526 -1.2474
   71MOL   H10336643   4.219   0.173   3.174  2.7341  0.5367 -0.6948
   71MOL   H10436644   4.082   8.215   3.083 -0.1179  1.6704 -0.2357
   71MOL   H10536645   4.140   7.977   3.160  1.6757 -0.7108  1.9888
   71MOL   C10636646   4.666   8.203   3.438  0.3474  0.4877 -0.2606
   71MOL   C10736647   4.767   8.106   3.370  0.1999  0.5092  0.7225
   71MOL   N10836648   4.764   8.104   3.226 -0.3716 -0.1668 -0.1507
   71MOL   C10936649   4.769   7.989   3.147 -0.0346  0.2955  0.4032
   71MOL   C11036650   4.761   8.019   3.009 -0.5675  0.8387 -0.2211
   71MOL   C11136651   4.755   7.919   2.917  0.4809  0.8373  1.3244
   71MOL   C11236652   4.773   7.782   2.959 -0.6018  0.6556  0.0944
   71MOL   C11336653   4.802   7.754   3.091  0.2695 -0.6515 -0.2879
   71MOL   C11436654   4.791   7.857   3.190  0.0672  0.3068 -0.2004
   71MOL   C11536655   4.764   8.166   3.007  0.7472 -0.1068  0.5668
   71MOL   C11636656   4.758   8.214   3.138 -0.3685  0.2299 -0.0973
   71MOL   C11736657   4.756   0.123   3.161 -0.1218 -0.5138 -0.1860
   71MOL   C11836658   4.772   0.213   3.055 -0.4091 -0.1285 -0.5967
   71MOL   C11936659   4.785   0.168   2.920 -0.6056  0.4970  0.2425
   71MOL   C12036660   4.785   0.026   2.901 -0.8214 -0.7692  0.2522
   71MOL   H12136661   4.617   0.037   3.363  2.0291  1.9712 -0.1964
   71MOL   H12236662   4.719   0.052   3.496  0.9149  0.4534 -0.7318
   71MOL   H12336663   4.748   8.003   3.399  0.9597 -0.5440 -2.3681
   71MOL   H12436664   4.745   7.945   2.813 -0.0187  2.9132  1.8724
   71MOL   H12536665   4.793   7.712   2.879  2.1731  0.4543  0.9267
   71MOL   H12636666   4.812   7.654   3.130 -0.4347  0.3199  2.5103
   71MOL   H12736667   4.802   7.833   3.295 -0.3563  3.4790  0.6295
   71MOL   H12836668   4.737   0.169   3.257  1.8631  0.4696 -0.2374
   71MOL   H12936669   4.775   0.320   3.068 -1.4125 -0.3444  1.6192
   71MOL   H13036670   4.810   0.237   2.841 -0.2199  1.3383  1.0855
   71MOL   H13136671   4.798   8.204   2.806 -0.0760  0.5335 -0.3423
   71MOL   C13236672   4.913   8.145   3.409  0.1740  0.3120  0.6277
   71MOL   C13336673   4.949   8.099   3.551 -0.3431 -0.1407 -1.4276
   71MOL   N13436674   4.926   7.958   3.580 -0.7570  0.1561  0.4076
   71MOL   C13536675   4.832   7.915   3.679 -0.4597 -0.2411 -0.3328
   71MOL   C13636676   4.836   7.773   3.669  0.8450  0.5400  0.4591
   71MOL   C13736677   4.741   7.698   3.745 -0.0053  0.2434  0.6106
   71MOL   C13836678   4.659   7.763   3.834  0.7827  0.6505 -0.3404
   71MOL   C13936679   4.654   7.902   3.851  0.2704  0.0314 -0.0147
   71MOL   C14036680   4.740   7.974   3.770  0.2116 -0.4248 -0.1628
   71MOL   C14136681   4.936   7.729   3.576 -0.3341 -0.3393 -0.5317
   71MOL   C14236682   4.988   7.843   3.524 -1.3367  0.4151 -0.7640
   71MOL   C14336683   5.084   7.833   3.423  0.0742 -0.3407 -0.2540
   71MOL   C14436684   5.135   7.712   3.379 -0.0727 -0.7138  0.7843
   71MOL   C14536685   5.084   7.597   3.434  0.2975 -0.2052 -0.5314
   71MOL   C14636686   4.986   7.601   3.533  0.3901  0.8454 -0.3498
   71MOL   H14736687   4.974   8.085   3.341 -0.6144  0.7701 -0.4923
   71MOL   H14836688   4.926   0.021   3.377  0.0242 -0.1942 -1.0969
   71MOL   H14936689   4.877   8.152   3.614 -0.2249 -0.4623 -1.0192
   71MOL   H15036690   4.708   7.600   3.714  0.3056  0.7841 -1.5033
   71MOL   H15136691   4.589   7.700   3.887  2.6215  0.5331  2.0728
   71MOL   H15236692   4.584   7.951   3.917  1.3418  0.9164  0.4785
   71MOL   H15336693   4.739   8.082   3.782 -1.4068 -0.2917 -1.3314
   71MOL   H15436694   5.119   7.925   3.377 -3.0618  0.4194 -1.2139
   71MOL   H15536695   5.198   7.707   3.292 -0.1220 -0.1698  0.7138
   71MOL   H15636696   5.132   7.505   3.404  1.8615  0.6012 -0.5660
   71MOL   H15736697   4.950   7.510   3.578 -1.2603  2.1859  1.1616
   71MOL   C15836698   5.093   8.144   3.596  0.0491  0.7453 -0.0822
   71MOL   C15936699   5.135   0.066   3.574 -0.5356 -0.1502 -0.3568
   71MOL   N16036700   5.029   0.156   3.630  0.2881  0.1735  0.4382
   71MOL   C16136701   4.950   0.249   3.558 -0.1113 -0.0575 -0.4965
   71MOL   C16236702   4.855   0.312   3.646  0.6566  0.6556  0.6456
   71MOL   C16336703   4.758   0.401   3.589 -0.3793  0.9864 -0.5962
   71MOL   C16436704   4.756   0.434   3.456  0.4067 -0.3008  0.1121
   71MOL   C16536705   4.867   0.388   3.377 -0.5555 -0.9284 -0.7049
   71MOL   C16636706   4.953   0.288   3.425 -0.0523 -0.0187  0.2393
   71MOL   C16736707   4.882   0.262   3.774  0.0426 -0.2561 -0.5709
   71MOL   C16836708   4.990   0.170   3.769 -0.2196 -0.1624  0.3660
   71MOL   C16936709   5.029   0.104   3.885 -0.1160  0.2711  0.1527
   71MOL   C17036710   4.984   0.149   4.007 -0.4794 -0.6945  0.8896
   71MOL   C17136711   4.878   0.241   4.021  0.8175 -0.0437  0.0783
   71MOL   C17236712   4.828   0.295   3.902  0.0489 -0.2043  0.2352
   71MOL   H17336713   5.111   8.109   3.698 -0.6537 -1.7169 -0.7746
   71MOL   H17436714   5.163   8.088   3.534  0.8559 -1.6275  2.8369
   71MOL   H17536715   5.148   0.075   3.466 -0.1984 -0.6540 -0.3605
   71MOL   H17636716   4.688   0.440   3.662  0.3394  2.5546 -0.7299
   71MOL   H17736717   4.698   0.520   3.428 -0.0159 -0.6703 -0.1605
   71MOL   H17836718   4.881   0.414   3.273  0.8959 -0.6552 -0.4647
   71MOL   H17936719   5.022   0.239   3.358 -1.8029 -4.7247  1.6688
   71MOL   H18036720   5.098   0.022   3.868 -0.8138 -0.4007  0.4976
   71MOL   H18136721   5.027   0.106   4.096  0.2793  0.9328  1.3300
   71MOL   H18236722   4.827   0.271   4.112  0.3201  3.1333 -1.1543
   71MOL   H18336723   4.746   0.365   3.912  0.1606 -0.1443  0.7480
   71MOL   C18436724   5.273   0.092   3.626  0.2152  0.0140 -0.2507
   71MOL   C18536725   5.331   0.234   3.597  0.1875  0.5596  0.1842
   71MOL   N18636726   5.428   0.279   3.694 -0.1127 -0.2428  0.7634
   71MOL   C18736727   5.421   0.388   3.774 -0.0406  0.2424 -0.6338
   71MOL   C18836728   5.539   0.401   3.851 -0.5918 -0.4260  0.5015
   71MOL   C18936729   5.547   0.514   3.937 -0.3674  0.1525 -0.1193
   71MOL   C19036730   5.447   0.612   3.946  0.2288  0.5190 -0.0705
   71MOL   C19136731   5.332   0.598   3.865 -0.4099  0.2153 -0.0918
   71MOL   C19236732   5.320   0.484   3.783 -0.0768  0.2933 -0.0938
   71MOL   C19336733   5.622   0.288   3.822  0.1907 -0.5229 -0.5280
   71MOL   C19436734   5.555   0.210   3.723  0.2418  0.3750  0.2193
   71MOL   C19536735   5.608   0.090   3.680  0.3384 -0.5776 -0.3433
   71MOL   C19636736   5.727   0.046   3.729 -0.2338 -0.3052 -0.4425
   71MOL   C19736737   5.796   0.115   3.826  0.0175  0.5303  0.2989
   71MOL   C19836738   5.742   0.234   3.878 -0.3559  0.1462  0.1624
   71MOL   H19936739   5.257   0.080   3.734  2.4364  0.0948  0.1154
   71MOL   H20036740   5.341   0.011   3.598  2.0153  0.9997  1.1311
   71MOL   H20136741   5.239   0.291   3.608  0.8347  1.6931 -0.2542
   71MOL   H20236742   5.637   0.527   3.995  0.2425  0.1447 -1.0679
   71MOL   H20336743   5.456   0.694   4.015 -0.4475  0.4167  0.1426
   71MOL   H20436744   5.252   0.670   3.869  0.2868  1.0409 -0.8938
   71MOL   H20536745   5.227   0.469   3.730 -0.6834  1.7387  0.5362
   71MOL   H20636746   5.543   0.030   3.618 -0.3484 -2.2054  1.8787
   71MOL   H20736747   5.758   8.173   3.705  2.2335 -0.2809  2.2950
   71MOL   H20836748   5.886   0.071   3.867 -1.5095 -1.7850  1.2877
   71MOL   H20936749   5.793   0.285   3.958 -1.5413  3.7103 -1.2471
   71MOL   C21036750   5.376   0.264   3.456 -0.2307 -0.1938  0.0874
   71MOL   C21136751   5.475   0.173   3.383 -0.4962 -0.2725  0.2816
   71MOL   N21236752   5.432   0.040   3.347  1.1696 -0.2423 -0.0441
   71MOL   C21336753   5.500   8.148   3.370 -0.3681 -0.1033  0.2275
   71MOL   C21436754   5.429   8.035   3.320  0.6457 -0.1726 -0.0504
   71MOL   C21536755   5.480   7.903   3.332  0.1104 -0.1960 -0.3806
   71MOL   C21636756   5.616   7.882   3.380  0.2257 -0.0702 -0.1589
   71MOL   C21736757   5.689   7.998   3.415  0.5316  0.0967 -0.1054
   71MOL   C21836758   5.625   8.121   3.426 -0.1925  0.2372  0.4813
   71MOL   C21936759   5.313   8.088   3.258  0.0215  0.0717 -0.1428
   71MOL   C22036760   5.318   0.001   3.272  0.4755 -0.3952 -0.0080
   71MOL   C22136761   5.218   0.086   3.216 -0.0643 -0.6622 -0.3030
   71MOL   C22236762   5.112   0.035   3.141  0.7729  0.1799 -0.4810
   71MOL   C22336763   5.109   8.121   3.113 -0.5349  0.5366  0.1417
   71MOL   C22436764   5.211   8.035   3.171  0.4281  0.0187 -0.2259
   71MOL   H22536765   5.285   0.272   3.397  0.1504 -1.6926 -0.7261
   71MOL   H22636766   5.413   0.367   3.454  1.5989 -0.8626 -1.7438
   71MOL   H22736767   5.560   0.161   3.450 -2.1824 -0.6511  2.4149
   71MOL   H22836768   5.411   7.827   3.297 -2.0557  1.1810  0.8247
   71MOL   H22936769   5.660   7.784   3.371 -2.2739 -1.1767 -0.6776
   71MOL   H23036770   5.794   7.996   3.442  0.3570 -1.9459  0.5121
   71MOL   H23136771   5.692   8.204   3.446  0.1007  0.4826 -1.4115
   71MOL   H23236772   5.226   0.194   3.226  0.2539 -0.5901 -1.3290
   71MOL   H23336773   5.027   0.084   3.097  0.7829  0.6957  0.0747
   71MOL   H23436774   5.043   8.087   3.034 -0.9321  0.8415  0.3418
   71MOL   H23536775   5.204   7.933   3.137 -0.6027  0.0050  0.0087
   71MOL   C23636776   5.516   0.242   3.253  0.3449 -0.2437 -0.5119
   71MOL   C23736777   5.618   0.360   3.271 -0.2024  0.1091  0.0637
   71MOL   N23836778   5.741   0.336   3.351  0.5100  0.1165  0.4939
   71MOL   C23936779   5.791   0.407   3.462  0.5110  0.5987  0.1842
   71MOL   C24036780   5.905   0.345   3.512  0.9540  0.4141 -0.3021
   71MOL   C24136781   5.962   0.387   3.638 -0.0989  0.2801 -0.2594
   71MOL   C24236782   5.912   0.508   3.695 -0.2577 -0.6764  0.4240
   71MOL   C24336783   5.796   0.572   3.649  0.0059  0.1136  0.2818
   71MOL   C24436784   5.737   0.521   3.529 -0.0178  0.0814  0.2558
   71MOL   C24536785   5.922   0.226   3.431  0.2434  0.5158  1.0756
   71MOL   C24636786   5.824   0.228   3.325 -0.3127 -0.1645  0.1622
   71MOL   C24736787   5.822   0.124   3.231 -0.4015 -0.3657 -0.9235
   71MOL   C24836788   5.921   0.025   3.236 -0.2251  0.4435 -0.2680
   71MOL   C24936789   6.025   0.023   3.324  0.4218 -0.0898 -0.0404
   71MOL   C25036790   6.024   0.117   3.429  0.1205  0.2013  0.0720
   71MOL   H25136791   5.574   0.178   3.185  0.6855 -1.4783  0.9109
   71MOL   H25236792   5.430   0.267   3.190  0.4715 -0.2499 -0.6879
   71MOL   H25336793   5.565   0.438   3.327  1.1820  0.5926  0.7132
   71MOL   H25436794   6.046   0.328   3.672 -1.2897 -1.0616  0.4442
   71MOL   H25536795   5.956   0.540   3.788 -0.4398 -0.0158  0.2861
   71MOL   H25636796   5.742   0.655   3.691  0.0708  0.4436 -0.2767
   71MOL   H25736797   5.646   0.569   3.496  0.2827  3.5842  4.1811
   71MOL   H25836798   5.752   0.121   3.150 -1.5524 -0.1441  0.0512
   71MOL   H25936799   5.917   8.181   3.154  2.2577 -0.9822  0.7694
   71MOL   H26036800   6.107   8.180   3.318  0.7674  0.4000 -1.2164
   71MOL   H26136801   6.097   0.119   3.508  1.3563 -1.5596 -0.9838
   71MOL   C26236802   5.638   0.451   3.146  0.2407  0.1065 -0.6605
   71MOL   C26336803   5.764   0.543   3.132  0.4234  0.1428 -0.0626
   71MOL   N26436804   5.883   0.460   3.094 -0.3738 -0.3918 -0.0910
   71MOL   C26536805   6.004   0.460   3.162  0.0459  0.4662  0.6990
   71MOL   C26636806   6.085   0.354   3.107 -0.0217 -0.0464 -0.3665
   71MOL   C26736807   6.206   0.326   3.170 -0.6656  0.5516 -0.2367
   71MOL   C26836808   6.244   0.396   3.284 -0.1408 -0.2658  0.3211
   71MOL   C26936809   6.171   0.505   3.330  0.2499 -0.3847  0.3402
   71MOL   C27036810   6.046   0.535   3.269  0.3789 -0.4095  0.6861
   71MOL   C27136811   6.019   0.296   2.995  0.0783 -0.0432 -0.8778
   71MOL   C27236812   5.906   0.379   2.979  0.9405  0.0086 -0.0652
   71MOL   C27336813   5.833   0.361   2.859  1.4986 -0.0476  0.0450
   71MOL   C27436814   5.862   0.267   2.757  0.3993 -0.1078 -0.4293
   71MOL   C27536815   5.970   0.181   2.778 -0.1542  0.1429  0.3701
   71MOL   C27636816   6.046   0.191   2.901 -0.0156  0.3807  0.0144
   71MOL   H27736817   5.641   0.385   3.059  1.6204 -0.0511 -0.5040
   71MOL   H27836818   5.547   0.511   3.143  0.3259  0.3288  0.8089
   71MOL   H27936819   5.790   0.587   3.228  1.4689  0.4854 -0.5006
   71MOL   H28036820   6.270   0.243   3.145  0.7823  1.6899 -0.4162
   71MOL   H28136821   6.337   0.366   3.331 -0.3376 -1.7358 -0.1964
   71MOL   H28236822   6.194   0.557   3.421 -0.2754  0.0948  0.2034
   71MOL   H28336823   5.976   0.602   3.319 -0.8255 -0.4123 -0.9591
   71MOL   H28436824   5.747   0.426   2.847  1.5323  0.0210  0.1820
   71MOL   H28536825   5.809   0.245   2.665  1.1948 -2.1478 -0.4244
   71MOL   H28636826   5.984   0.100   2.708 -1.0968 -0.0895  0.4415
   71MOL   H28736827   6.132   0.129   2.921  0.3179  0.3387 -1.5281
   71MOL   C28836828   5.746   0.654   3.023  0.1811  0.1109 -0.0460
   71MOL   C28936829   5.660   0.769   3.063  0.3338  0.1177 -0.1576
   71MOL   N29036830   5.641   0.793   3.205 -0.0762 -0.1758 -0.1150
   71MOL   C29136831   5.519   0.780   3.276  0.0490  0.0464  0.1918
   71MOL   C29236832   5.537   0.801   3.419 -0.0385  0.1199  0.3767
   71MOL   C29336833   5.424   0.798   3.508 -0.6598  0.3634 -0.1867
   71MOL   C29436834   5.299   0.759   3.458 -0.7377  0.5022  0.2330
   71MOL   C29536835   5.288   0.716   3.328 -0.0485  1.2246  0.2935
   71MOL   C29636836   5.392   0.726   3.236 -0.8592  0.3869 -0.2761
   71MOL   C29736837   5.675   0.850   3.432 -0.1346  0.0755 -0.3375
   71MOL   C29836838   5.735   0.830   3.299  0.3289  0.6916  0.3729
   71MOL   C29936839   5.870   0.858   3.284  0.0864 -0.4242 -0.1343
   71MOL   C30036840   5.951   0.901   3.392 -0.1189 -0.2542  0.0737
   71MOL   C30136841   5.896   0.917   3.520 -0.1065 -0.1990 -0.0949
   71MOL   C30236842   5.759   0.894   3.539  0.5502  0.0211  0.8325
   71MOL   H30336843   5.838   0.711   3.010  0.7756 -0.8099  0.0281
   71MOL   H30436844   5.715   0.613   2.927  0.5365  0.1836 -0.1943
   71MOL   H30536845   5.565   0.727   3.031  0.8720 -0.3989 -1.0838
   71MOL   H30636846   5.425   0.827   3.612  2.3047 -0.5343  0.0579
   71MOL   H30736847   5.213   0.762   3.524 -0.2649  0.9507  0.8355
   71MOL   H30836848   5.195   0.674   3.293  1.3504  0.1285 -2.1870
   71MOL   H30936849   5.377   0.703   3.132 -0.5461 -2.0683  0.2014
   71MOL   H31036850   5.922   0.837   3.192  0.7658  1.6935 -0.2768
   71MOL   H31136851   6.054   0.920   3.367 -0.5192  1.3190 -0.4812
   71MOL   H31236852   5.961   0.936   3.604 -1.0248  1.5010  0.2449
   71MOL   H31336853   5.725   0.896   3.642  1.1729 -0.0260  1.0401
   71MOL   C31436854   5.685   0.904   2.989 -0.0847 -0.7316 -0.1809
   71MOL   C31536855   5.731   0.896   2.839 -0.3267  0.2865 -0.8400
   71MOL   N31636856   5.670   0.797   2.750  0.8179  0.0954 -0.6677
   71MOL   C31736857   5.743   0.705   2.677  0.5546  0.8033  0.3990
   71MOL   C31836858   5.649   0.614   2.616  0.1000 -0.1589 -0.5335
   71MOL   C31936859   5.702   0.504   2.545  0.2804 -0.9362  0.1166
   71MOL   C32036860   5.838   0.483   2.526 -0.7261 -0.0710 -0.5155
   71MOL   C32136861   5.935   0.566   2.593 -0.3553 -0.0634  0.1608
   71MOL   C32236862   5.885   0.679   2.663 -0.4988  0.3920  0.0561
   71MOL   C32336863   5.513   0.665   2.645  0.3827 -0.2574 -0.1042
   71MOL   C32436864   5.533   0.779   2.732 -0.2161 -0.1140  0.4684
   71MOL   C32536865   5.424   0.855   2.782 -0.1658 -0.1634  0.3267
   71MOL   C32636866   5.292   0.817   2.745  0.1990  0.5050 -0.7031
   71MOL   C32736867   5.269   0.704   2.662 -0.5382  0.3151  0.0873
   71MOL   C32836868   5.381   0.629   2.614  0.2521 -0.1404  0.1528
   71MOL   H32936869   5.589   0.957   2.993 -0.4487 -0.9852 -3.6607
   71MOL   H33036870   5.759   0.965   3.041 -1.1914  2.0029 -1.7076
   71MOL   H33136871   5.833   0.862   2.852 -0.8077 -0.0004  3.0001
   71MOL   H33236872   5.632   0.435   2.501  0.7866 -0.9759 -0.6334
   71MOL   H33336873   5.874   0.401   2.466  0.5985 -0.2195  0.4562
   71MOL   H33436874   6.042   0.562   2.582  0.0398  1.6359  2.9240
   71MOL   H33536875   5.956   0.737   2.720 -1.0547  0.4955  0.6616
   71MOL   H33636876   5.445   0.949   2.831 -1.2325  0.4213 -0.3032
   71MOL   H33736877   5.208   0.883   2.760  0.4434  0.8363 -0.7782
   71MOL   H33836878   5.172   0.668   2.634 -0.5321  1.8787 -2.1115
   71MOL   H33936879   5.359   0.548   2.546 -1.1952  0.0187  0.4165
   71MOL   C34036880   5.736   1.034   2.761 -0.1962 -0.1561 -1.2678
   71MOL   C34136881   5.860   1.116   2.799  0.2794 -0.0636 -0.9695
   71MOL   N34236882   5.996   1.063   2.768  0.1920 -0.3437 -0.1461
   71MOL   C34336883   6.088   1.018   2.861  0.0213  0.6579 -0.0375
   71MOL   C34436884   6.207   0.982   2.788 -0.2586  0.2320 -0.4750
   71MOL   C34536885   6.323   0.946   2.863  0.2257  0.2258 -0.2095
   71MOL   C34636886   6.315   0.936   3.010  1.1777  0.1852 -0.5407
   71MOL   C34736887   6.189   0.961   3.079  0.4055 -0.1785 -0.5161
   71MOL   C34836888   6.081   1.004   3.005  0.2438 -0.6184  0.7461
   71MOL   C34936889   6.189   1.006   2.651  0.2114 -0.9711  0.5494
   71MOL   C35036890   6.061   1.053   2.645  0.6185 -0.8973  0.1336
   71MOL   C35136891   6.009   1.086   2.515 -0.5173  0.2395 -0.6278
   71MOL   C35236892   6.088   1.051   2.399 -0.0572  0.4195  0.3238
   71MOL   C35336893   6.219   1.008   2.404 -0.6955 -0.0014 -0.1048
   71MOL   C35436894   6.277   0.999   2.531  0.5696 -0.2492  0.2785
   71MOL   H35536895   5.740   1.013   2.654  0.8280  2.2614 -1.7284
   71MOL   H35636896   5.646   1.091   2.782 -0.9762 -1.0386 -2.1401
   71MOL   H35736897   5.855   1.114   2.908 -0.9905  0.1348 -1.0204
   71MOL   H35836898   6.411   0.942   2.801  1.2359  1.6619  1.0921
   71MOL   H35936899   6.405   0.909   3.064  1.5304  0.9782 -0.7413
   71MOL   H36036900   6.184   0.955   3.187  0.8045 -1.0652 -0.5363
   71MOL   H36136901   5.989   1.035   3.051 -2.2571 -3.4537 -2.0941
   71MOL   H36236902   5.911   1.131   2.506 -0.0174  1.1971 -1.3417
   71MOL   H36336903   6.043   1.071   2.303 -1.4618 -0.3572  0.7982
   71MOL   H36436904   6.273   0.988   2.313  2.5381  2.2921  1.1892
   71MOL   H36536905   6.377   0.958   2.536  1.3765  1.3291 -1.8217
   71MOL   C36636906   5.838   1.263   2.747  0.5985  0.1468  0.1521
   71MOL   C36736907   5.737   1.355   2.823 -0.3924 -0.5655  0.3697
   71MOL   N36836908   5.710   1.316   2.964  0.7113  0.0217  0.2815
   71MOL   C36936909   5.596   1.253   3.021 -0.0806 -0.1786  0.9292
   71MOL   C37036910   5.619   1.228   3.160  1.1621 -0.4415  1.3439
   71MOL   C37136911   5.513   1.166   3.234  0.7067  0.5714  0.1695
   71MOL   C37236912   5.392   1.139   3.174  0.6486  0.3017 -0.0984
   71MOL   C37336913   5.367   1.158   3.037  0.4291 -0.3728 -0.7072
   71MOL   C37436914   5.473   1.207   2.963  0.0888  0.1942  0.1729
   71MOL   C37536915   5.754   1.261   3.186  0.2741 -0.2013 -0.0552
   71MOL   C37636916   5.813   1.307   3.067  0.3233  0.6241  0.3297
   71MOL   C37736917   5.951   1.336   3.067  0.1789 -0.5409  0.4844
   71MOL   C37836918   6.032   1.304   3.177 -0.6694  0.2681  0.2585
   71MOL   C37936919   5.976   1.258   3.293 -0.2942  0.6276  0.2664
   71MOL   C38036920   5.835   1.236   3.300 -0.2144 -0.5462 -0.2815
   71MOL   H38136921   5.939   1.304   2.747  0.2581  1.0264 -1.4914
   71MOL   H38236922   5.809   1.271   2.642  1.2813  0.8500  0.0149
   71MOL   H38336923   5.646   1.343   2.765  0.3577  1.5334 -1.2743
   71MOL   H38436924   5.527   1.137   3.337 -0.8438  0.1203  0.2687
   71MOL   H38536925   5.320   1.083   3.232  0.1217 -1.8796 -2.7510
   71MOL   H38636926   5.266   1.154   2.999 -0.2519  1.3774  0.8599
   71MOL   H38736927   5.476   1.226   2.857  0.5540 -0.9873 -0.0367
   71MOL   H38836928   5.989   1.366   2.971  1.0244 -0.9609  0.6903
   71MOL   H38936929   6.140   1.304   3.178 -0.6637  1.2032  1.3550
   71MOL   H39036930   6.041   1.224   3.372  0.7387  1.1657 -0.3267
   71MOL   H39136931   5.793   1.180   3.382  1.2269 -0.6385  0.4010
   71MOL   C39236932   5.771   1.511   2.807 -0.1994  0.2031  0.2894
   71MOL   C39336933   5.669   1.614   2.866 -0.3643  0.2906 -0.4655
   71MOL   N39436934   5.712   1.755   2.850  0.3423  0.4891  0.2426
   71MOL   C39536935   5.725   1.856   2.951  0.5145  1.2320  0.4449
   71MOL   C39636936   5.763   1.975   2.888  0.1101 -0.0421 -0.2317
   71MOL   C39736937   5.790   2.083   2.971  0.1881  0.3003 -0.4403
   71MOL   C39836938   5.752   2.081   3.107  0.4571 -0.5112  0.0104
   71MOL   C39936939   5.709   1.958   3.168 -0.8051  0.4561  0.1570
   71MOL   C40036940   5.705   1.843   3.090  0.1341  0.0429  0.0454
   71MOL   C40136941   5.768   1.951   2.746 -0.3439 -0.2960 -0.3167
   71MOL   C40236942   5.737   1.811   2.726 -1.2941 -0.1542  0.0203
   71MOL   C40336943   5.738   1.765   2.596 -0.2708  0.2262  0.1410
   71MOL   C40436944   5.755   1.839   2.481  0.2498 -0.5732 -0.8632
   71MOL   C40536945   5.777   1.975   2.501  0.6276 -0.2717 -0.3516
   71MOL   C40636946   5.791   2.031   2.631 -0.4487 -0.2664  0.4400
   71MOL   H40736947   5.863   1.527   2.864 -0.5499 -0.1910  0.9816
   71MOL   H40836948   5.792   1.519   2.701 -1.0668 -1.8589 -0.0511
   71MOL   H40936949   5.670   1.590   2.972  2.3999  0.9477 -0.3016
   71MOL   H41036950   5.821   2.176   2.925  0.4997  0.4771  0.1131
   71MOL   H41136951   5.771   2.172   3.163 -0.9352  0.5707 -1.2556
   71MOL   H41236952   5.714   1.951   3.276  3.8637  1.3210  0.0757
   71MOL   H41336953   5.679   1.745   3.127 -2.0202  0.3911 -0.5253
   71MOL   H41436954   5.708   1.662   2.585 -2.0517  0.3502  3.1356
   71MOL   H41536955   5.738   1.800   2.382  0.6158 -1.3842 -0.6114
   71MOL   H41636956   5.774   2.037   2.412  0.8489  0.0502 -0.1364
   71MOL   H41736957   5.833   2.127   2.654  1.1997 -0.1317 -2.8084
   71MOL   C41836958   5.527   1.577   2.812  0.2628  0.3381 -0.5800
   71MOL   C41936959   5.420   1.679   2.833  0.2688 -0.8824  0.4838
   71MOL   N42036960   5.313   1.670   2.731  0.1444 -0.1718  0.4286
   71MOL   C42136961   5.298   1.744   2.612 -0.2319 -0.3907 -0.4293
   71MOL   C42236962   5.173   1.704   2.554  0.0803 -0.1997  0.4233
   71MOL   C42336963   5.124   1.784   2.444 -0.7902  0.4228  0.6937
   71MOL   C42436964   5.204   1.889   2.388  0.2236  0.5799 -0.9097
   71MOL   C42536965   5.324   1.923   2.447  0.6164  0.6280  0.2602
   71MOL   C42636966   5.376   1.849   2.551 -0.6427 -0.1403  0.3474
   71MOL   C42736967   5.130   1.589   2.619 -0.1810  0.3209  0.8811
   71MOL   C42836968   5.223   1.564   2.722  0.8037 -0.2070 -0.4264
   71MOL   C42936969   5.208   1.445   2.802 -0.0995  0.4089  0.4633
   71MOL   C43036970   5.106   1.351   2.781  0.5221  0.4174  0.2620
   71MOL   C43136971   5.018   1.379   2.676 -0.7732  0.8525  0.6422
   71MOL   C43236972   5.032   1.493   2.593 -0.3971  0.8429  0.2478
   71MOL   H43336973   5.538   1.566   2.705  0.7028 -0.0358 -0.5024
   71MOL   H43436974   5.490   1.484   2.856  1.5326  0.7051  1.3627
   71MOL   H43536975   5.466   1.778   2.825 -0.3004 -0.8195 -2.6841
   71MOL   H43636976   5.040   1.748   2.386 -0.6240  1.2148 -0.0482
   71MOL   H43736977   5.161   1.940   2.302 -0.5712  1.5367  0.0493
   71MOL   H43836978   5.374   2.014   2.420  3.1953 -0.7987  0.0779
   71MOL   H43936979   5.470   1.876   2.598 -0.9570 -0.1482  0.9956
   71MOL   H44036980   5.266   1.432   2.892 -1.2528  1.1872  1.3399
   71MOL   H44136981   5.083   1.262   2.837 -1.4893  0.3950 -0.5706
   71MOL   H44236982   4.930   1.325   2.642 -0.2895 -0.1701  0.9952
   71MOL   H44336983   4.965   1.514   2.511  1.2733  1.0297 -1.0903
   71MOL   C44436984   5.368   1.685   2.983 -0.1912  0.1295  0.8095
   71MOL   C44536985   5.251   1.786   3.013  0.1954  0.7049 -0.3139
   71MOL   N44636986   5.194   1.754   3.144 -0.0965 -0.4635  0.4096
   71MOL   C44736987   5.061   1.704   3.166 -0.8184 -0.5284  0.9064
   71MOL   C44836988   5.053   1.678   3.307 -0.5279 -0.1551 -0.0325
   71MOL   C44936989   4.931   1.614   3.346  0.8545  0.4412 -0.0070
   71MOL   C45036990   4.826   1.580   3.256 -0.5428  0.3173 -0.8375
   71MOL   C45136991   4.839   1.618   3.127 -0.1721  0.0245  0.4725
   71MOL   C45236992   4.948   1.685   3.082 -0.5839 -0.7296  0.2571
   71MOL   C45336993   5.174   1.720   3.372  0.0261  0.5946 -0.0631
   71MOL   C45436994   5.264   1.759   3.269  0.3923  0.0698  0.4711
   71MOL   C45536995   5.393   1.804   3.296 -0.3485  0.3371  0.5399
   71MOL   C45636996   5.438   1.804   3.426  0.0140  0.1520 -0.2759
   71MOL   C45736997   5.354   1.753   3.525  0.7397 -0.6483 -0.0842
   71MOL   C45836998   5.224   1.709   3.504 -0.3400 -0.1433 -0.3432
   71MOL   H45936999   5.324   1.597   3.031 -0.0854 -0.1177  0.4580
   71MOL   H46037000   5.452   1.697   3.051  1.5516 -2.0230 -0.8980
   71MOL   H46137001   5.179   1.750   2.940  0.4770  1.2243 -0.8531
   71MOL   H46237002   4.933   1.572   3.446  0.6741 -0.3740 -0.3423
   71MOL   H46337003   4.744   1.522   3.296  0.1631 -0.8519 -1.0561
   71MOL   H46437004   4.760   1.581   3.064  0.1454 -1.9730  1.1951
   71MOL   H46537005   4.951   1.707   2.976 -1.4212  0.8739  0.5534
   71MOL   H46637006   5.454   1.845   3.217 -0.2902  0.9727  0.9052
   71MOL   H46737007   5.535   1.848   3.441 -1.0698  2.3894  0.4603
   71MOL   H46837008   5.390   1.745   3.626  0.3730  3.0878  0.4143
   71MOL   H46937009   5.168   1.675   3.590 -0.3911 -0.0492 -0.3401
   71MOL   C47037010   5.291   1.940   2.999 -1.0322  0.2085 -0.3162
   71MOL   C47137011   5.178   2.036   2.953  0.2636  0.6454  0.4342
   71MOL   N47237012   5.222   2.175   2.967  0.0141  0.0701 -0.0171
   71MOL   C47337013   5.169   2.262   3.059 -0.3781 -0.8304  0.3020
   71MOL   C47437014   5.234   2.385   3.049  0.3677 -0.1427 -0.0233
   71MOL   C47537015   5.199   2.486   3.137  0.0771  0.0244  0.1778
   71MOL   C47637016   5.079   2.478   3.208 -1.2280  0.4937  0.5182
   71MOL   C47737017   5.002   2.355   3.221 -0.0981  0.1252 -0.4365
   71MOL   C47837018   5.062   2.246   3.151 -0.4989  0.6036  0.6353
   71MOL   C47937019   5.340   2.367   2.959  0.2892  1.0498 -0.1994
   71MOL   C48037020   5.327   2.243   2.902  0.4692 -0.5780  0.3036
   71MOL   C48137021   5.419   2.199   2.801  0.4055 -0.6564 -0.3396
   71MOL   C48237022   5.515   2.285   2.755  0.3054 -0.0747 -0.4243
   71MOL   C48337023   5.524   2.414   2.808  0.1159  0.1143 -0.0563
   71MOL   C48437024   5.441   2.455   2.910 -0.3098  0.1801 -0.0594
   71MOL   H48537025   5.349   1.977   3.084  1.5876 -0.1855 -1.8696
   71MOL   H48637026   5.361   1.950   2.916  0.8005  0.0912  1.1710
   71MOL   H48737027   5.096   2.021   3.023  0.8878  1.2209  1.3032
   71MOL   H48837028   5.265   2.572   3.134  1.1955 -0.8234 -0.1153
   71MOL   H48937029   5.048   2.562   3.269 -1.5984 -2.2694  4.3258
   71MOL   H49037030   4.911   2.348   3.279 -0.1882  0.6629 -0.5108
   71MOL   H49137031   5.000   2.159   3.164 -1.4261  1.4624  2.1508
   71MOL   H49237032   5.397   2.103   2.756 -2.0856 -2.0151  3.4439
   71MOL   H49337033   5.584   2.247   2.681  1.8509 -1.4050  1.6090
   71MOL   H49437034   5.599   2.482   2.770  0.9417 -0.4831  0.5108
   71MOL   H49537035   5.451   2.550   2.961  0.6164  0.3234 -0.5077
   71MOL   C49637036   5.123   2.003   2.815  0.3418  0.2810 -0.3757
   71MOL   C49737037   5.010   2.097   2.764 -0.4146  0.8774  0.2759
   71MOL   N49837038   4.951   2.057   2.637 -0.0162  0.2371  0.1437
   71MOL   C49937039   4.853   1.957   2.626  0.3323  0.5793 -0.5109
   71MOL   C50037040   4.813   1.940   2.488 -0.8395  0.0905  0.9831
   71MOL   C50137041   4.717   1.841   2.459  0.0889  0.0130 -0.8102
   71MOL   C50237042   4.645   1.778   2.563 -0.0003  0.5771 -1.2965
   71MOL   C50337043   4.679   1.790   2.694  0.0665  0.8751  0.2668
   71MOL   C50437044   4.787   1.880   2.726 -0.3795  0.1291  0.5867
   71MOL   C50537045   4.894   2.034   2.415 -0.3024 -0.6083  0.1281
   71MOL   C50637046   4.976   2.100   2.507  0.0060 -0.2821  0.1419
   71MOL   C50737047   5.064   2.206   2.468  0.8430 -0.3877  0.3629
   71MOL   C50837048   5.087   2.229   2.329 -0.0189 -0.0174  0.2637
   71MOL   C50937049   5.013   2.152   2.235  0.1352 -0.0595 -0.1028
   71MOL   C51037050   4.914   2.062   2.278  0.7921  0.3671 -0.0443
   71MOL   H51137051   5.200   1.995   2.739  0.4885 -1.1676 -0.0807
   71MOL   H51237052   5.071   1.907   2.819 -2.6773  1.8759  0.1242
   71MOL   H51337053   5.047   2.197   2.742 -2.1817  1.2874 -0.9934
   71MOL   H51437054   4.691   1.818   2.357 -0.8336  0.9906 -0.8012
   71MOL   H51537055   4.565   1.709   2.538 -0.3052  0.4447  0.0131
   71MOL   H51637056   4.637   1.727   2.770  0.3041 -1.9301 -1.8723
   71MOL   H51737057   4.807   1.901   2.830  0.1849  1.9402  0.1236
   71MOL   H51837058   5.124   2.260   2.540 -0.3557 -2.4118  2.9523
   71MOL   H51937059   5.162   2.300   2.296 -0.6033 -0.2522 -1.6116
   71MOL   H52037060   5.031   2.162   2.129  0.0095 -1.0278 -0.2210
   71MOL   H52137061   4.850   2.020   2.202  2.3799 -0.2922 -1.0273
   71MOL   H52237062   4.925   2.090   2.831 -0.9898  1.9669 -0.3192
   72MOL     C137063   5.219   7.509   6.024 -1.0019  0.0127  0.3949
   72MOL     C237064   5.358   7.517   5.967 -0.0094  0.5381  0.1586
   72MOL     N337065   5.392   7.649   5.910 -0.2476  0.3434 -0.3821
   72MOL     C437066   5.384   7.770   5.978 -0.0267  0.0087  0.0167
   72MOL     C537067   5.424   7.880   5.892  0.1049 -1.2087  0.8119
   72MOL     C637068   5.420   8.007   5.941 -0.3520 -0.0535  0.4900
   72MOL     C737069   5.388   8.029   6.075  0.6074 -0.7321 -0.9140
   72MOL     C837070   5.352   7.928   6.168 -0.8094 -0.2177 -0.0578
   72MOL     C937071   5.359   7.795   6.112 -0.7325 -0.3004 -0.5062
   72MOL    C1037072   5.457   7.811   5.764 -0.5857 -0.1507  0.1664
   72MOL    C1137073   5.442   7.671   5.776  0.9460 -0.5116 -0.6537
   72MOL    C1237074   5.473   7.585   5.667  0.3330 -0.5595 -0.7621
   72MOL    C1337075   5.523   7.643   5.543  0.7000  0.1404 -0.2213
   72MOL    C1437076   5.542   7.785   5.532 -0.9113  0.2861 -0.4016
   72MOL    C1537077   5.512   7.867   5.645  0.2979  0.5326 -0.6267
   72MOL    H1637078   5.197   7.408   6.058 -0.9551 -0.3753 -0.7053
   72MOL    H1737079   5.159   7.524   5.934  1.6372 -0.3963 -1.4816
   72MOL    H1837080   5.345   7.455   5.878 -1.0611 -1.2550  1.5171
   72MOL    H1937081   5.432   8.096   5.881  2.3174  0.3855  1.5688
   72MOL    H2037082   5.399   8.127   6.118 -0.7997 -1.3718  0.9969
   72MOL    H2137083   5.329   7.946   6.272  2.4913 -0.5250  0.7653
   72MOL    H2237084   5.342   7.713   6.181 -2.2894  0.7587  0.4092
   72MOL    H2337085   5.464   7.478   5.668  0.1968 -0.5510  0.3795
   72MOL    H2437086   5.567   7.575   5.471  0.6898 -2.2960  1.9864
   72MOL    H2537087   5.586   7.833   5.445  1.3768 -0.4197  0.3190
   72MOL    H2637088   5.515   7.974   5.635  1.2420  0.6456  0.8578
   72MOL    H2737089   5.188   7.578   6.103  0.5604  0.9776  0.1841
   72MOL    C2837090   5.470   7.452   6.052  0.2513 -0.0930 -0.2801
   72MOL    C2937091   5.466   7.297   6.069  0.6229  0.1961  0.1921
   72MOL    N3037092   5.460   7.232   5.940  0.1245  0.3424  0.1862
   72MOL    C3137093   5.372   7.121   5.916  0.5852  0.4226  0.3643
   72MOL    C3237094   5.402   7.059   5.790 -0.1231  0.3186 -0.1231
   72MOL    C3337095   5.335   6.944   5.743  0.0627 -0.9906  1.0149
   72MOL    C3437096   5.247   6.874   5.834  0.0948  0.4809 -0.2019
   72MOL    C3537097   5.215   6.932   5.957  0.1091 -0.1912 -0.4144
   72MOL    C3637098   5.272   7.057   5.996 -0.3322  0.2822  0.2525
   72MOL    C3737099   5.503   7.140   5.736 -0.1620 -0.7379  0.3763
   72MOL    C3837100   5.543   7.240   5.832  0.6888  0.5673  0.5370
   72MOL    C3937101   5.659   7.315   5.805  0.5091 -0.7340 -0.8326
   72MOL    C4037102   5.725   7.305   5.682 -0.8093  0.2370 -0.7705
   72MOL    C4137103   5.683   7.212   5.585  0.5587 -0.2938  0.0325
   72MOL    C4237104   5.575   7.129   5.615  0.2516  0.3372 -1.1271
   72MOL    H4337105   5.568   7.483   6.014  1.6391 -3.3410  0.5207
   72MOL    H4437106   5.482   7.506   6.146 -0.4941  1.3101 -0.9706
   72MOL    H4537107   5.373   7.282   6.123  0.5788  0.6769  0.2505
   72MOL    H4637108   5.362   6.904   5.647 -3.3515 -4.2547  1.2559
   72MOL    H4737109   5.204   6.777   5.810  2.3139 -0.3139 -1.0528
   72MOL    H4837110   5.150   6.881   6.027 -0.8068 -0.6729 -1.6024
   72MOL    H4937111   5.268   7.086   6.100  0.4785 -2.7566  1.2009
   72MOL    H5037112   5.711   7.375   5.878 -2.4543  1.9221 -0.7904
   72MOL    H5137113   5.819   7.357   5.671 -0.6399  0.3051  0.9246
   72MOL    H5237114   5.746   7.197   5.499  1.3738  2.1026  0.1681
   72MOL    H5337115   5.553   7.062   5.533  0.0884  1.9532 -2.4310
   72MOL    C5437116   5.591   7.254   6.153  0.4032  0.2206  0.1390
   72MOL    C5537117   5.595   7.308   6.296 -0.2572 -0.6154  0.6427
   72MOL    N5637118   5.467   7.298   6.363  0.3513  0.1263  0.5752
   72MOL    C5737119   5.402   7.406   6.418 -0.0877  0.6687 -0.5908
   72MOL    C5837120   5.288   7.358   6.490 -0.2202 -0.6364  0.9603
   72MOL    C5937121   5.211   7.452   6.564 -0.5755  0.4288  0.2028
   72MOL    C6037122   5.239   7.590   6.559 -0.5397 -0.6033  0.4409
   72MOL    C6137123   5.351   7.638   6.491  0.3966  0.2610 -0.6844
   72MOL    C6237124   5.430   7.547   6.414 -0.1808 -0.3928  0.0825
   72MOL    C6337125   5.278   7.217   6.466  0.4036 -0.0778  0.3321
   72MOL    C6437126   5.392   7.181   6.386 -0.0717  0.2951 -0.0579
   72MOL    C6537127   5.414   7.047   6.352  0.8393 -0.1556 -0.1758
   72MOL    C6637128   5.327   6.947   6.386  0.2997 -0.0036 -0.8015
   72MOL    C6737129   5.214   6.981   6.467 -0.3117  0.2563 -0.3631
   72MOL    C6837130   5.195   7.115   6.513 -0.0542 -0.0749 -0.2270
   72MOL    H6937131   5.598   7.146   6.150  0.3494  0.2504 -2.1505
   72MOL    H7037132   5.675   7.291   6.094  0.8182  0.6428  0.9814
   72MOL    H7137133   5.630   7.411   6.283  1.0140 -1.2460 -1.2810
   72MOL    H7237134   5.124   7.417   6.617 -1.3610  0.9948 -0.6740
   72MOL    H7337135   5.170   7.659   6.607  0.8766  0.6746  0.6877
   72MOL    H7437136   5.366   7.745   6.480 -2.1443  0.6647 -0.4229
   72MOL    H7537137   5.513   7.573   6.351 -1.8325  0.6185 -1.7380
   72MOL    H7637138   5.502   7.027   6.292 -0.4877 -0.4252 -2.0792
   72MOL    H7737139   5.336   6.841   6.364 -0.1958 -0.7306  2.2120
   72MOL    H7837140   5.150   6.899   6.495 -0.1363  0.7239  1.4464
   72MOL    H7937141   5.118   7.156   6.577 -1.4150 -1.3985 -0.9670
   72MOL    C8037142   5.703   7.241   6.387  0.2570  0.5574  0.0383
   72MOL    C8137143   5.846   7.257   6.333  0.2804 -0.3419  0.0720
   72MOL    N8237144   5.880   7.393   6.302  0.3770  0.4120  0.4186
   72MOL    C8337145   5.915   7.433   6.178  0.0235  0.4439  0.2058
   72MOL    C8437146   5.931   7.574   6.174 -0.0855 -0.0315  1.1198
   72MOL    C8537147   5.968   7.632   6.050 -1.0494  0.5384  0.3170
   72MOL    C8637148   6.001   7.558   5.937 -0.0265  0.3031  0.0191
   72MOL    C8737149   6.004   7.421   5.951  0.6190  0.7219  0.3592
   72MOL    C8837150   5.952   7.355   6.063 -0.6911 -0.1460 -0.2316
   72MOL    C8937151   5.910   7.619   6.305 -0.0445  0.5694  0.1342
   72MOL    C9037152   5.882   7.505   6.386  0.5390 -0.7485  0.2964
   72MOL    C9137153   5.859   7.522   6.521 -0.1469 -0.5249 -0.1694
   72MOL    C9237154   5.882   7.644   6.579  0.1471 -0.5390 -1.2961
   72MOL    C9337155   5.905   7.764   6.499 -0.2042  0.2441 -0.2486
   72MOL    C9437156   5.919   7.750   6.362  0.0344 -0.2384  0.3050
   72MOL    H9537157   5.703   7.286   6.487 -0.0938 -0.3848  0.4713
   72MOL    H9637158   5.672   7.139   6.411 -0.3402  0.4733 -1.0717
   72MOL    H9737159   5.840   7.200   6.240 -1.1413 -0.5391  0.2811
   72MOL    H9837160   5.978   7.739   6.054  0.8374  0.4379 -1.0283
   72MOL    H9937161   6.038   7.612   5.851  1.5625 -1.4225 -0.3952
   72MOL   H10037162   6.026   7.359   5.866  1.2739  1.3906  0.0259
   72MOL   H10137163   5.936   7.249   6.057 -0.8651 -0.1835  0.9542
   72MOL   H10237164   5.846   7.444   6.594 -2.2388 -0.8667 -0.8905
   72MOL   H10337165   5.865   7.647   6.685 -1.5677  1.6117 -1.6046
   72MOL   H10437166   5.916   7.865   6.535  2.0842  0.0874 -0.4512
   72MOL   H10537167   5.928   7.830   6.290 -2.0826  1.0517  1.3880
   72MOL   C10637168   5.949   7.194   6.428  0.1135  1.2798  0.5133
   72MOL   C10737169   5.958   7.044   6.411 -0.1804  0.6166 -0.0700
   72MOL   N10837170   5.997   7.003   6.276  0.3091 -0.0404 -0.3077
   72MOL   C10937171   5.921   6.932   6.182  1.1184  0.5936  1.0273
   72MOL   C11037172   5.990   6.926   6.059  0.1075 -0.3091 -0.1486
   72MOL   C11137173   5.924   6.858   5.953 -0.4047 -0.3111 -0.3242
   72MOL   C11237174   5.808   6.785   5.967  0.4397 -0.0109  0.3818
   72MOL   C11337175   5.736   6.793   6.093 -0.6032 -0.8302  0.2001
   72MOL   C11437176   5.797   6.866   6.204 -0.0830 -0.5423  0.1260
   72MOL   C11537177   6.112   7.001   6.081  0.4863  0.7629  0.5644
   72MOL   C11637178   6.118   7.030   6.216 -0.3858 -1.1091 -0.0231
   72MOL   C11737179   6.231   7.087   6.267  0.5119  0.0594 -0.3119
   72MOL   C11837180   6.346   7.123   6.189 -0.2714  0.6427  0.6053
   72MOL   C11937181   6.339   7.093   6.052  0.1387  0.9582 -0.8594
   72MOL   C12037182   6.217   7.039   5.997  0.0458 -0.5373  0.2724
   72MOL   H12137183   6.043   7.240   6.398  0.7865 -0.8227 -0.6568
   72MOL   H12237184   5.935   7.217   6.534  2.7324  0.6949  1.0147
   72MOL   H12337185   5.857   7.006   6.425 -0.0174 -0.0887 -0.8114
   72MOL   H12437186   5.970   6.856   5.855 -0.5933  0.7759 -0.4463
   72MOL   H12537187   5.767   6.730   5.883 -1.4889  0.6192  0.8883
   72MOL   H12637188   5.647   6.733   6.102 -1.6837  0.3722 -2.2046
   72MOL   H12737189   5.754   6.881   6.302  0.9110  0.9926  0.3557
   72MOL   H12837190   6.238   7.109   6.372 -0.6612 -0.8891 -0.0321
   72MOL   H12937191   6.430   7.179   6.227  1.2249 -1.2986  0.2224
   72MOL   H13037192   6.419   7.126   5.988  3.4376 -4.2155  0.3182
   72MOL   H13137193   6.217   7.024   5.890  1.8215  1.0512  0.0346
   72MOL   C13237194   6.037   6.971   6.527 -0.7814 -0.1905 -0.3057
   72MOL   C13337195   5.994   6.986   6.677  1.0520 -0.2327  0.1305
   72MOL   N13437196   5.853   6.973   6.680 -0.2187 -0.1576 -0.2217
   72MOL   C13537197   5.769   7.077   6.708  0.0336 -0.4321  0.2842
   72MOL   C13637198   5.636   7.038   6.681 -0.7945 -1.0448 -0.1734
   72MOL   C13737199   5.540   7.138   6.690  0.4155  1.0990 -0.4881
   72MOL   C13837200   5.568   7.272   6.709  0.4078  0.7150 -1.2176
   72MOL   C13937201   5.692   7.304   6.750  0.5251 -0.6097  0.5796
   72MOL   C14037202   5.795   7.209   6.759  0.0892  0.1390  0.0906
   72MOL   C14137203   5.637   6.900   6.657  0.0731  0.2400  0.9329
   72MOL   C14237204   5.774   6.860   6.655 -0.0354  0.4172 -0.0278
   72MOL   C14337205   5.805   6.722   6.628  0.2416  0.0731  0.3255
   72MOL   C14437206   5.704   6.627   6.589 -0.7610  0.5340  0.5896
   72MOL   C14537207   5.577   6.673   6.590 -0.0821 -0.6930 -0.2399
   72MOL   C14637208   5.538   6.803   6.617  0.6416  0.4473  0.0227
   72MOL   H14737209   6.035   6.864   6.504 -0.6658  0.2171 -2.3607
   72MOL   H14837210   6.138   7.010   6.517  0.4271 -3.2964 -0.8246
   72MOL   H14937211   6.023   7.089   6.699  1.8819 -0.2771 -0.7175
   72MOL   H15037212   5.441   7.100   6.669  1.0510 -1.4829  0.8582
   72MOL   H15137213   5.494   7.348   6.691 -0.6690 -0.1331 -0.4862
   72MOL   H15237214   5.708   7.409   6.768  3.6053 -0.7709 -1.0083
   72MOL   H15337215   5.890   7.240   6.802  0.3997 -0.6818 -0.0014
   72MOL   H15437216   5.904   6.688   6.652  1.3323  2.8373 -0.0765
   72MOL   H15537217   5.728   6.522   6.585 -1.0299  0.5086 -0.5442
   72MOL   H15637218   5.499   6.598   6.584 -0.6097 -0.0310 -2.1935
   72MOL   H15737219   5.436   6.838   6.619  0.7348  0.6966  0.7045
   72MOL   C15837220   6.070   6.900   6.785 -0.3260 -0.1606 -0.4785
   72MOL   C15937221   5.998   6.882   6.918  0.4440  0.5272 -0.1489
   72MOL   N16037222   6.038   6.751   6.982  0.3079 -0.2759 -0.2553
   72MOL   C16137223   5.956   6.636   6.996  0.6935 -0.2579  0.2940
   72MOL   C16237224   6.030   6.534   7.039  0.7362  0.2377  0.3533
   72MOL   C16337225   5.967   6.410   7.063 -0.4116 -0.9747 -0.0988
   72MOL   C16437226   5.832   6.400   7.036 -0.1533 -0.2741  0.8535
   72MOL   C16537227   5.751   6.503   6.998 -0.1999 -0.5218 -0.6814
   72MOL   C16637228   5.816   6.623   6.967 -0.2758  0.2425 -0.7405
   72MOL   C16737229   6.165   6.584   7.066  0.1025  0.4747 -0.4426
   72MOL   C16837230   6.167   6.719   7.034 -0.0273 -0.1018  0.0027
   72MOL   C16937231   6.290   6.789   7.045 -0.1797  0.0706  0.4894
   72MOL   C17037232   6.411   6.731   7.089  0.2408  0.6376 -0.2057
   72MOL   C17137233   6.408   6.600   7.123  0.4983  0.0581  0.2005
   72MOL   C17237234   6.283   6.527   7.117 -0.3397  0.6323  0.4576
   72MOL   H17337235   6.088   6.801   6.743  3.0011  0.3703 -0.4373
   72MOL   H17437236   6.166   6.952   6.796 -0.8098  0.3063  1.6555
   72MOL   H17537237   5.889   6.883   6.910  0.3156 -2.4761  0.7275
   72MOL   H17637238   6.013   6.321   7.104 -2.1016 -1.2531  1.2441
   72MOL   H17737239   5.789   6.301   7.037 -1.4125  0.2562  0.6148
   72MOL   H17837240   5.645   6.491   6.979 -0.5626  0.6362  0.5054
   72MOL   H17937241   5.754   6.701   6.925 -0.9302  0.1133 -0.0249
   72MOL   H18037242   6.299   6.890   7.008 -0.8562 -0.5523 -1.4677
   72MOL   H18137243   6.499   6.793   7.091 -0.1236  1.1476  0.3499
   72MOL   H18237244   6.497   6.544   7.149 -0.9306 -2.3524  0.0495
   72MOL   H18337245   6.288   6.426   7.155  0.2396  0.5021  0.0395
   72MOL   C18437246   6.035   7.011   7.003 -0.3500 -0.2821 -0.3300
   72MOL   C18537247   5.995   7.014   7.152 -0.5198  0.0686  0.2652
   72MOL   N18637248   6.055   7.125   7.224  0.3347  0.0507  0.8218
   72MOL   C18737249   6.142   7.116   7.329 -0.7531 -0.8922 -0.4384
   72MOL   C18837250   6.171   7.245   7.380 -0.5239 -0.4962  0.7387
   72MOL   C18937251   6.273   7.257   7.474  0.6132 -0.1327  0.7901
   72MOL   C19037252   6.343   7.142   7.521 -0.1165  0.7137 -0.8579
   72MOL   C19137253   6.305   7.012   7.482  0.1095 -0.0131 -0.0085
   72MOL   C19237254   6.206   7.003   7.377 -0.0922 -0.0921  0.2342
   72MOL   C19337255   6.085   7.332   7.297  0.2698  0.1859 -0.3731
   72MOL   C19437256   6.011   7.255   7.210  0.4313  0.1691 -0.5611
   72MOL   C19537257   5.935   7.316   7.113  0.7342 -0.7717  0.9270
   72MOL   C19637258   5.908   7.455   7.116 -0.3673 -0.2923  0.2154
   72MOL   C19737259   5.974   7.531   7.211  0.5761 -0.1114 -0.2534
   72MOL   C19837260   6.072   7.472   7.291 -0.4516  0.3401 -0.6226
   72MOL   H19937261   6.144   7.010   6.994 -0.4682  0.8000 -2.0433
   72MOL   H20037262   6.013   7.103   6.950 -0.8722 -0.5827 -0.6336
   72MOL   H20137263   6.050   6.927   7.187  0.4005  0.2340 -0.7212
   72MOL   H20237264   6.294   7.360   7.499 -3.2051  0.9847 -0.2427
   72MOL   H20337265   6.417   7.162   7.597  1.4873  0.2867 -2.2778
   72MOL   H20437266   6.374   6.936   7.518  0.1367  0.5482  1.1596
   72MOL   H20537267   6.182   6.903   7.346  1.2516 -0.1466 -0.6938
   72MOL   H20637268   5.878   7.262   7.039  0.2482  1.1439 -0.1213
   72MOL   H20737269   5.860   7.502   7.031  1.1051 -1.6796 -1.4389
   72MOL   H20837270   5.954   7.636   7.224  1.1452  0.2456 -2.1718
   72MOL   H20937271   6.128   7.539   7.354 -0.1550  0.5036 -1.0574
   72MOL   C21037272   5.845   6.984   7.183 -0.1599 -0.6423 -0.3563
   72MOL   C21137273   5.815   6.970   7.333  0.3513  0.1833 -0.3919
   72MOL   N21237274   5.667   6.969   7.355 -0.2862  0.0561 -0.0430
   72MOL   C21337275   5.597   7.064   7.432 -0.1041  0.4461 -0.4982
   72MOL   C21437276   5.459   7.034   7.433 -0.4470  0.0918 -0.4851
   72MOL   C21537277   5.369   7.122   7.497  0.0180 -0.4204  0.2928
   72MOL   C21637278   5.421   7.220   7.578 -0.3381  0.0754  0.2931
   72MOL   C21737279   5.557   7.247   7.587  0.4586 -0.1817 -0.1128
   72MOL   C21837280   5.647   7.173   7.503 -1.2577  0.3679  0.3795
   72MOL   C21937281   5.444   6.921   7.351 -0.5329 -0.4446 -0.6263
   72MOL   C22037282   5.575   6.876   7.310  0.4854 -0.2285 -0.0136
   72MOL   C22137283   5.593   6.761   7.230 -0.1721  0.6623  0.7323
   72MOL   C22237284   5.479   6.691   7.185 -0.9540 -0.1562 -0.5324
   72MOL   C22337285   5.347   6.728   7.215  0.3339  0.0074 -0.0372
   72MOL   C22437286   5.335   6.843   7.299 -0.2432  0.2428  0.4527
   72MOL   H22537287   5.791   7.072   7.149  0.4385 -0.3209 -0.4663
   72MOL   H22637288   5.803   6.905   7.120  1.6744 -2.5814  0.7551
   72MOL   H22737289   5.862   7.052   7.387 -3.0995  0.9903  1.5956
   72MOL   H22837290   5.265   7.092   7.497  0.3667 -1.6620 -0.4714
   72MOL   H22937291   5.355   7.280   7.639  0.0472 -0.0964  0.8815
   72MOL   H23037292   5.591   7.336   7.638  3.3316 -1.0243 -0.4541
   72MOL   H23137293   5.752   7.200   7.507 -1.2561  0.2591  1.1571
   72MOL   H23237294   5.689   6.726   7.193  0.0018  1.0071  0.8504
   72MOL   H23337295   5.481   6.593   7.140 -2.8001 -0.4639  0.0248
   72MOL   H23437296   5.261   6.666   7.192 -1.3216  1.6670  1.5265
   72MOL   H23537297   5.235   6.872   7.329 -0.4030 -0.7000  0.8464
   72MOL   C23637298   5.880   6.835   7.392  0.2883 -0.1678 -0.2385
   72MOL   C23737299   5.832   6.801   7.535  0.2373 -0.4436  0.2006
   72MOL   N23837300   5.879   6.668   7.574 -1.2757  0.4334  0.1741
   72MOL   C23937301   5.802   6.554   7.605  0.1409 -0.1909 -0.2717
   72MOL   C24037302   5.886   6.453   7.665 -0.6184 -0.4495  0.1541
   72MOL   C24137303   5.824   6.331   7.710  0.4227 -0.7006 -0.0257
   72MOL   C24237304   5.684   6.318   7.705  0.2973  0.3166  0.2243
   72MOL   C24337305   5.601   6.421   7.653 -0.1439  0.5193  0.0870
   72MOL   C24437306   5.660   6.536   7.597 -0.3883 -0.3983  0.4590
   72MOL   C24537307   6.018   6.500   7.649  0.0022  0.3233  0.0888
   72MOL   C24637308   6.013   6.631   7.599 -0.5416 -0.9475  0.1794
   72MOL   C24737309   6.135   6.699   7.569 -0.1839 -0.4786 -1.2745
   72MOL   C24837310   6.261   6.638   7.586 -0.0048 -0.3409  0.2072
   72MOL   C24937311   6.262   6.514   7.646  0.6325  0.0034  0.6779
   72MOL   C25037312   6.139   6.442   7.663  0.3162 -0.7143 -0.4076
   72MOL   H25137313   5.851   6.751   7.329  0.3711  0.7372 -1.4886
   72MOL   H25237314   5.987   6.845   7.374  0.1353  0.7595 -0.6541
   72MOL   H25337315   5.723   6.803   7.529  0.1587 -2.3098  0.5881
   72MOL   H25437316   5.884   6.250   7.751  2.9768  1.4364  0.5977
   72MOL   H25537317   5.635   6.227   7.736 -1.7029  1.0332 -0.7203
   72MOL   H25637318   5.493   6.420   7.650 -0.1277 -0.7844 -0.3780
   72MOL   H25737319   5.597   6.607   7.546  1.9854  2.8076  1.8379
   72MOL   H25837320   6.131   6.803   7.541 -0.6102  0.1956  1.1349
   72MOL   H25937321   6.349   6.695   7.560 -0.8893  0.6680 -0.6290
   72MOL   H26037322   6.358   6.464   7.645  0.6535  0.0467 -2.0681
   72MOL   H26137323   6.144   6.338   7.694  1.3459 -0.5850 -0.1022
   72MOL   C26237324   5.873   6.911   7.636 -0.7642  0.0663 -0.3579
   72MOL   C26337325   5.814   6.875   7.782  0.7276  0.3235 -0.0024
   72MOL   N26437326   5.893   6.948   7.879  0.0745 -0.0912  0.2753
   72MOL   C26537327   5.984   6.881   7.968  0.2732 -0.2815 -0.2104
   72MOL   C26637328   6.045   6.986   8.045  0.1859 -0.0089  0.4896
   72MOL   C26737329   6.142   6.943   8.138 -0.0722  0.6984 -0.4334
   72MOL   C26837330   6.177   6.805   8.151 -0.0002 -0.2015 -0.3077
   72MOL   C26937331   6.110   6.708   8.079  0.3341 -0.3021 -0.1143
   72MOL   C27037332   6.015   6.751   7.989  0.5860 -0.6883  0.1450
   72MOL   C27137333   6.004   7.116   7.998  0.1397  0.5877  0.7084
   72MOL   C27237334   5.907   7.086   7.901  0.6638 -0.1535  0.3559
   72MOL   C27337335   5.841   7.196   7.836  0.4780 -1.0118  0.4455
   72MOL   C27437336   5.874   7.329   7.873  0.6011  0.0146  0.3585
   72MOL   C27537337   5.978   7.354   7.966  0.1917 -0.9713  0.2980
   72MOL   C27637338   6.041   7.247   8.026  0.3215 -0.1021  0.1239
   72MOL   H27737339   5.980   6.933   7.640 -0.8195  0.3587 -0.4894
   72MOL   H27837340   5.833   7.010   7.613  1.0354  1.0202  0.5235
   72MOL   H27937341   5.833   6.770   7.805  0.3467 -0.0506 -1.3019
   72MOL   H28037342   6.201   7.016   8.190  1.8442 -1.2659  0.2184
   72MOL   H28137343   6.259   6.783   8.217 -0.6850 -0.2026  0.5428
   72MOL   H28237344   6.129   6.603   8.089 -0.0877 -0.7650 -3.6520
   72MOL   H28337345   5.965   6.673   7.933  0.9532  0.0600 -1.2483
   72MOL   H28437346   5.767   7.182   7.759 -0.1124 -1.3071  1.0638
   72MOL   H28537347   5.821   7.414   7.833  0.6224  0.2493  0.8324
   72MOL   H28637348   6.014   7.453   7.991 -1.5532 -0.2870  0.2024
   72MOL   H28737349   6.120   7.258   8.098 -1.7224 -0.4669  2.4720
   72MOL   C28837350   5.666   6.910   7.802  0.5617  0.9513 -0.0878
   72MOL   C28937351   5.598   6.867   7.933  0.6010 -0.2445  0.4596
   72MOL   N29037352   5.458   6.902   7.932  0.3307 -0.3345 -0.0777
   72MOL   C29137353   5.400   6.999   8.014 -0.8487  0.2454  0.3313
   72MOL   C29237354   5.256   6.998   7.993 -0.2467 -0.4624  0.7426
   72MOL   C29337355   5.181   7.086   8.070 -0.2266 -0.5875 -0.2239
   72MOL   C29437356   5.238   7.168   8.168  0.2166  0.2331  0.0099
   72MOL   C29537357   5.374   7.176   8.180 -0.4177 -0.4171  0.2919
   72MOL   C29637358   5.457   7.090   8.104 -0.4670  0.2273  0.0429
   72MOL   C29737359   5.222   6.895   7.901  0.3139 -0.6167 -0.2058
   72MOL   C29837360   5.352   6.847   7.854  0.3578  0.1592  0.5963
   72MOL   C29937361   5.361   6.752   7.750 -0.1072  0.6017 -0.5726
   72MOL   C30037362   5.245   6.714   7.685 -0.6522 -0.3320 -0.1987
   72MOL   C30137363   5.116   6.752   7.737 -0.4084  0.3454 -0.0481
   72MOL   C30237364   5.104   6.838   7.844 -0.3053 -0.3188  0.0224
   72MOL   H30337365   5.655   7.017   7.783 -0.4901  0.9643  0.5524
   72MOL   H30437366   5.608   6.860   7.724  1.2506 -0.1990  0.1289
   72MOL   H30537367   5.642   6.927   8.013 -0.4190  0.9522  0.1448
   72MOL   H30637368   5.075   7.075   8.053 -0.4348  1.0581 -0.0435
   72MOL   H30737369   5.176   7.237   8.224 -0.6183 -1.7165  1.5504
   72MOL   H30837370   5.412   7.235   0.035 -0.2104  2.0927 -1.5152
   72MOL   H30937371   5.561   7.087   8.134 -0.4816 -2.6671 -0.0424
   72MOL   H31037372   5.454   6.709   7.716 -0.1210 -0.0477  0.1789
   72MOL   H31137373   5.246   6.660   7.592  0.1134  2.3470 -1.7767
   72MOL   H31237374   5.029   6.713   7.686 -0.7533  1.4445 -0.3243
   72MOL   H31337375   5.002   6.864   7.872 -0.1887 -0.9800  1.0950
   72MOL   C31437376   5.617   6.719   7.964  0.3413  1.4454 -1.1796
   72MOL   C31537377   5.527   6.659   8.072  0.3304  0.2562 -0.4756
   72MOL   N31637378   5.551   6.515   8.076 -0.0548  0.1273  0.3349
   72MOL   C31737379   5.465   6.408   8.057  0.1642 -0.1228 -0.0853
   72MOL   C31837380   5.528   6.283   8.085 -0.1547 -0.4656 -0.3101
   72MOL   C31937381   5.452   6.167   8.077 -0.3546  0.6559 -0.6844
   72MOL   C32037382   5.317   6.168   8.040 -0.0934 -0.0844 -0.7111
   72MOL   C32137383   5.253   6.291   8.014 -0.4083 -0.3725 -0.0238
   72MOL   C32237384   5.326   6.409   8.023  0.5153 -0.0507  0.0084
   72MOL   C32337385   5.662   6.316   8.124 -0.2450  0.0776  0.0909
   72MOL   C32437386   5.671   6.457   8.126 -0.6788  0.1610  0.6302
   72MOL   C32537387   5.790   6.520   8.174 -0.2379 -0.7872 -0.6593
   72MOL   C32637388   5.898   6.442   8.224  0.5079 -0.1303 -1.1270
   72MOL   C32737389   5.890   6.298   8.221 -0.1549 -0.6617 -0.3837
   72MOL   C32837390   5.770   6.240   8.169  0.5902 -0.0993 -0.2901
   72MOL   H32937391   5.599   6.670   7.868 -1.4431  1.6782 -0.9827
   72MOL   H33037392   5.719   6.689   7.989 -0.3757 -0.6087 -0.5774
   72MOL   H33137393   5.426   6.666   8.031 -0.3397  0.7203  1.2093
   72MOL   H33237394   5.495   6.072   8.107 -0.6487  0.7718  0.1290
   72MOL   H33337395   5.255   6.079   8.043 -2.0020  1.2286  0.1121
   72MOL   H33437396   5.148   6.285   7.992 -0.6820 -2.7506  1.6873
   72MOL   H33537397   5.264   6.496   8.012  1.1239  0.4126  0.2186
   72MOL   H33637398   5.789   6.628   8.182  0.3637 -0.8892  0.8831
   72MOL   H33737399   5.987   6.493   0.031 -1.1437  1.1242  1.3407
   72MOL   H33837400   5.968   6.237   0.038 -1.1314 -1.6202  0.0677
   72MOL   H33937401   5.755   6.134   8.179  1.8122 -0.0514  2.5804
   72MOL   C34037402   5.531   6.725   8.211  0.2156 -0.4441  0.1742
   72MOL   C34137403   5.456   6.654   0.093 -0.2886 -0.1257 -0.0730
   72MOL   N34237404   5.503   6.699   0.217 -0.5966 -0.7439 -0.4562
   72MOL   C34337405   5.576   6.624   0.305  0.0655  0.0968 -0.7188
   72MOL   C34437406   5.592   6.692   0.429  0.0512 -0.6823 -0.0967
   72MOL   C34537407   5.653   6.635   0.541 -0.2907 -0.0315  0.1954
   72MOL   C34637408   5.698   6.503   0.542 -0.5750  0.6075 -0.0349
   72MOL   C34737409   5.683   6.431   0.419  1.3085 -0.0804 -0.1999
   72MOL   C34837410   5.632   6.496   0.299  0.3596  1.0290  0.1774
   72MOL   C34937411   5.545   6.827   0.404 -0.1856  0.2125  0.0454
   72MOL   C35037412   5.484   6.827   0.280 -0.0617  0.6492 -0.6524
   72MOL   C35137413   5.438   6.943   0.223 -0.1132  0.5669  1.1988
   72MOL   C35237414   5.453   7.066   0.293  0.3258 -0.9168  0.5195
   72MOL   C35337415   5.499   7.064   0.426  0.4496  0.4823  0.7179
   72MOL   C35437416   5.541   6.946   0.483  0.5059 -0.2421 -0.5687
   72MOL   H35537417   5.633   6.740   0.019  0.1151 -0.9188  0.6677
   72MOL   H35637418   5.504   6.830   8.200 -0.5471 -0.3451  2.7277
   72MOL   H35737419   5.480   6.547   0.093  0.9227  0.1363  0.3262
   72MOL   H35837420   5.660   6.688   0.635  0.0271 -0.8595  0.6473
   72MOL   H35937421   5.754   6.453   0.620  0.0390  0.2702 -0.6751
   72MOL   H36037422   5.719   6.331   0.435  1.0483 -0.1089  0.2126
   72MOL   H36137423   5.623   6.438   0.208  0.1461  0.6444  0.4420
   72MOL   H36237424   5.401   6.950   0.122 -0.9958  0.7699  1.5364
   72MOL   H36337425   5.425   7.163   0.256 -1.7759 -0.7190  2.5538
   72MOL   H36437426   5.493   7.157   0.480  0.6149  2.2542 -2.2248
   72MOL   H36537427   5.569   6.938   0.587  1.0322  0.9502 -0.6075
   72MOL   C36637428   5.299   6.656   0.070  0.2228 -0.5230  0.2789
   72MOL   C36737429   5.215   6.608   0.183 -0.1175  0.5905 -0.0747
   72MOL   N36837430   5.079   6.645   0.156 -0.1777 -0.1617 -0.4466
   72MOL   C36937431   5.023   6.757   0.220 -0.2558 -0.5588 -0.2922
   72MOL   C37037432   4.891   6.776   0.177  0.3889 -0.0735  0.6239
   72MOL   C37137433   4.813   6.884   0.230 -0.9619  0.2024  0.5284
   72MOL   C37237434   4.873   6.989   0.301  0.5015 -0.3411 -0.3119
   72MOL   C37337435   4.998   6.966   0.352 -0.3720  0.2541 -0.5451
   72MOL   C37437436   5.075   6.852   0.311  0.0365 -0.2588 -0.7514
   72MOL   C37537437   4.867   6.684   0.075 -0.5821  0.0500  0.8734
   72MOL   C37637438   4.983   6.601   0.067 -0.9354  0.3334  0.8930
   72MOL   C37737439   4.984   6.494   8.198 -0.8755 -0.0703 -0.0768
   72MOL   C37837440   4.881   6.474   8.101  0.4598 -0.2104 -1.0916
   72MOL   C37937441   4.761   6.558   8.115  0.1907  0.3769  0.8661
   72MOL   C38037442   4.758   6.661   8.212  1.0988 -0.3904 -0.7999
   72MOL   H38137443   5.268   6.757   0.043  0.2634 -0.7353 -0.5658
   72MOL   H38237444   5.276   6.594   8.211  1.9579  1.4457 -1.6555
   72MOL   H38337445   5.245   6.637   0.284 -0.2560  0.0687  0.1212
   72MOL   H38437446   4.713   6.905   0.195 -0.3262  0.4412 -1.2272
   72MOL   H38537447   4.813   7.075   0.328  1.9267  0.7820 -0.7229
   72MOL   H38637448   5.051   7.032   0.418  1.7513 -2.2059  0.2975
   72MOL   H38737449   5.176   6.846   0.350  0.9959 -1.7513 -3.3674
   72MOL   H38837450   5.067   6.427   8.182 -0.5462 -0.2705  2.2547
   72MOL   H38937451   4.883   6.392   8.031 -0.8672 -0.1490 -1.2102
   72MOL   H39037452   4.681   6.543   8.044  2.4522 -3.1035 -1.0895
   72MOL   H39137453   4.675   6.730   8.219  1.5049 -0.1441  2.2341
   72MOL   C39237454   5.240   6.452   0.193  0.9065 -0.4203 -0.0373
   72MOL   C39337455   5.170   6.386   0.306 -0.5981  0.7472 -0.4513
   72MOL   N39437456   5.153   6.248   0.286 -0.7189 -0.0400 -0.5035
   72MOL   C39537457   5.034   6.185   0.241 -0.5530 -0.8123 -0.2344
   72MOL   C39637458   5.056   6.051   0.227 -0.4733  0.5508  0.4374
   72MOL   C39737459   4.950   5.974   0.174  0.7435  0.5875 -0.0591
   72MOL   C39837460   4.829   6.027   0.138  0.0631 -0.1165  0.2585
   72MOL   C39937461   4.805   6.166   0.158 -1.0319  0.0356 -0.5670
   72MOL   C40037462   4.913   6.241   0.209 -0.0651 -0.5941  0.4103
   72MOL   C40137463   5.193   6.025   0.258  0.1992 -0.0858  0.2310
   72MOL   C40237464   5.252   6.144   0.297  0.0408 -0.0585  0.9721
   72MOL   C40337465   5.388   6.154   0.328 -0.2534  0.0051 -0.0088
   72MOL   C40437466   5.473   6.039   0.323 -0.9703 -0.3874  0.3895
   72MOL   C40537467   5.415   5.914   0.290  0.2947 -0.4093  0.3698
   72MOL   C40637468   5.271   5.907   0.263  0.4516 -0.1774  0.0700
   72MOL   H40737469   5.206   6.404   0.100 -0.4979  0.1767  0.1580
   72MOL   H40837470   5.346   6.433   0.206  0.8723 -1.0620 -0.6316
   72MOL   H40937471   5.071   6.424   0.331 -1.6139 -1.6613 -0.7771
   72MOL   H41037472   4.965   5.868   0.158  0.0005  0.5733 -0.7302
   72MOL   H41137473   4.756   5.952   0.112 -0.2261 -0.1870  1.2335
   72MOL   H41237474   4.708   6.213   0.158  0.0369  2.3208  1.0389
   72MOL   H41337475   4.890   6.345   0.226  2.5329  0.2202 -0.6946
   72MOL   H41437476   5.435   6.249   0.351  1.7993 -0.4106 -2.3396
   72MOL   H41537477   5.574   6.060   0.355 -0.4781 -1.1530 -0.6433
   72MOL   H41637478   5.477   5.828   0.313  0.1275 -0.4449  0.6830
   72MOL   H41737479   5.219   5.812   0.258 -0.7633  0.5565 -1.5137
   72MOL   C41837480   5.242   6.427   0.445 -0.7352 -0.1961 -0.2684
   72MOL   C41937481   5.214   6.342   0.582  0.1724  0.3696 -0.4346
   72MOL   N42037482   5.268   6.429   0.688  0.4723  0.4156 -0.4857
   72MOL   C42137483   5.382   6.405   0.767 -0.0253 -0.0915  0.0205
   72MOL   C42237484   5.407   6.513   0.847  0.4029 -0.3099 -0.5191
   72MOL   C42337485   5.526   6.518   0.919  0.0648  0.5302 -0.7305
   72MOL   C42437486   5.611   6.412   0.921  0.4645 -0.0329  0.4346
   72MOL   C42537487   5.587   6.294   0.844  0.7326  0.3355 -0.7032
   72MOL   C42637488   5.471   6.293   0.763 -0.2441 -0.0500  0.2704
   72MOL   C42737489   5.299   6.612   0.825  0.0515  0.3144  1.2120
   72MOL   C42837490   5.212   6.546   0.732  0.8863  0.0761  0.7653
   72MOL   C42937491   5.095   6.612   0.683 -0.2261 -0.3046  0.2632
   72MOL   C43037492   5.065   6.743   0.730 -0.2491 -0.3264 -0.3771
   72MOL   C43137493   5.147   6.808   0.829 -0.5445  0.8470  0.1182
   72MOL   C43237494   5.263   6.739   0.875  0.1160 -0.1958  0.3048
   72MOL   H43337495   5.349   6.441   0.429 -0.3009 -3.4653 -0.5468
   72MOL   H43437496   5.221   6.533   0.464 -1.3627 -0.4685  0.5754
   72MOL   H43537497   5.277   6.254   0.574 -2.1133 -1.2192 -1.7459
   72MOL   H43637498   5.549   6.600   0.986 -0.0663 -0.0625  0.0521
   72MOL   H43737499   5.708   6.419   0.969  1.7004 -2.1755 -1.6141
   72MOL   H43837500   5.663   6.218   0.834 -0.4802 -0.9727 -0.2168
   72MOL   H43937501   5.457   6.209   0.696  0.1335 -0.2138  0.3958
   72MOL   H44037502   5.022   6.572   0.614 -0.9700  1.2089  0.1504
   72MOL   H44137503   4.975   6.788   0.690 -1.9461 -0.7270  2.8479
   72MOL   H44237504   5.132   6.912   0.851 -1.6615  0.5116  0.9854
   72MOL   H44337505   5.342   6.789   0.929 -0.8365 -2.1457  3.6226
   72MOL   C44437506   5.065   6.302   0.605 -0.2429  0.0321 -0.7813
   72MOL   C44537507   5.042   6.152   0.634  0.5664  0.3413 -0.2644
   72MOL   N44637508   5.102   6.122   0.764 -0.5269 -0.1834  0.1703
   72MOL   C44737509   5.223   6.044   0.785  0.0443 -0.0056  0.8428
   72MOL   C44837510   5.247   6.029   0.920  0.7097 -0.4369 -1.0770
   72MOL   C44937511   5.350   5.945   0.962 -0.3746 -0.3203 -0.5414
   72MOL   C45037512   5.432   5.877   0.872  0.1607 -0.0228  0.5475
   72MOL   C45137513   5.412   5.889   0.731 -0.8695 -0.6754  0.2963
   72MOL   C45237514   5.299   5.970   0.683 -1.0193 -0.0855 -0.2598
   72MOL   C45337515   5.146   6.095   0.990  0.0435  0.0672 -0.0101
   72MOL   C45437516   5.062   6.155   0.893  1.0947  0.1916 -0.3465
   72MOL   C45537517   4.951   6.237   0.932  0.2728 -0.4676 -0.3284
   72MOL   C45637518   4.924   6.262   1.066  0.6470  0.5929  0.0595
   72MOL   C45737519   5.016   6.207   1.160 -0.0547 -0.1549 -0.0849
   72MOL   C45837520   5.117   6.125   1.125 -0.3259  0.4117 -0.2699
   72MOL   H45937521   5.026   6.357   0.691 -1.7938 -2.5174  0.1856
   72MOL   H46037522   5.008   6.331   0.517 -0.5333  2.8572  0.2628
   72MOL   H46137523   5.103   6.105   0.556  2.0217 -0.2325  1.2015
   72MOL   H46237524   5.362   5.927   1.068  1.0506  1.3069 -0.3845
   72MOL   H46337525   5.504   5.806   0.911  0.1603 -0.2260  0.1741
   72MOL   H46437526   5.473   5.834   0.662 -0.0245  1.5647 -0.7924
   72MOL   H46537527   5.279   5.972   0.577  0.0276  1.9770 -0.4438
   72MOL   H46637528   4.889   6.274   0.852  1.2452 -0.7204 -1.2123
   72MOL   H46737529   4.845   6.333   1.088  0.4786  0.0989  1.0943
   72MOL   H46837530   5.007   6.210   1.268  0.9183 -1.5905  0.0552
   72MOL   H46937531   5.173   6.081   1.206 -1.2926 -0.0933  0.1287
   72MOL   C47037532   4.895   6.098   0.628  0.3822 -0.2796  0.1019
   72MOL   C47137533   4.879   5.955   0.682 -0.6860 -0.3568 -0.1143
   72MOL   N47237534   4.735   5.926   0.697  0.2238  0.4504  0.2522
   72MOL   C47337535   4.668   5.907   0.818  0.7288  0.0178  0.8096
   72MOL   C47437536   4.527   5.894   0.789  0.1684  0.0464 -0.7050
   72MOL   C47537537   4.443   5.872   0.899 -0.6534  0.7397  0.5095
   72MOL   C47637538   4.493   5.881   1.034 -0.4051 -0.2663 -0.0104
   72MOL   C47737539   4.627   5.899   1.062  0.1407  0.1842 -0.1661
   72MOL   C47837540   4.716   5.901   0.955  0.0048  0.0090 -0.4016
   72MOL   C47937541   4.514   5.916   0.646  0.7576 -0.8022  0.2768
   72MOL   C48037542   4.644   5.925   0.592 -0.0363  0.5814 -0.5999
   72MOL   C48137543   4.664   5.938   0.454 -0.0717 -0.3393 -0.6491
   72MOL   C48237544   4.556   5.952   0.368 -0.4750  0.2080 -0.2074
   72MOL   C48337545   4.426   5.951   0.415 -0.0077  0.1443  0.1750
   72MOL   C48437546   4.408   5.937   0.551  0.8543 -0.4859  0.3714
   72MOL   H48537547   4.841   6.172   0.687  5.3600  2.2187  1.8218
   72MOL   H48637548   4.845   6.094   0.531  0.4073  1.1061  0.0221
   72MOL   H48737549   4.918   5.951   0.784 -0.4806  2.2236 -0.0631
   72MOL   H48837550   4.336   5.861   0.886 -0.7933  1.8826  0.6595
   72MOL   H48937551   4.423   5.861   1.114 -0.4419  0.4232  0.1278
   72MOL   H49037552   4.664   5.909   1.163  0.9626  1.7880 -0.6163
   72MOL   H49137553   4.820   5.920   0.978  0.3079  0.3528 -1.9915
   72MOL   H49237554   4.762   5.943   0.410  0.3499 -1.7777  0.0906
   72MOL   H49337555   4.583   5.964   0.265 -1.0778  0.5757 -0.3297
   72MOL   H49437556   4.338   5.980   0.360 -0.1631 -0.7817 -0.0685
   72MOL   H49537557   4.314   5.948   0.603  1.1410  0.4826  0.6965
   72MOL   C49637558   4.959   5.847   0.604  0.4385 -0.4168 -0.2968
   72MOL   C49737559   4.955   5.700   0.670 -0.7061 -0.4346  0.1787
   72MOL   N49837560   5.073   5.618   0.633  0.8773 -0.4262 -0.2929
   72MOL   C49937561   5.105   5.572   0.507  0.5728  0.2597 -0.0747
   72MOL   C50037562   5.232   5.518   0.509  0.4077  0.3815 -0.3842
   72MOL   C50137563   5.287   5.473   0.387  0.0676 -0.4590  0.3299
   72MOL   C50237564   5.223   5.501   0.267 -0.3705 -0.3031  0.0446
   72MOL   C50337565   5.095   5.559   0.262  0.2592  0.5049 -0.3289
   72MOL   C50437566   5.032   5.588   0.383  0.2205 -0.8011 -0.1000
   72MOL   C50537567   5.272   5.518   0.643 -1.1788  0.0364  0.8123
   72MOL   C50637568   5.170   5.576   0.719 -0.3529  0.7424  0.5073
   72MOL   C50737569   5.186   5.591   0.861  0.4307 -1.1376  0.6975
   72MOL   C50837570   5.303   5.542   0.923 -0.4562 -0.0367 -0.2506
   72MOL   C50937571   5.412   5.498   0.839 -0.1577 -0.1636 -0.5503
   72MOL   C51037572   5.392   5.476   0.704  0.3031 -0.1211 -0.3969
   72MOL   H51137573   4.941   5.848   0.497  1.0019  0.7135 -0.3940
   72MOL   H51237574   5.063   5.879   0.611 -0.1696  1.3887  1.1747
   72MOL   H51337575   4.861   5.653   0.641 -1.5853  1.5039 -0.2032
   72MOL   H51437576   5.387   5.432   0.392  0.2857  0.2247  2.2382
   72MOL   H51537577   5.275   5.479   0.175 -0.4911  1.2865 -0.4308
   72MOL   H51637578   5.045   5.577   0.168  1.0671 -0.4337 -0.9549
   72MOL   H51737579   4.935   5.637   0.391  0.1351 -0.7117 -1.6169
   72MOL   H51837580   5.115   5.638   0.927  0.2738 -0.0049 -0.2556
   72MOL   H51937581   5.326   5.562   1.026  0.2434 -1.4102 -0.1260
   72MOL   H52037582   5.505   5.475   0.888 -1.0062 -1.4518  0.4898
   72MOL   H52137583   5.471   5.429   0.647  0.1608 -1.6623  0.6347
   72MOL   H52237584   4.964   5.706   0.778  1.7619 -0.1962 -0.0315
   73MOL     C137585   2.177   6.233   0.719  0.1459 -0.2714  0.2609
   73MOL     C237586   2.243   6.099   0.665 -0.4840 -0.4804 -0.4935
   73MOL     N337587   2.149   5.998   0.697  0.6337  0.3565  0.1997
   73MOL     C437588   2.143   5.930   0.820 -0.0343  0.2920 -0.2605
   73MOL     C537589   2.043   5.824   0.815  0.1376 -0.2427  0.6866
   73MOL     C637590   2.036   5.732   0.921  0.2354 -0.1437 -0.1331
   73MOL     C737591   2.103   5.759   1.044 -0.9172 -0.4168  1.0297
   73MOL     C837592   2.191   5.867   1.052 -0.9183 -0.0370  0.0288
   73MOL     C937593   2.222   5.943   0.938  0.5520  0.3615 -0.6178
   73MOL    C1037594   1.980   5.842   0.691 -0.0729  0.4027 -0.0752
   73MOL    C1137595   2.036   5.955   0.624 -0.2023  0.0640 -0.1987
   73MOL    C1237596   1.972   6.001   0.508 -0.8780  0.3077  0.8053
   73MOL    C1337597   1.862   5.942   0.454  0.8294 -0.2126 -0.2100
   73MOL    C1437598   1.810   5.827   0.515  0.0101  0.1384  0.2078
   73MOL    C1537599   1.864   5.780   0.634  0.1284 -0.1660  0.5548
   73MOL    H1637600   2.124   6.199   0.807 -0.2989 -0.7593 -0.1935
   73MOL    H1737601   2.103   6.265   0.645  0.9628  1.8106  0.3122
   73MOL    H1837602   2.330   6.076   0.726 -0.3244  2.5586  0.5136
   73MOL    H1937603   1.970   5.647   0.917 -0.6797  0.5741 -0.2594
   73MOL    H2037604   2.095   5.692   1.128  0.5150 -1.0608  0.6682
   73MOL    H2137605   2.249   5.883   1.141  1.9165 -1.8395 -1.3860
   73MOL    H2237606   2.301   6.014   0.950  1.4999 -0.6290 -0.9459
   73MOL    H2337607   2.008   6.086   0.453 -1.4116 -1.2399 -2.0694
   73MOL    H2437608   1.830   5.981   0.358  0.5292 -0.5605 -0.2534
   73MOL    H2537609   1.726   5.789   0.459 -0.1103 -0.0247  0.5031
   73MOL    H2637610   1.820   5.700   0.691  0.0433 -0.6239 -0.1575
   73MOL    H2737611   2.254   6.306   0.745  1.0897 -1.1723  0.0592
   73MOL    C2837612   2.307   6.092   0.528  0.1736 -0.1232 -0.6051
   73MOL    C2937613   2.387   5.958   0.510 -0.4051 -0.5895 -0.3667
   73MOL    N3037614   2.312   5.857   0.441  0.5372 -0.4638 -0.2693
   73MOL    C3137615   2.275   5.733   0.487 -1.0495  0.2907  0.3375
   73MOL    C3237616   2.200   5.665   0.391  0.4725  0.1902 -0.0670
   73MOL    C3337617   2.155   5.541   0.420  0.0433 -0.5523  0.0628
   73MOL    C3437618   2.169   5.490   0.555  0.4792  0.4403 -0.0746
   73MOL    C3537619   2.236   5.560   0.653 -0.3444  0.3303 -0.0513
   73MOL    C3637620   2.307   5.679   0.616 -0.0721 -0.2557  0.2630
   73MOL    C3737621   2.197   5.749   0.272 -0.2859  0.0425 -0.9012
   73MOL    C3837622   2.269   5.864   0.307 -0.2831 -0.6965  0.2891
   73MOL    C3937623   2.287   5.967   0.208  0.9791 -0.3654 -0.3524
   73MOL    C4037624   2.228   5.958   0.080 -0.0700  0.3169 -0.2657
   73MOL    C4137625   2.162   5.841   0.039 -0.5541  0.4746 -0.0620
   73MOL    C4237626   2.142   5.739   0.136  0.5314 -0.3272  0.4152
   73MOL    H4337627   2.235   6.108   0.448  1.5389 -2.3383 -2.3289
   73MOL    H4437628   2.374   6.177   0.519 -1.1138  1.4559  3.3656
   73MOL    H4537629   2.410   5.910   0.605 -1.7552 -0.3049  0.1089
   73MOL    H4637630   2.116   5.487   0.335  3.5975  0.2169 -2.1828
   73MOL    H4737631   2.119   5.397   0.576 -0.2696  1.2344  1.7984
   73MOL    H4837632   2.243   5.515   0.751  1.9913  1.0628  0.1584
   73MOL    H4937633   2.354   5.732   0.698  0.9337 -2.6907  1.2966
   73MOL    H5037634   2.342   6.058   0.229  0.7949 -0.2893 -0.2019
   73MOL    H5137635   2.243   6.036   0.006  0.3990  1.6480  1.2265
   73MOL    H5237636   2.120   5.835   8.167  1.7081 -1.7950 -0.9625
   73MOL    H5337637   2.087   5.651   0.106  1.6368 -1.0852  0.6055
   73MOL    C5437638   2.531   5.985   0.448  0.2649  0.4915  0.2627
   73MOL    C5537639   2.617   5.859   0.424 -0.6030 -0.1746  0.0687
   73MOL    N5637640   2.604   5.819   0.277  0.6832 -0.1442  0.6251
   73MOL    C5737641   2.553   5.697   0.232  0.0041  0.2395 -0.0887
   73MOL    C5837642   2.539   5.699   0.093  0.2242  0.2562 -0.0758
   73MOL    C5937643   2.485   5.584   0.030  0.1493  0.7548  0.1998
   73MOL    C6037644   2.442   5.471   0.099 -0.6957  0.9088  0.1951
   73MOL    C6137645   2.459   5.470   0.241  0.1055 -1.0876  1.0693
   73MOL    C6237646   2.511   5.583   0.309  0.3077 -0.4762 -0.4020
   73MOL    C6337647   2.591   5.828   0.051 -0.4208 -0.1338 -0.0239
   73MOL    C6437648   2.621   5.902   0.167  0.5317 -0.9747 -0.5616
   73MOL    C6537649   2.657   6.035   0.152 -0.9796 -0.7591 -1.4548
   73MOL    C6637650   2.666   6.095   0.021  0.0794 -0.3517 -0.2911
   73MOL    C6737651   2.644   6.021   8.133  1.0337  0.2690 -0.3054
   73MOL    C6837652   2.613   5.881   8.149 -0.1574  0.7308 -0.6914
   73MOL    H6937653   2.505   6.043   0.358 -0.3571 -0.5127 -0.2101
   73MOL    H7037654   2.585   6.060   0.505  1.7391  0.7294 -1.3955
   73MOL    H7137655   2.572   5.774   0.475 -1.5161  0.3106  0.0765
   73MOL    H7237656   2.488   5.589   8.149  0.0066  1.5563  0.2323
   73MOL    H7337657   2.399   5.387   0.048  2.2980 -1.2504  1.0770
   73MOL    H7437658   2.437   5.386   0.304 -1.3052 -1.4776  0.0764
   73MOL    H7537659   2.512   5.582   0.417 -0.8000 -1.1227 -0.3913
   73MOL    H7637660   2.680   6.101   0.234 -1.3782 -1.8124 -0.4935
   73MOL    H7737661   2.691   6.200   0.018  1.5067 -0.7192 -1.9072
   73MOL    H7837662   2.647   6.069   8.036  0.0402  0.8968 -0.0241
   73MOL    H7937663   2.597   5.821   8.060 -1.5232 -0.7830  0.5590
   73MOL    C8037664   2.771   5.888   0.457  0.4400 -0.7746 -0.0809
   73MOL    C8137665   2.814   5.903   0.606 -0.3818  0.0864 -0.0874
   73MOL    N8237666   2.731   5.834   0.703 -0.1588  0.3564 -0.6170
   73MOL    C8337667   2.701   5.891   0.830  0.2385  0.1312  0.3638
   73MOL    C8437668   2.636   5.791   0.908 -0.1510  0.3633  0.7169
   73MOL    C8537669   2.585   5.825   1.036 -0.4802  0.7071  0.2543
   73MOL    C8637670   2.620   5.950   1.094 -0.5571 -0.6829  0.6766
   73MOL    C8737671   2.693   6.045   1.020  0.3887 -0.2974 -0.3351
   73MOL    C8837672   2.730   6.014   0.890 -0.0325 -0.0095 -0.8241
   73MOL    C8937673   2.612   5.676   0.824 -1.2515  0.3310 -0.4329
   73MOL    C9037674   2.683   5.701   0.704  0.4419 -0.4709  0.0079
   73MOL    C9137675   2.700   5.599   0.603 -0.5058 -0.9053 -0.7412
   73MOL    C9237676   2.626   5.473   0.619  0.5306 -0.6934  0.7726
   73MOL    C9337677   2.553   5.449   0.737  0.2431 -0.3845 -0.0123
   73MOL    C9437678   2.548   5.553   0.832  0.5258  0.3387  0.5429
   73MOL    H9537679   2.825   5.805   0.411  1.6001 -0.5789  0.9056
   73MOL    H9637680   2.790   5.980   0.401 -1.2947  1.0800  2.3031
   73MOL    H9737681   2.807   6.010   0.627  0.4092 -0.2537  2.0969
   73MOL    H9837682   2.516   5.754   1.078 -0.5042  0.5327 -0.0808
   73MOL    H9937683   2.581   5.971   1.192  1.5543  0.8841  1.1983
   73MOL   H10037684   2.694   6.143   1.065 -0.1479 -0.3686 -0.1583
   73MOL   H10137685   2.801   6.082   0.844  1.2055 -0.2193  0.7349
   73MOL   H10237686   2.762   5.618   0.517  0.5855  1.7902  0.6029
   73MOL   H10337687   2.633   5.399   0.541 -3.0361 -3.0610  2.5675
   73MOL   H10437688   2.509   5.352   0.753 -0.7258 -0.4741 -2.8693
   73MOL   H10537689   2.484   5.519   0.912  2.4768 -2.6151  0.9569
   73MOL   C10637690   2.961   5.863   0.629 -0.1995  0.0085  0.1172
   73MOL   C10737691   3.060   5.930   0.541 -0.3698 -0.0981  0.6243
   73MOL   N10837692   3.034   6.072   0.517 -0.2154  0.2883  0.9008
   73MOL   C10937693   3.007   6.129   0.391  0.7918 -0.3802  0.5773
   73MOL   C11037694   2.974   6.266   0.402 -0.2556  0.6080 -0.2704
   73MOL   C11137695   2.932   6.343   0.287 -0.0673  0.2136  0.2697
   73MOL   C11237696   2.915   6.266   0.171  0.2358 -0.4018  0.5722
   73MOL   C11337697   2.960   6.133   0.158  0.1317  0.1298  0.1539
   73MOL   C11437698   3.005   6.062   0.271  0.4717 -0.2784  0.0916
   73MOL   C11537699   2.989   6.302   0.542 -0.0699  0.6516  0.4231
   73MOL   C11637700   3.028   6.180   0.604 -0.6901 -0.2385 -0.4789
   73MOL   C11737701   3.042   6.175   0.746 -0.6675 -0.4754 -0.7242
   73MOL   C11837702   3.019   6.291   0.822 -0.4976 -0.6235  0.7979
   73MOL   C11937703   2.986   6.412   0.759 -0.3248 -0.2273  0.0362
   73MOL   C12037704   2.969   6.418   0.619  0.7969 -0.3100  0.3809
   73MOL   H12137705   2.986   5.872   0.735 -2.1927  2.0025  0.4461
   73MOL   H12237706   2.971   5.758   0.600  0.7853  1.3771 -5.0431
   73MOL   H12337707   3.042   5.886   0.442  0.3256  1.2691 -0.1185
   73MOL   H12437708   2.899   6.446   0.289  1.7349  0.8480 -0.8504
   73MOL   H12537709   2.896   6.325   0.083  0.2818 -0.3512  0.5965
   73MOL   H12637710   2.964   6.092   0.058  0.6073  0.8697 -0.1386
   73MOL   H12737711   3.032   5.960   0.246  0.8149 -0.2415  0.3146
   73MOL   H12837712   3.076   6.087   0.799  2.8736  1.0331 -0.3125
   73MOL   H12937713   3.030   6.284   0.929  0.1876 -1.0192  0.6989
   73MOL   H13037714   2.979   6.502   0.820  2.5724  0.0034  0.0882
   73MOL   H13137715   2.953   6.515   0.575  2.4325 -0.7408 -1.2172
   73MOL   C13237716   3.204   5.892   0.570  0.1670  0.3089 -0.0614
   73MOL   C13337717   3.239   5.743   0.587  0.3623  0.5263  0.2852
   73MOL   N13437718   3.191   5.658   0.484 -0.2448 -0.2610 -0.1268
   73MOL   C13537719   3.108   5.546   0.502  0.1417  0.2532 -0.0275
   73MOL   C13637720   3.092   5.480   0.373 -0.9499 -0.5917  0.0441
   73MOL   C13737721   3.019   5.355   0.371 -0.3302 -0.6735  0.8314
   73MOL   C13837722   2.969   5.294   0.492  0.0138  0.0387 -0.1620
   73MOL   C13937723   2.989   5.360   0.613  0.4413  0.2572 -0.1174
   73MOL   C14037724   3.061   5.480   0.615 -0.2634 -0.0895 -0.0380
   73MOL   C14137725   3.155   5.564   0.278 -0.8179 -0.0587  0.0601
   73MOL   C14237726   3.219   5.670   0.344  1.4231  0.5469 -1.2353
   73MOL   C14337727   3.285   5.776   0.263 -0.0822  0.2031  0.5723
   73MOL   C14437728   3.287   5.762   0.118  0.0718 -0.0425  0.1875
   73MOL   C14537729   3.222   5.653   0.060  0.1671 -0.5963  0.4064
   73MOL   C14637730   3.164   5.547   0.138 -0.0167  0.3291 -0.1262
   73MOL   H14737731   3.265   5.955   0.504  0.4765  2.0321  1.8276
   73MOL   H14837732   3.223   5.939   0.667 -0.8531  1.0996 -0.2328
   73MOL   H14937733   3.176   5.716   0.672 -0.1439  1.7144  0.2982
   73MOL   H15037734   2.993   5.303   0.279 -2.9126 -0.4628  1.4215
   73MOL   H15137735   2.897   5.213   0.487 -1.7039  1.4780  0.4914
   73MOL   H15237736   2.958   5.311   0.704 -0.8767  0.3967 -0.4785
   73MOL   H15337737   3.083   5.516   0.714  0.4147  1.3753 -0.7121
   73MOL   H15437738   3.330   5.867   0.300 -1.8360  1.8372 -1.1536
   73MOL   H15537739   3.331   5.846   0.064 -1.0171  0.3340 -0.1309
   73MOL   H15637740   3.225   5.628   8.182 -4.1979 -0.6488  0.1655
   73MOL   H15737741   3.132   5.462   0.080  1.4992 -0.1269 -0.3067
   73MOL   C15837742   3.388   5.717   0.611 -0.4211  1.1453  0.3600
   73MOL   C15937743   3.445   5.755   0.747 -0.0028 -0.4415  0.2026
   73MOL   N16037744   3.349   5.744   0.854 -0.5647 -0.5753 -0.6119
   73MOL   C16137745   3.306   5.857   0.926  0.9887  0.5724 -0.5485
   73MOL   C16237746   3.201   5.812   1.014  0.3160  0.0513 -0.4353
   73MOL   C16337747   3.129   5.910   1.094 -0.3441  0.3599 -0.4373
   73MOL   C16437748   3.168   6.045   1.090  0.4979 -0.5008 -0.0010
   73MOL   C16537749   3.283   6.084   1.007 -0.1299  0.3908 -1.1510
   73MOL   C16637750   3.345   5.993   0.928 -0.0247 -0.0239 -0.1706
   73MOL   C16737751   3.198   5.665   1.002 -0.6619  0.3537  0.1706
   73MOL   C16837752   3.294   5.631   0.905 -0.0696 -0.5943  0.2159
   73MOL   C16937753   3.320   5.496   0.879 -0.4511 -0.4210  0.2335
   73MOL   C17037754   3.242   5.393   0.938  0.0403 -0.2157  0.1767
   73MOL   C17137755   3.141   5.424   1.032  0.5406  0.1467 -0.8027
   73MOL   C17237756   3.116   5.560   1.057  0.0244  0.6803  0.7238
   73MOL   H17337757   3.409   5.610   0.606  0.3115  1.2181  1.5249
   73MOL   H17437758   3.454   5.762   0.537  2.0404 -2.0674  0.4814
   73MOL   H17537759   3.465   5.862   0.742 -2.3375  0.0154 -0.2329
   73MOL   H17637760   3.052   5.871   1.159  2.0599 -1.3382  1.4637
   73MOL   H17737761   3.118   6.116   1.155 -2.6363  0.5930 -3.4786
   73MOL   H17837762   3.324   6.183   1.010  0.5467  0.1080 -1.0344
   73MOL   H17937763   3.428   6.012   0.862  0.2595  1.6970  0.6655
   73MOL   H18037764   3.402   5.464   0.817 -0.8804  1.6888 -1.5022
   73MOL   H18137765   3.251   5.287   0.915 -2.1291 -0.7506  1.6003
   73MOL   H18237766   3.069   5.355   1.073 -1.4208  1.1136 -2.5399
   73MOL   H18337767   3.034   5.594   1.118 -1.4375 -1.3956 -0.0383
   73MOL   C18437768   3.592   5.700   0.776 -0.0583  0.1128  0.3126
   73MOL   C18537769   3.701   5.777   0.705  0.1331 -0.0501  0.4462
   73MOL   N18637770   3.686   5.921   0.705  0.0424 -0.2736 -0.3231
   73MOL   C18737771   3.676   6.007   0.593  0.1295  0.0915 -0.0679
   73MOL   C18837772   3.663   6.143   0.630  0.0827  0.0246 -0.3622
   73MOL   C18937773   3.652   6.240   0.535 -0.5501 -0.3915  0.5610
   73MOL   C19037774   3.648   6.214   0.399  0.3348 -0.1961  0.1970
   73MOL   C19137775   3.656   6.082   0.365  0.1780 -0.0377  0.1788
   73MOL   C19237776   3.674   5.976   0.455  0.6368 -0.5664 -0.2050
   73MOL   C19337777   3.677   6.145   0.773  0.1704 -0.1757  0.7712
   73MOL   C19437778   3.698   6.009   0.815  0.1152 -0.2680 -0.0927
   73MOL   C19537779   3.713   5.986   0.957  0.0979  0.5030  0.4731
   73MOL   C19637780   3.724   6.093   1.048  0.7063 -0.1153  0.5106
   73MOL   C19737781   3.712   6.224   1.004 -0.2853  0.0395 -0.4722
   73MOL   C19837782   3.693   6.248   0.868 -0.1362 -0.6087  0.0778
   73MOL   H19937783   3.609   5.717   0.883 -0.9216 -0.2087  0.4978
   73MOL   H20037784   3.609   5.593   0.765 -0.2900 -0.0794  1.6569
   73MOL   H20137785   3.698   5.752   0.599 -1.1482  1.5878  0.0808
   73MOL   H20237786   3.660   6.341   0.573 -1.1142 -0.9489  2.1995
   73MOL   H20337787   3.653   6.294   0.326  0.9007 -0.1368  0.3023
   73MOL   H20437788   3.642   6.055   0.261  0.4254  1.7360 -0.3331
   73MOL   H20537789   3.683   5.880   0.407  0.9034 -0.1309 -1.0364
   73MOL   H20637790   3.720   5.886   0.995  0.4662  0.2601 -0.2258
   73MOL   H20737791   3.716   6.070   1.153 -1.5379  1.8552  0.7957
   73MOL   H20837792   3.726   6.305   1.074 -2.6870 -0.0032  0.0849
   73MOL   H20937793   3.690   6.350   0.834  1.2529 -0.4510  0.4095
   73MOL   C21037794   3.840   5.732   0.759  0.3123  0.5592  0.3473
   73MOL   C21137795   3.960   5.780   0.669 -0.0822  0.3337  1.0147
   73MOL   N21237796   4.013   5.913   0.705 -0.1425 -0.1691 -0.3589
   73MOL   C21337797   4.025   6.020   0.614  0.2549  0.7945  0.0414
   73MOL   C21437798   4.085   6.126   0.689  0.1518 -0.2746 -0.5529
   73MOL   C21537799   4.122   6.243   0.612 -0.2800  0.5825  0.3193
   73MOL   C21637800   4.105   6.249   0.472 -1.0838  0.1026  0.0151
   73MOL   C21737801   4.053   6.143   0.406  0.3506  1.0190 -0.9348
   73MOL   C21837802   4.010   6.026   0.476 -0.0913 -0.3333 -0.3469
   73MOL   C21937803   4.095   6.092   0.821  0.3711  0.3602  0.1092
   73MOL   C22037804   4.066   5.954   0.831 -1.3114  0.4291  0.6199
   73MOL   C22137805   4.091   5.881   0.946  0.0772 -0.2459 -0.4130
   73MOL   C22237806   4.129   5.949   1.064 -0.0319 -0.0996 -0.1251
   73MOL   C22337807   4.166   6.089   1.062  0.6805  0.2111  0.4862
   73MOL   C22437808   4.163   6.150   0.936  0.3566  0.3251 -0.0867
   73MOL   H22537809   3.853   5.773   0.859 -0.3803  2.3444 -0.2636
   73MOL   H22637810   3.844   5.625   0.778 -2.4406  0.1697 -1.0127
   73MOL   H22737811   3.914   5.780   0.570  1.7910 -0.6097  0.1193
   73MOL   H22837812   4.182   6.320   0.659  1.2024  0.7421 -1.7950
   73MOL   H22937813   4.139   6.338   0.422 -2.0359  1.4663  1.7485
   73MOL   H23037814   4.062   6.133   0.299  0.1250 -1.5479 -0.7466
   73MOL   H23137815   3.980   5.939   0.420 -0.2497  0.3830 -1.3894
   73MOL   H23237816   4.071   5.774   0.943 -1.6038 -0.0560  2.3543
   73MOL   H23337817   4.135   5.886   1.152  0.2870 -1.3137 -1.0085
   73MOL   H23437818   4.220   6.126   1.148  1.6280 -0.3828  0.1506
   73MOL   H23537819   4.210   6.246   0.920 -2.1666  1.7121  0.6804
   73MOL   C23637820   4.078   5.674   0.652 -0.1487 -0.0480 -0.0155
   73MOL   C23737821   4.064   5.548   0.573 -0.2304 -0.0234  0.0488
   73MOL   N23837822   3.991   5.574   0.445  0.0237 -0.0889  0.2879
   73MOL   C23937823   3.860   5.547   0.421  0.0508 -0.1673  0.3782
   73MOL   C24037824   3.825   5.588   0.285 -0.2347 -0.0668 -0.4895
   73MOL   C24137825   3.693   5.572   0.240 -0.0946  0.5159  0.2174
   73MOL   C24237826   3.598   5.518   0.329  0.6117  0.2617 -1.2381
   73MOL   C24337827   3.636   5.478   0.462 -0.4822  0.6259 -0.3209
   73MOL   C24437828   3.768   5.494   0.510  0.8070  0.6608  0.4840
   73MOL   C24537829   3.944   5.631   0.230  0.5005  0.3172 -0.3318
   73MOL   C24637830   4.039   5.641   0.330  0.0721  0.0620  0.1662
   73MOL   C24737831   4.163   5.711   0.302 -0.4824 -0.1098 -0.0988
   73MOL   C24837832   4.187   5.756   0.175 -0.1034 -0.6267  0.4443
   73MOL   C24937833   4.096   5.740   0.070  1.1048  0.2977 -0.5224
   73MOL   C25037834   3.972   5.683   0.102 -0.0710  0.2118  0.5602
   73MOL   H25137835   4.154   5.736   0.605  1.6007 -0.2629  2.4872
   73MOL   H25237836   4.111   5.647   0.752  0.6102  1.9230  0.2834
   73MOL   H25337837   4.007   5.472   0.625  1.7394 -0.4051  1.6924
   73MOL   H25437838   3.667   5.598   0.139  0.5834  0.7719  0.1130
   73MOL   H25537839   3.498   5.500   0.293 -0.5727  0.6479  1.7687
   73MOL   H25637840   3.554   5.447   0.526 -1.7335 -1.1354 -2.7002
   73MOL   H25737841   3.794   5.461   0.609 -1.5229 -1.0158  0.5626
   73MOL   H25837842   4.238   5.725   0.379  0.1665  0.3893 -0.8169
   73MOL   H25937843   4.273   5.817   0.152 -1.4746 -0.4252 -4.8285
   73MOL   H26037844   4.107   5.777   8.196  0.4549 -2.0056 -1.4581
   73MOL   H26137845   3.897   5.682   0.023  0.4644 -2.4179  0.0421
   73MOL   C26237846   4.199   5.475   0.561  0.4144  0.1343 -0.6564
   73MOL   C26337847   4.225   5.353   0.465  0.0917 -0.2087 -0.5832
   73MOL   N26437848   4.292   5.386   0.342 -0.5696  0.4252  0.8570
   73MOL   C26537849   4.237   5.378   0.215 -0.6129  0.1228  0.5968
   73MOL   C26637850   4.329   5.416   0.114 -0.8214 -0.4817 -0.3483
   73MOL   C26737851   4.293   5.411   8.207 -0.1287  0.0966  0.6930
   73MOL   C26837852   4.169   5.361   8.162 -0.7073 -0.3127  0.1666
   73MOL   C26937853   4.079   5.325   0.037 -0.1620 -0.0561 -0.4880
   73MOL   C27037854   4.106   5.345   0.176 -0.3348 -0.3567 -0.2614
   73MOL   C27137855   4.446   5.472   0.188 -0.0132  0.3427 -0.0949
   73MOL   C27237856   4.420   5.448   0.328  0.8615 -0.3500 -0.2709
   73MOL   C27337857   4.520   5.496   0.421  0.7720 -0.5000  0.1585
   73MOL   C27437858   4.626   5.578   0.383  0.6003 -0.0939 -1.1456
   73MOL   C27537859   4.646   5.591   0.245 -0.2112 -0.6775 -0.7440
   73MOL   C27637860   4.563   5.535   0.151 -0.7547 -0.8525 -0.2257
   73MOL   H27737861   4.281   5.545   0.548 -0.9980  1.7719 -1.0173
   73MOL   H27837862   4.215   5.446   0.664 -1.0614 -2.5515 -1.1270
   73MOL   H27937863   4.128   5.314   0.435 -0.3233  0.2494  0.1559
   73MOL   H28037864   4.363   5.456   8.139 -2.5227  0.3763 -1.7074
   73MOL   H28137865   4.136   5.369   8.059  2.2302  0.8261 -0.7244
   73MOL   H28237866   3.979   5.296   0.009  0.0273 -0.9344 -0.2596
   73MOL   H28337867   4.029   5.327   0.249 -0.8504 -0.6220 -0.8672
   73MOL   H28437868   4.494   5.480   0.525 -1.6553  1.9885 -0.0230
   73MOL   H28537869   4.697   5.626   0.448 -0.0766 -0.8789  0.1943
   73MOL   H28637870   4.730   5.648   0.210 -0.1043 -0.1965  0.2570
   73MOL   H28737871   4.579   5.555   0.046 -1.4893  0.8212 -0.0508
   73MOL   C28837872   4.298   5.241   0.542  0.8307 -0.4540 -0.1279
   73MOL   C28937873   4.339   5.122   0.459 -0.0045 -0.7269  0.1370
   73MOL   N29037874   4.404   5.042   0.562 -0.1082  0.5788  0.0849
   73MOL   C29137875   4.538   5.023   0.573  0.4540  0.8051 -0.2573
   73MOL   C29237876   4.570   4.949   0.689  0.1102  0.2951  0.7901
   73MOL   C29337877   4.698   4.921   0.718  0.3946  0.2579 -0.3560
   73MOL   C29437878   4.805   4.957   0.630  0.6544 -0.0021  0.4586
   73MOL   C29537879   4.777   5.030   0.519  1.3397  0.2953 -0.4996
   73MOL   C29637880   4.642   5.068   0.487 -0.4166  0.0369  0.2202
   73MOL   C29737881   4.440   4.911   0.744 -0.2359 -0.0599 -0.0581
   73MOL   C29837882   4.342   4.967   0.662  0.3345 -0.1844 -0.1630
   73MOL   C29937883   4.205   4.947   0.694  0.5858 -0.3534 -0.3251
   73MOL   C30037884   4.155   4.861   0.800  0.2044 -0.3062 -0.4319
   73MOL   C30137885   4.257   4.814   0.881  0.1525 -0.8229 -0.3944
   73MOL   C30237886   4.395   4.841   0.860  0.0777  0.2579 -0.0834
   73MOL   H30337887   4.390   5.275   0.588  0.2911 -0.2833  0.8362
   73MOL   H30437888   4.232   5.210   0.623 -2.2738  1.5505 -1.7838
   73MOL   H30537889   4.412   5.161   0.388 -0.8033  1.3079  0.3917
   73MOL   H30637890   4.725   4.872   0.811  0.1944  0.9370  0.0648
   73MOL   H30737891   4.912   4.940   0.637  0.4150 -2.4784 -1.3360
   73MOL   H30837892   4.850   5.056   0.444  1.2174 -1.1983 -1.1523
   73MOL   H30937893   4.624   5.116   0.392 -0.8656 -0.0190  0.2773
   73MOL   H31037894   4.136   4.989   0.622  1.6679 -0.0000 -1.1571
   73MOL   H31137895   4.048   4.850   0.802  0.1967 -0.1206  0.2187
   73MOL   H31237896   4.215   4.760   0.965  0.7192  0.4934  0.7414
   73MOL   H31337897   4.457   4.800   0.938  0.0988  0.2146 -0.1232
   73MOL   C31437898   4.235   5.050   0.362 -0.2258 -0.3065 -0.3209
   73MOL   C31537899   4.268   4.903   0.322 -0.1857  0.1938 -0.0910
   73MOL   N31637900   4.158   4.831   0.266 -0.4817  0.5906  0.5402
   73MOL   C31737901   4.081   4.728   0.330 -0.0699  0.4267  0.1938
   73MOL   C31837902   3.980   4.681   0.242  0.2388  0.5648  0.2737
   73MOL   C31937903   3.891   4.578   0.278  0.0941  0.0406 -0.1010
   73MOL   C32037904   3.901   4.516   0.402  0.1778  0.2281 -0.6062
   73MOL   C32137905   4.011   4.555   0.485 -0.3332 -0.0235 -0.2324
   73MOL   C32237906   4.095   4.661   0.452 -0.6700 -0.4231 -0.4999
   73MOL   C32337907   4.002   4.756   0.119 -0.5624 -0.3068 -0.2417
   73MOL   C32437908   4.109   4.846   0.138 -0.2887  0.0003  0.0304
   73MOL   C32537909   4.148   4.933   0.034  0.4780 -0.4190  0.2486
   73MOL   C32637910   4.089   4.923   8.135  0.3432  0.0395  0.0345
   73MOL   C32737911   3.982   4.833   8.113  1.2925 -0.3770 -0.7220
   73MOL   C32837912   3.944   4.749   8.221  0.3007 -0.1592  0.6670
   73MOL   H32937913   4.134   5.060   0.402  1.5782  1.8677  4.0131
   73MOL   H33037914   4.221   5.112   0.273 -2.4762 -2.2822 -1.4211
   73MOL   H33137915   4.276   4.848   0.416  0.9969  2.0254  0.9205
   73MOL   H33237916   3.803   4.546   0.224  1.6368 -0.2004 -2.5717
   73MOL   H33337917   3.833   4.441   0.440 -1.6707  1.5827 -1.1503
   73MOL   H33437918   4.017   4.505   0.581  1.5427 -0.5843 -0.6178
   73MOL   H33537919   4.170   4.687   0.526 -1.0536  1.9184 -0.8765
   73MOL   H33637920   4.215   5.016   0.053 -0.8172  1.3292 -2.5203
   73MOL   H33737921   4.132   4.972   8.048 -1.6401  0.3747 -0.7812
   73MOL   H33837922   3.930   4.821   8.019 -0.5644 -3.3100  0.6255
   73MOL   H33937923   3.860   4.681   8.215  2.3598 -2.7370 -0.1327
   73MOL   C34037924   4.411   4.871   0.252  0.0466 -0.1738  0.6580
   73MOL   C34137925   4.452   4.724   0.270  0.0945 -0.0346 -0.3315
   73MOL   N34237926   4.539   4.675   0.165  1.3452  0.1683  1.3776
   73MOL   C34337927   4.510   4.581   0.063  0.1571  0.2637 -0.5000
   73MOL   C34437928   4.634   4.549   8.220  0.1296  0.1894  0.1454
   73MOL   C34537929   4.628   4.453   8.118 -0.1088 -0.2612  0.4221
   73MOL   C34637930   4.508   4.384   8.091  0.1001  0.2038  0.1182
   73MOL   C34737931   4.392   4.412   8.160 -0.4113  0.4273  0.5868
   73MOL   C34837932   4.388   4.513   0.032 -0.8410  0.1928 -0.1682
   73MOL   C34937933   4.734   4.636   0.050 -0.3715  0.0381  0.0324
   73MOL   C35037934   4.672   4.712   0.155 -0.5060 -0.7034 -0.1198
   73MOL   C35137935   4.750   4.804   0.228 -0.5043 -0.2390 -0.0064
   73MOL   C35237936   4.887   4.820   0.208 -0.1857 -0.3073  0.1234
   73MOL   C35337937   4.949   4.746   0.107 -0.0025  0.4247  0.5770
   73MOL   C35437938   4.874   4.655   0.030  0.2272 -0.2160 -0.0945
   73MOL   H35537939   4.391   4.895   0.147  0.9835 -0.0509  0.5019
   73MOL   H35637940   4.476   4.953   0.281  0.2994  0.6458 -2.0320
   73MOL   H35737941   4.362   4.664   0.255 -0.5885  0.8957 -0.0778
   73MOL   H35837942   4.711   4.417   8.058  1.1486  2.0621  0.7073
   73MOL   H35937943   4.504   4.299   8.025  3.3789  0.2600 -0.2364
   73MOL   H36037944   4.306   4.352   8.133  0.5690 -0.3095 -0.9961
   73MOL   H36137945   4.297   4.533   0.089 -0.2199  1.3169  0.4540
   73MOL   H36237946   4.704   4.843   0.318 -1.1417  0.7319 -0.7403
   73MOL   H36337947   4.933   4.892   0.274  1.8291 -1.1972 -0.2972
   73MOL   H36437948   5.055   4.751   0.087 -0.0361 -2.6928 -0.7135
   73MOL   H36537949   4.922   4.588   8.188  0.4723 -0.9416  0.7710
   73MOL   C36637950   4.486   4.693   0.419  0.1218 -0.0841  0.4278
   73MOL   C36737951   4.560   4.561   0.453 -0.0118 -0.4843  0.4910
   73MOL   N36837952   4.619   4.575   0.582  0.2863 -0.0374  0.2326
   73MOL   C36937953   4.752   4.605   0.602 -0.0800  0.6873 -0.4066
   73MOL   C37037954   4.779   4.599   0.743 -0.0935 -0.2679 -0.1038
   73MOL   C37137955   4.911   4.609   0.793  0.2978 -0.0419  0.1720
   73MOL   C37237956   5.015   4.636   0.707 -0.2146 -0.0866 -0.1272
   73MOL   C37337957   4.992   4.641   0.564 -0.2339  0.5070 -0.0483
   73MOL   C37437958   4.858   4.629   0.515 -0.2612  0.1834 -0.3616
   73MOL   C37537959   4.658   4.569   0.812 -0.0439 -0.5455 -0.0504
   73MOL   C37637960   4.560   4.560   0.714 -0.2769  0.1806 -0.9231
   73MOL   C37737961   4.422   4.540   0.753  0.1634  0.5935  0.6048
   73MOL   C37837962   4.384   4.520   0.886 -0.4134  0.5442 -0.0550
   73MOL   C37937963   4.485   4.528   0.990  0.4528 -0.1664 -0.3802
   73MOL   C38037964   4.616   4.551   0.950  0.2985 -0.1076 -0.2573
   73MOL   H38137965   4.528   4.783   0.464 -1.4928  1.0802 -0.3264
   73MOL   H38237966   4.391   4.682   0.470 -0.0508  0.4877  0.2293
   73MOL   H38337967   4.647   4.557   0.388 -0.0455 -0.4841  0.4457
   73MOL   H38437968   4.928   4.601   0.899  1.7862 -1.2954 -0.1458
   73MOL   H38537969   5.115   4.651   0.746 -0.1644  1.5251 -0.8637
   73MOL   H38637970   5.070   4.670   0.494  0.1145  2.6989  1.2026
   73MOL   H38737971   4.836   4.639   0.410 -1.8909  1.2485  0.0599
   73MOL   H38837972   4.341   4.552   0.682  1.8351 -1.0855 -1.6726
   73MOL   H38937973   4.282   4.508   0.919 -0.3770  0.9017  0.1893
   73MOL   H39037974   4.471   4.519   1.097  0.6967 -1.1617 -0.4323
   73MOL   H39137975   4.693   4.558   1.026  1.5403  3.5880 -1.7608
   73MOL   C39237976   4.457   4.439   0.434 -0.1584  0.1684  0.5631
   73MOL   C39337977   4.525   4.314   0.379  0.5379 -0.5780 -0.0407
   73MOL   N39437978   4.639   4.278   0.456  0.2800 -0.3776 -0.4908
   73MOL   C39537979   4.773   4.301   0.423 -0.7233 -0.0532 -0.8076
   73MOL   C39637980   4.853   4.257   0.537 -0.4128 -0.5019 -0.8926
   73MOL   C39737981   4.993   4.282   0.535  0.1057  0.5869  0.4058
   73MOL   C39837982   5.050   4.338   0.416  0.5414 -0.6246 -0.1624
   73MOL   C39937983   4.973   4.393   0.314 -0.6719  0.1545  0.9144
   73MOL   C40037984   4.833   4.371   0.317  0.3101 -0.3920  0.4745
   73MOL   C40137985   4.763   4.197   0.634 -0.1346  0.2010  0.2241
   73MOL   C40237986   4.631   4.221   0.586 -0.1073  0.2452  0.5140
   73MOL   C40337987   4.518   4.186   0.670  0.0705 -0.5339  0.0677
   73MOL   C40437988   4.528   4.120   0.795 -0.4464 -0.4419  0.2892
   73MOL   C40537989   4.660   4.083   0.838  0.3192  0.1494  0.0061
   73MOL   C40637990   4.774   4.126   0.762  0.1497  0.1518  0.3366
   73MOL   H40737991   4.405   4.413   0.526  2.6963 -0.8614  1.9465
   73MOL   H40837992   4.375   4.465   0.368  0.1269  0.1763  0.2117
   73MOL   H40937993   4.558   4.355   0.283  1.0472  1.0252  0.8078
   73MOL   H41037994   5.051   4.251   0.621 -1.9377 -0.5879  1.3855
   73MOL   H41137995   5.157   4.346   0.418  0.5674  0.0743 -2.4336
   73MOL   H41237996   5.021   4.440   0.229  0.3020  0.5762  1.6989
   73MOL   H41337997   4.777   4.400   0.230 -0.1230  0.4175  1.0277
   73MOL   H41437998   4.417   4.216   0.645  1.0652  1.6391 -1.4119
   73MOL   H41537999   4.443   4.097   0.857 -0.0602  1.5299  1.5947
   73MOL   H41638000   4.668   4.033   0.933  0.7320  0.9466  0.3959
   73MOL   H41738001   4.873   4.100   0.795 -0.3586 -2.3582 -0.0074
   73MOL   C41838002   4.429   4.193   0.348 -0.1121 -0.3975  0.3032
   73MOL   C41938003   4.501   4.073   0.288  0.7508  0.0170 -0.2228
   73MOL   N42038004   4.417   3.961   0.258  0.2957 -0.1352  0.2710
   73MOL   C42138005   4.398   3.854   0.345 -0.0171  0.3559 -0.4040
   73MOL   C42238006   4.309   3.763   0.283  0.7734 -0.0598 -0.1839
   73MOL   C42338007   4.271   3.642   0.351  0.0661  0.1442 -0.2822
   73MOL   C42438008   4.331   3.606   0.476 -0.1867  0.2310 -0.4480
   73MOL   C42538009   4.431   3.695   0.529 -0.4516 -1.5531 -0.7584
   73MOL   C42638010   4.462   3.814   0.467 -0.3401 -0.4679  0.0106
   73MOL   C42738011   4.258   3.827   0.159  0.1225 -0.1567  0.0319
   73MOL   C42838012   4.324   3.954   0.149  0.3646  0.7174  0.4734
   73MOL   C42938013   4.275   4.048   0.055 -1.0017 -0.3335  0.4024
   73MOL   C43038014   4.168   4.016   8.193  0.4968  0.0972  0.0569
   73MOL   C43138015   4.111   3.887   8.201  0.2199 -0.0056  0.2455
   73MOL   C43238016   4.160   3.792   0.063 -0.6036  0.0017  0.4187
   73MOL   H43338017   4.365   4.158   0.428  0.4586 -1.0040  0.5029
   73MOL   H43438018   4.354   4.235   0.281 -1.0276 -1.3885  0.6893
   73MOL   H43538019   4.558   4.040   0.375  2.3760  3.3368  0.0328
   73MOL   H43638020   4.201   3.575   0.304  0.1366 -0.7487  0.8713
   73MOL   H43738021   4.307   3.508   0.513 -2.6645  0.3854 -1.5770
   73MOL   H43838022   4.494   3.669   0.613  0.3467  0.5130 -0.7129
   73MOL   H43938023   4.532   3.874   0.523 -0.9998  2.7359 -2.3946
   73MOL   H44038024   4.322   4.146   0.056  0.6528 -1.1083  1.6413
   73MOL   H44138025   4.137   4.088   8.119  2.8339  2.1932  1.0361
   73MOL   H44238026   4.032   3.867   8.130 -1.0863  2.7758  0.8699
   73MOL   H44338027   4.113   3.696   0.077 -0.5612  0.0672  1.0547
   73MOL   C44438028   4.590   4.098   0.160  0.4729 -0.2616  0.1394
   73MOL   C44538029   4.639   3.976   0.077 -0.2096  0.8172  1.1164
   73MOL   N44638030   4.723   4.019   8.190 -0.2742  0.3086  0.4058
   73MOL   C44738031   4.687   4.021   8.054 -0.1702 -0.0690  0.2563
   73MOL   C44838032   4.793   4.068   7.977 -0.4220 -0.0793 -0.4565
   73MOL   C44938033   4.772   4.073   7.836 -0.7838 -0.5834  0.1093
   73MOL   C45038034   4.647   4.053   7.780 -0.1796 -0.2283 -0.2802
   73MOL   C45138035   4.542   4.010   7.860  0.7844 -0.5297  0.3820
   73MOL   C45238036   4.560   3.998   7.998 -0.0429  0.6338  0.7161
   73MOL   C45338037   4.905   4.097   8.062  0.1701  0.0623 -0.2982
   73MOL   C45438038   4.855   4.085   8.196 -0.1390  0.1741  0.5216
   73MOL   C45538039   4.944   4.121   0.076  0.2487 -0.0551 -0.2015
   73MOL   C45638040   5.076   4.146   0.053 -0.5230 -0.1029  0.4571
   73MOL   C45738041   5.127   4.159   8.150 -0.0026 -0.3426 -0.1698
   73MOL   C45838042   5.040   4.135   8.044 -0.4371 -0.2481 -0.2052
   73MOL   H45938043   4.532   4.154   0.087 -1.6367 -1.3984  0.9226
   73MOL   H46038044   4.674   4.163   0.185  0.6624 -0.3128 -0.3600
   73MOL   H46138045   4.554   3.923   0.036  0.8314 -1.2054  1.5363
   73MOL   H46238046   4.845   4.119   7.771  0.7912 -0.4371  1.9365
   73MOL   H46338047   4.635   4.076   7.675 -1.4082 -1.1482 -0.3569
   73MOL   H46438048   4.445   3.991   7.816 -0.6513  2.2181  2.1790
   73MOL   H46538049   4.472   3.988   8.060 -1.1397 -0.9900 -1.0832
   73MOL   H46638050   4.894   4.112   0.172  0.5983 -0.3085 -0.0397
   73MOL   H46738051   5.141   4.159   0.138  0.9561 -1.5912 -0.4013
   73MOL   H46838052   5.232   4.178   8.134 -0.4572  1.5723 -0.9061
   73MOL   H46938053   5.077   4.159   7.946  0.7239  2.3288  0.8187
   73MOL   C47038054   4.719   3.878   0.167  0.2141  0.6564 -0.1172
   73MOL   C47138055   4.781   3.760   0.100  0.1476 -0.3247  0.6478
   73MOL   N47238056   4.859   3.689   0.205  0.7774  0.2088  0.1436
   73MOL   C47338057   4.996   3.682   0.215  1.0689 -0.0945 -0.3422
   73MOL   C47438058   5.031   3.584   0.310  0.2358 -0.8213  0.4613
   73MOL   C47538059   5.165   3.540   0.328  0.1760 -0.1220  1.2145
   73MOL   C47638060   5.265   3.609   0.259  0.6866 -0.4172  0.4143
   73MOL   C47738061   5.234   3.715   0.176 -0.0629 -0.7174 -0.5205
   73MOL   C47838062   5.099   3.748   0.147  0.1139  0.0590  0.4704
   73MOL   C47938063   4.909   3.527   0.364 -0.1920 -0.3989 -0.0800
   73MOL   C48038064   4.804   3.598   0.299 -0.8411  0.2301  0.6153
   73MOL   C48138065   4.676   3.557   0.325 -0.4056 -0.0012 -0.3647
   73MOL   C48238066   4.651   3.449   0.412 -0.0557  0.3417  0.5553
   73MOL   C48338067   4.751   3.377   0.475  0.2053 -0.9757  0.3333
   73MOL   C48438068   4.884   3.418   0.451  0.1191 -0.7234  0.0528
   73MOL   H48538069   4.786   3.938   0.228  0.5376 -0.4710  0.6653
   73MOL   H48638070   4.656   3.832   0.244 -0.3342  1.2236 -0.2237
   73MOL   H48738071   4.857   3.798   0.033 -0.7019  1.0240  0.4375
   73MOL   H48838072   5.185   3.461   0.399 -0.9896 -2.8071 -1.3639
   73MOL   H48938073   5.367   3.575   0.269  1.3241  2.1849  3.6867
   73MOL   H49038074   5.309   3.776   0.127  0.1078 -0.0511  0.5511
   73MOL   H49138075   5.083   3.822   0.071 -1.3803 -0.8590 -0.1391
   73MOL   H49238076   4.591   3.616   0.295 -0.7815  0.6059  1.8470
   73MOL   H49338077   4.547   3.419   0.423  0.4125 -1.0421  1.3781
   73MOL   H49438078   4.723   3.295   0.540 -2.1900 -1.8738 -1.7253
   73MOL   H49538079   4.957   3.364   0.510 -0.7981 -0.0176  1.8610
   73MOL   C49638080   4.689   3.671   0.022 -0.5914  0.1763  0.0884
   73MOL   C49738081   4.767   3.566   8.176 -0.1631  0.5864  0.3567
   73MOL   N49838082   4.680   3.484   8.096  0.0616  0.1490  0.2731
   73MOL   C49938083   4.633   3.356   8.132 -0.0769 -0.1106  0.1128
   73MOL   C50038084   4.563   3.307   8.020  0.5815  0.2260 -0.0707
   73MOL   C50138085   4.506   3.179   8.032  0.0289  0.0549  0.0308
   73MOL   C50238086   4.530   3.099   8.147 -0.7318  0.3656  0.1672
   73MOL   C50338087   4.593   3.148   0.031  0.2942 -0.3314 -0.2458
   73MOL   C50438088   4.639   3.278   0.022 -0.6267  0.7162  0.2675
   73MOL   C50538089   4.557   3.406   7.923 -0.4821 -0.9663 -0.0852
   73MOL   C50638090   4.624   3.523   7.976  0.0238  1.1016  0.6340
   73MOL   C50738091   4.638   3.636   7.892  0.1517 -0.7777  0.6019
   73MOL   C50838092   4.569   3.644   7.765  0.4963  0.1811 -0.6850
   73MOL   C50938093   4.507   3.533   7.713 -0.6040 -0.7469  0.5038
   73MOL   C51038094   4.497   3.415   7.794  0.9736 -0.2568 -0.7357
   73MOL   H51138095   4.616   3.626   0.089  1.7222 -3.2745  0.4197
   73MOL   H51238096   4.635   3.732   8.176  1.4269 -0.4262 -1.9717
   73MOL   H51338097   4.834   3.501   0.005  0.9774  0.9795 -0.5183
   73MOL   H51438098   4.446   3.130   7.956 -0.4487  1.3434 -0.4448
   73MOL   H51538099   4.481   3.003   8.153  0.0443  0.0005  0.7967
   73MOL   H51638100   4.599   3.085   0.118 -1.8585 -2.2206 -1.4126
   73MOL   H51738101   4.697   3.318   0.104 -0.0059  1.8969 -0.7171
   73MOL   H51838102   4.705   3.715   7.921  0.6940 -0.5446 -1.2367
   73MOL   H51938103   4.573   3.738   7.712 -1.3240 -0.9964 -3.0156
   73MOL   H52038104   4.462   3.535   7.614  2.0300 -1.1234 -0.7544
   73MOL   H52138105   4.445   3.326   7.763 -0.1365  0.2049 -0.2500
   73MOL   H52238106   4.841   3.609   8.108  0.5120  1.3929  1.5976
   74MOL     C138107   1.034   7.161   2.390 -0.0830 -0.4644 -0.6990
   74MOL     C238108   0.907   7.084   2.356 -0.0579 -0.6952 -0.1119
   74MOL     N338109   0.856   6.999   2.463  0.2239  0.1414  0.0935
   74MOL     C438110   0.842   6.862   2.456 -0.3687 -0.3499  0.3932
   74MOL     C538111   0.801   6.812   2.582 -0.2788 -0.1341 -0.0981
   74MOL     C638112   0.785   6.668   2.611 -0.2325 -0.4022 -0.5431
   74MOL     C738113   0.811   6.580   2.513 -1.2140  0.2536 -0.0480
   74MOL     C838114   0.862   6.629   2.390  0.3359  0.0108  0.1029
   74MOL     C938115   0.876   6.766   2.360  0.0566 -0.1896 -0.2234
   74MOL    C1038116   0.774   6.927   2.662  0.7032  1.3856  0.0103
   74MOL    C1138117   0.812   7.043   2.589  0.4351 -1.0097 -0.2708
   74MOL    C1238118   0.800   7.171   2.645 -0.2222  0.3323  0.0546
   74MOL    C1338119   0.748   7.186   2.769  0.3200  0.4211  0.6124
   74MOL    C1438120   0.699   7.076   2.839 -1.3195  0.4388  0.3285
   74MOL    C1538121   0.718   6.943   2.793  0.2294  0.2576  0.0887
   74MOL    H1638122   1.066   7.219   2.304  1.1499  1.7987  1.2350
   74MOL    H1738123   1.119   7.097   2.418 -1.1370 -1.1655  0.9539
   74MOL    H1838124   0.931   7.018   2.273  0.2116 -0.5905 -0.1151
   74MOL    H1938125   0.747   6.631   2.705  3.6685 -1.7292  0.6254
   74MOL    H2038126   0.788   6.475   2.523 -2.0087  0.2011 -2.0540
   74MOL    H2138127   0.892   6.561   2.312  3.7239  1.2597  0.2356
   74MOL    H2238128   0.926   6.794   2.268 -0.0391  2.2658  0.4520
   74MOL    H2338129   0.835   7.254   2.586 -1.8548  0.9955 -0.0136
   74MOL    H2438130   0.744   7.283   2.817  2.1938  1.6374 -1.6028
   74MOL    H2538131   0.667   7.083   2.942  0.6179  0.7518  0.9275
   74MOL    H2638132   0.691   6.863   2.860 -0.3507  1.1295  0.9053
   74MOL    H2738133   1.025   7.233   2.471 -0.5710 -0.3286 -0.8793
   74MOL    C2838134   0.803   7.176   2.303  0.0208  0.2903  0.0647
   74MOL    C2938135   0.661   7.108   2.260 -0.0955  0.3340  0.0553
   74MOL    N3038136   0.547   7.143   2.343 -0.7014  0.5468  0.4739
   74MOL    C3138137   0.446   7.055   2.386 -0.3004  0.5040  0.3859
   74MOL    C3238138   0.357   7.122   2.477  0.9462  0.4716  0.0231
   74MOL    C3338139   0.257   7.048   2.534  0.0839  0.9063 -0.0141
   74MOL    C3438140   0.245   6.908   2.510  0.7831  0.3308 -0.1505
   74MOL    C3538141   0.326   6.850   2.413  0.1433 -0.6176 -0.2580
   74MOL    C3638142   0.427   6.924   2.352 -0.1788  0.2823 -0.5193
   74MOL    C3738143   0.404   7.257   2.479 -0.5640  0.2314 -0.3676
   74MOL    C3838144   0.517   7.270   2.394  0.7485 -0.0605 -0.1369
   74MOL    C3938145   0.576   7.400   2.378 -0.2645 -0.0707 -0.3760
   74MOL    C4038146   0.515   7.512   2.436  0.2848 -0.6501  0.0896
   74MOL    C4138147   0.394   7.499   2.509  0.3825 -0.5466 -0.0156
   74MOL    C4238148   0.343   7.368   2.533  0.1213  0.2910  0.0307
   74MOL    H4338149   0.783   7.240   2.389  2.8743  1.7313 -0.3031
   74MOL    H4438150   0.842   7.236   2.221 -0.2638  2.3206  1.3700
   74MOL    H4538151   0.676   7.002   2.277  0.6253  0.6285  1.2951
   74MOL    H4638152   0.198   7.094   2.612 -1.4707 -0.0489 -0.6119
   74MOL    H4738153   0.173   6.846   2.562  0.2423  0.8949 -0.2142
   74MOL    H4838154   0.303   6.751   2.378 -0.0876 -0.8262  0.4774
   74MOL    H4938155   0.484   6.877   2.273 -0.0898 -0.7256  0.1332
   74MOL    H5038156   0.662   7.422   2.316 -0.4225  1.2704 -0.1343
   74MOL    H5138157   0.560   7.609   2.420  0.2316 -0.4149  1.3264
   74MOL    H5238158   0.339   7.579   2.558  0.4501  0.2081 -1.1637
   74MOL    H5338159   0.258   7.342   2.594  1.0582 -1.2384  0.7261
   74MOL    C5438160   0.616   7.138   2.121 -0.1082 -0.4427  0.4008
   74MOL    C5538161   0.723   7.109   2.009 -0.2138 -1.2114  0.0775
   74MOL    N5638162   0.788   6.975   2.008 -0.1867  0.7770 -0.0165
   74MOL    C5738163   0.925   6.957   1.980 -0.0446 -0.5761 -0.1201
   74MOL    C5838164   0.956   6.819   1.988 -0.2705  0.5372 -0.2336
   74MOL    C5938165   1.089   6.777   1.989  0.1884 -1.2528  0.4532
   74MOL    C6038166   1.189   6.873   1.964  0.3568 -0.6140  0.0777
   74MOL    C6138167   1.160   7.007   1.941  0.2074 -0.3046 -0.1911
   74MOL    C6238168   1.030   7.050   1.949  1.3602  0.4666  0.8777
   74MOL    C6338169   0.829   6.747   2.013 -0.0990 -0.3500  0.2465
   74MOL    C6438170   0.728   6.847   2.018 -0.3531 -0.6056 -0.5024
   74MOL    C6538171   0.592   6.804   2.025  0.0672 -0.3510  0.2243
   74MOL    C6638172   0.558   6.674   2.072  0.1799 -0.2423  0.4880
   74MOL    C6738173   0.667   6.578   2.084  0.5951 -0.0595  0.2023
   74MOL    C6838174   0.795   6.617   2.047  0.0692 -0.2020 -0.4680
   74MOL    H6938175   0.522   7.089   2.095 -0.6393  1.4983 -1.5215
   74MOL    H7038176   0.589   7.243   2.115  1.4612  0.0789  2.0412
   74MOL    H7138177   0.804   7.180   2.027  0.6141 -2.2695  0.5753
   74MOL    H7238178   1.106   6.672   2.009  1.9344 -1.1564 -0.4425
   74MOL    H7338179   1.293   6.844   1.957  0.0895 -1.3854 -0.7026
   74MOL    H7438180   1.234   7.084   1.921 -0.9331  0.9816  0.4328
   74MOL    H7538181   1.016   7.158   1.947 -0.4021  0.3230  3.0173
   74MOL    H7638182   0.515   6.880   2.023 -0.4663 -0.9090 -1.0413
   74MOL    H7738183   0.457   6.641   2.087  0.4142 -0.4894  1.5718
   74MOL    H7838184   0.669   6.476   2.121  1.0454 -0.3637 -0.6349
   74MOL    H7938185   0.877   6.547   2.042 -0.6354 -1.1875  1.4645
   74MOL    C8038186   0.670   7.131   1.864  0.7168  0.1440 -0.5297
   74MOL    C8138187   0.615   7.273   1.832  0.3720  0.0811 -0.8824
   74MOL    N8238188   0.715   7.372   1.870  0.2514 -0.4662  0.7450
   74MOL    C8338189   0.682   7.475   1.955 -0.6554 -0.1528 -0.5247
   74MOL    C8438190   0.796   7.560   1.977  0.0190 -0.1284  0.4930
   74MOL    C8538191   0.788   7.664   2.068 -0.4680 -0.3702 -0.7683
   74MOL    C8638192   0.676   7.693   2.138  0.1822 -0.1400  0.0393
   74MOL    C8738193   0.564   7.615   2.119  0.5149  0.8709  0.7653
   74MOL    C8838194   0.570   7.504   2.030 -0.1559 -0.2338  0.4571
   74MOL    C8938195   0.903   7.503   1.900  1.0063  1.1774  0.6707
   74MOL    C9038196   0.844   7.393   1.825 -0.3691  0.2734 -0.2855
   74MOL    C9138197   0.922   7.322   1.735 -0.1636 -1.0516 -0.4486
   74MOL    C9238198   1.058   7.366   1.707  0.1165 -0.3368  0.5043
   74MOL    C9338199   1.114   7.472   1.778 -0.4193 -0.0211 -0.1794
   74MOL    C9438200   1.039   7.535   1.879 -0.3760  0.9112 -0.3603
   74MOL    H9538201   0.745   7.090   1.796 -0.6608 -0.7687 -1.5032
   74MOL    H9638202   0.588   7.063   1.844  0.0866  0.9868 -0.8261
   74MOL    H9738203   0.522   7.279   1.889 -1.2468 -0.2146 -3.4046
   74MOL    H9838204   0.882   7.706   2.098 -1.0404  0.7682 -0.5533
   74MOL    H9938205   0.673   7.788   2.189 -0.5770 -0.2891  0.2803
   74MOL   H10038206   0.467   7.648   2.154  0.8568  1.9915  0.6800
   74MOL   H10138207   0.478   7.451   2.007  0.7458 -0.3456 -3.1048
   74MOL   H10238208   0.879   7.244   1.675 -1.6048 -1.6927  1.3607
   74MOL   H10338209   1.119   7.317   1.633 -1.0080  1.0829 -1.3885
   74MOL   H10438210   1.211   7.511   1.750 -0.2538 -0.6910 -0.5275
   74MOL   H10538211   1.087   7.615   1.934 -0.9945  0.8818  0.2244
   74MOL   C10638212   0.578   7.282   1.684 -0.1366  0.1166 -0.0136
   74MOL   C10738213   0.451   7.200   1.639 -0.6531  0.6234  0.7122
   74MOL   N10838214   0.337   7.225   1.735  0.0688  0.1297  0.2014
   74MOL   C10938215   0.269   7.132   1.816 -0.6077 -0.1892  0.5114
   74MOL   C11038216   0.194   7.199   1.912  0.2008  0.2413  0.2097
   74MOL   C11138217   0.150   7.124   2.022 -0.0606 -0.0674 -0.2190
   74MOL   C11238218   0.155   6.984   2.030 -0.0551 -1.1211  0.1840
   74MOL   C11338219   0.239   6.919   1.933 -0.5362 -0.5427  0.5924
   74MOL   C11438220   0.293   6.987   1.827  0.3368  0.3255 -0.2084
   74MOL   C11538221   0.189   7.340   1.871  0.0314 -0.3036 -0.0334
   74MOL   C11638222   0.282   7.350   1.761  0.3107  0.6134 -0.0604
   74MOL   C11738223   0.311   7.473   1.704 -0.2685  0.9607 -0.2955
   74MOL   C11838224   0.259   7.590   1.762  0.1172 -0.7367 -0.0485
   74MOL   C11938225   0.173   7.588   1.875  0.1425 -0.1824 -1.0315
   74MOL   C12038226   0.140   7.459   1.929  0.2312 -0.8392 -0.8238
   74MOL   H12138227   0.552   7.385   1.662  0.9119  0.4522  0.3198
   74MOL   H12238228   0.662   7.271   1.616 -1.6062 -0.8788 -1.7339
   74MOL   H12338229   0.469   7.094   1.654 -1.8350  0.4474  0.9897
   74MOL   H12438230   0.100   7.169   2.106 -0.5774  0.4970 -0.8142
   74MOL   H12538231   0.116   6.929   2.114 -0.9480 -0.3585  0.2647
   74MOL   H12638232   0.243   6.811   1.943  0.9702 -0.4865  0.7039
   74MOL   H12738233   0.366   6.945   1.758 -1.0409 -1.9994 -0.3063
   74MOL   H12838234   0.372   7.483   1.615  0.7510 -0.1551  0.2501
   74MOL   H12938235   0.283   7.680   1.707 -0.3856 -0.5336  0.0597
   74MOL   H13038236   0.143   7.680   1.923 -1.5354 -0.5186 -1.3944
   74MOL   H13138237   0.085   7.456   2.021  1.5881  1.4630  0.1061
   74MOL   C13238238   0.421   7.221   1.486 -0.2769 -0.0024  0.1196
   74MOL   C13338239   0.522   7.158   1.394  0.9007  0.1842  0.2114
   74MOL   N13438240   0.572   7.026   1.448 -0.4246 -0.3201 -0.2391
   74MOL   C13538241   0.705   6.991   1.478  0.7048 -0.0651  0.1945
   74MOL   C13638242   0.714   6.855   1.524  0.5945  0.1177  0.0382
   74MOL   C13738243   0.838   6.792   1.559 -0.9113 -0.0992 -0.6671
   74MOL   C13838244   0.960   6.866   1.553  0.6755  0.4157  0.2429
   74MOL   C13938245   0.950   7.001   1.510 -0.2305  0.2350 -0.1019
   74MOL   C14038246   0.829   7.058   1.468 -0.0735 -0.1619  0.3254
   74MOL   C14138247   0.575   6.808   1.528  0.8603 -0.1377  0.3844
   74MOL   C14238248   0.492   6.910   1.470 -0.3430 -0.1048 -0.4303
   74MOL   C14338249   0.353   6.888   1.450  0.2107  0.2807  0.9259
   74MOL   C14438250   0.292   6.768   1.495 -0.7843 -0.0312 -0.1587
   74MOL   C14538251   0.373   6.664   1.542 -0.0098  0.4320 -0.9337
   74MOL   C14638252   0.509   6.688   1.571  0.1728 -0.4072 -0.1062
   74MOL   H14738253   0.331   7.163   1.465  1.2768 -2.8525  1.0886
   74MOL   H14838254   0.389   7.319   1.451 -2.6294 -1.1021 -0.9505
   74MOL   H14938255   0.606   7.227   1.396 -0.2362  1.6216 -0.0241
   74MOL   H15038256   0.844   6.692   1.598  0.1637  0.0055 -0.5452
   74MOL   H15138257   1.056   6.826   1.582  1.0462  1.5842  0.6447
   74MOL   H15238258   1.038   7.062   1.498 -1.8680  2.4747 -0.9141
   74MOL   H15338259   0.834   7.158   1.427  4.0080 -0.7445 -0.8801
   74MOL   H15438260   0.287   6.971   1.429 -0.6871  0.0490  2.6881
   74MOL   H15538261   0.185   6.755   1.481 -1.0076  0.1405  1.2449
   74MOL   H15638262   0.322   6.576   1.579 -1.5054  1.2280 -1.0337
   74MOL   H15738263   0.564   6.616   1.629  2.3109  0.4343 -1.0273
   74MOL   C15838264   0.463   7.163   1.250 -0.1010 -0.2813  0.1334
   74MOL   C15938265   0.537   7.114   1.131  0.1198  0.2766  0.5533
   74MOL   N16038266   0.479   7.159   1.004  0.2106 -0.2385  0.0071
   74MOL   C16138267   0.441   7.067   0.902 -0.9283  0.3482 -0.3251
   74MOL   C16238268   0.407   7.140   0.783 -0.4223 -0.8326  0.3188
   74MOL   C16338269   0.376   7.067   0.667  0.5566  0.7013 -0.5934
   74MOL   C16438270   0.372   6.928   0.662 -0.8117  0.0303  0.3644
   74MOL   C16538271   0.402   6.860   0.782 -0.2900 -0.1350 -1.2222
   74MOL   C16638272   0.433   6.930   0.902 -0.7247  0.3750  0.2317
   74MOL   C16738273   0.415   7.280   0.817 -0.6683  0.2624  0.5850
   74MOL   C16838274   0.463   7.288   0.948  0.2432  0.1907  0.3835
   74MOL   C16938275   0.501   7.411   1.001  0.5717 -0.1429  0.4457
   74MOL   C17038276   0.462   7.531   0.941 -0.2505  0.0452 -0.0910
   74MOL   C17138277   0.394   7.525   0.815  0.6532  0.1683 -0.4854
   74MOL   C17238278   0.379   7.401   0.753 -0.3513 -0.1472  0.1072
   74MOL   H17338279   0.369   7.109   1.239 -0.9051  1.1667 -0.2388
   74MOL   H17438280   0.444   7.269   1.233  0.1768 -0.4984 -1.5813
   74MOL   H17538281   0.532   7.006   1.130  1.0451  0.2196  1.5520
   74MOL   H17638282   0.357   7.122   0.576 -0.1510  3.4397  1.1552
   74MOL   H17738283   0.350   6.873   0.572 -2.6630 -1.3168  1.5967
   74MOL   H17838284   0.408   6.752   0.777 -0.0167 -0.3365  2.1154
   74MOL   H17938285   0.447   6.872   0.993  3.0264 -1.8271 -1.6049
   74MOL   H18038286   0.561   7.411   1.091 -0.2169 -3.4472  1.0526
   74MOL   H18138287   0.480   7.624   0.995 -1.1043 -0.2606  0.7323
   74MOL   H18238288   0.361   7.615   0.766 -1.1924 -0.5413 -0.5605
   74MOL   H18338289   0.323   7.401   0.661 -2.5180 -1.2321  1.4060
   74MOL   C18438290   0.691   7.135   1.134 -0.2507 -0.4602 -0.0177
   74MOL   C18538291   0.763   7.036   1.047  0.2633 -0.1896 -0.2285
   74MOL   N18638292   0.876   7.099   0.970 -0.4739  0.4245 -0.1262
   74MOL   C18738293   0.889   7.092   0.829 -0.1325  0.5342  0.3449
   74MOL   C18838294   1.027   7.120   0.790 -0.0089 -0.1720 -0.4885
   74MOL   C18938295   1.066   7.116   0.654 -0.1408  0.1154  0.5180
   74MOL   C19038296   0.969   7.090   0.556  1.0612 -0.2734 -0.2198
   74MOL   C19138297   0.839   7.058   0.596 -0.0521 -0.3039 -0.3421
   74MOL   C19238298   0.795   7.061   0.728 -0.6366 -0.0769  0.7572
   74MOL   C19338299   1.091   7.158   0.911 -0.7333 -0.3223  0.0981
   74MOL   C19438300   1.004   7.135   1.020 -1.0460  1.1725 -0.2419
   74MOL   C19538301   1.060   7.145   1.151 -0.3266 -0.5654 -0.2291
   74MOL   C19638302   1.187   7.186   1.173  0.6240 -0.6734 -1.0179
   74MOL   C19738303   1.273   7.219   1.069 -0.4033  0.6251  0.5966
   74MOL   C19838304   1.219   7.212   0.938 -0.4975 -0.9497  0.2066
   74MOL   H19938305   0.704   7.238   1.103 -2.7074 -0.2595 -0.4340
   74MOL   H20038306   0.740   7.131   1.232  2.1627  0.3344 -1.1501
   74MOL   H20138307   0.687   7.002   0.976 -1.9554 -2.4560  3.0921
   74MOL   H20238308   1.164   7.146   0.620 -0.6093 -0.4188 -1.3775
   74MOL   H20338309   0.994   7.111   0.453  1.5375 -0.3186 -0.1136
   74MOL   H20438310   0.776   7.025   0.514  0.4986  1.9269 -1.7146
   74MOL   H20538311   0.694   7.024   0.738 -2.1102  3.3210 -0.8294
   74MOL   H20638312   1.006   7.114   1.239  2.8134 -0.1511  1.9189
   74MOL   H20738313   1.225   7.184   1.274 -2.5820  0.6026  0.2793
   74MOL   H20838314   1.374   7.255   1.081 -1.0162  1.5324  3.3419
   74MOL   H20938315   1.282   7.233   0.853  0.5835 -0.6932  1.0543
   74MOL   C21038316   0.800   6.906   1.125 -0.2253 -0.0396 -0.0891
   74MOL   C21138317   0.890   6.806   1.039  0.0020 -0.3522 -0.3077
   74MOL   N21238318   0.973   6.715   1.124  0.1004 -0.1022  0.2432
   74MOL   C21338319   1.116   6.704   1.112 -0.8438  0.2147 -0.0844
   74MOL   C21438320   1.160   6.595   1.184 -0.9472 -0.5734  0.0119
   74MOL   C21538321   1.297   6.556   1.180  0.2910 -0.1899  1.0338
   74MOL   C21638322   1.391   6.631   1.104 -0.7782 -0.2021 -0.6710
   74MOL   C21738323   1.353   6.747   1.037 -0.1974 -0.5047  0.3807
   74MOL   C21838324   1.211   6.780   1.039 -0.3760 -0.1222  0.1244
   74MOL   C21938325   1.050   6.545   1.257  0.5802  0.1962 -0.4450
   74MOL   C22038326   0.936   6.626   1.228 -0.2730  0.1370  0.9274
   74MOL   C22138327   0.817   6.607   1.287 -0.6373  0.1554  0.2639
   74MOL   C22238328   0.796   6.500   1.374  0.4721  0.1869 -0.1501
   74MOL   C22338329   0.903   6.417   1.403  0.2090 -0.3415  0.5997
   74MOL   C22438330   1.033   6.441   1.352 -0.4180  0.8290  0.2435
   74MOL   H22538331   0.836   6.939   1.222  0.0847 -3.0447  0.8625
   74MOL   H22638332   0.711   6.859   1.166 -0.5606  0.7838  0.1292
   74MOL   H22738333   0.963   6.875   0.996  1.1706 -0.8045  0.9485
   74MOL   H22838334   1.336   6.469   1.230 -1.2359 -1.7506 -0.4458
   74MOL   H22938335   1.493   6.595   1.099 -1.1411 -1.4692  0.7081
   74MOL   H23038336   1.431   6.801   0.985 -0.6341 -0.7727 -0.5658
   74MOL   H23138337   1.192   6.876   0.992 -0.3346 -1.0214 -1.8005
   74MOL   H23238338   0.738   6.678   1.267 -1.6347 -1.3895 -1.4473
   74MOL   H23338339   0.702   6.498   1.427  0.8905  0.5971  0.6129
   74MOL   H23438340   0.902   6.338   1.477 -0.6919 -0.8462  0.0670
   74MOL   H23538341   1.118   6.384   1.387  1.6511  3.3469 -0.5531
   74MOL   C23638342   0.809   6.734   0.925  0.5864 -0.1987  0.2839
   74MOL   C23738343   0.898   6.636   0.845 -0.8982 -0.5218  0.5370
   74MOL   N23838344   0.804   6.538   0.782 -0.5192 -0.3341 -0.2371
   74MOL   C23938345   0.779   6.409   0.826  1.0390  0.5492  0.9317
   74MOL   C24038346   0.689   6.346   0.735 -0.5733 -0.5512 -0.3421
   74MOL   C24138347   0.658   6.206   0.743  0.2692  0.1175 -0.4052
   74MOL   C24238348   0.715   6.130   0.839  0.3975  0.5320 -0.8505
   74MOL   C24338349   0.801   6.192   0.932  0.2181 -0.1132 -0.2524
   74MOL   C24438350   0.833   6.326   0.927 -0.1404  0.6654  0.0615
   74MOL   C24538351   0.644   6.441   0.644 -0.0170  0.6435  0.1570
   74MOL   C24638352   0.711   6.562   0.678  0.5465 -0.3262 -0.0230
   74MOL   C24738353   0.677   6.679   0.600  0.1938 -0.7393 -0.0917
   74MOL   C24838354   0.577   6.678   0.500 -1.0825 -0.0200 -0.5803
   74MOL   C24938355   0.511   6.556   0.471  0.3881 -0.7219  0.1947
   74MOL   C25038356   0.546   6.441   0.541 -0.2150  0.5081 -0.7716
   74MOL   H25138357   0.733   6.675   0.977  0.5045 -0.3611 -0.0221
   74MOL   H25238358   0.776   6.811   0.856  0.2762 -0.1561  0.4806
   74MOL   H25338359   0.965   6.573   0.903 -1.7417 -0.2879  1.7657
   74MOL   H25438360   0.583   6.166   0.676 -1.3881  3.3350 -0.5772
   74MOL   H25538361   0.682   6.028   0.851  1.4192  0.4045  1.0394
   74MOL   H25638362   0.837   6.125   1.008 -1.3540 -1.2708 -0.4833
   74MOL   H25738363   0.903   6.362   1.001  2.1205 -3.8546  0.3043
   74MOL   H25838364   0.715   6.775   0.632  4.5818 -0.8263 -4.4469
   74MOL   H25938365   0.546   6.765   0.443 -1.1511 -0.6470 -1.5067
   74MOL   H26038366   0.427   6.552   0.403 -0.7072  1.8728  1.3225
   74MOL   H26138367   0.514   6.339   0.523  0.2810  0.2923 -0.4639
   74MOL   C26238368   0.987   6.712   0.751  0.1251 -0.4894  0.6223
   74MOL   C26338369   1.080   6.632   0.657  0.3055  0.1513 -0.4588
   74MOL   N26438370   1.115   6.721   0.550  0.0919  1.2067  0.2793
   74MOL   C26538371   1.051   6.738   0.427 -0.5614 -0.6709 -0.1286
   74MOL   C26638372   1.127   6.840   0.356  0.1372 -1.0764 -0.0620
   74MOL   C26738373   1.086   6.879   0.225  1.0994  0.8602  0.2520
   74MOL   C26838374   0.967   6.825   0.174  0.6111 -0.1415 -0.3491
   74MOL   C26938375   0.889   6.725   0.239 -0.3760 -0.1294 -0.2914
   74MOL   C27038376   0.934   6.675   0.369 -0.5159  0.4096  0.3959
   74MOL   C27138377   1.233   6.888   0.446  0.6011 -0.5114 -0.2013
   74MOL   C27238378   1.210   6.824   0.567 -0.2015  0.7947 -0.5488
   74MOL   C27338379   1.285   6.867   0.676 -0.0860 -0.1479  0.0595
   74MOL   C27438380   1.368   6.980   0.672 -0.4406  0.8652  0.5602
   74MOL   C27538381   1.404   7.035   0.551 -0.4330  0.6447 -0.0034
   74MOL   C27638382   1.330   6.992   0.440 -0.5040  0.2256  1.5442
   74MOL   H27738383   0.931   6.783   0.689 -1.5293 -1.0454  1.4620
   74MOL   H27838384   1.045   6.783   0.811  1.9941 -0.5159 -1.0935
   74MOL   H27938385   1.016   6.559   0.606  0.2148 -1.4309  1.8437
   74MOL   H28038386   1.139   6.955   0.169  1.0330 -2.2609 -4.3148
   74MOL   H28138387   0.939   6.882   0.086 -2.6916 -0.1382  0.6534
   74MOL   H28238388   0.791   6.699   0.203  0.1554 -0.6694 -1.3915
   74MOL   H28338389   0.875   6.604   0.425 -0.2462  1.3798  1.9465
   74MOL   H28438390   1.261   6.827   0.774  0.1375  1.0759  0.6212
   74MOL   H28538391   1.422   7.019   0.757  1.5600  1.2421 -0.8680
   74MOL   H28638392   1.464   7.125   0.555 -0.1939  0.4649  0.5908
   74MOL   H28738393   1.337   7.036   0.341 -1.8621 -1.2572  0.7610
   74MOL   C28838394   1.198   6.546   0.719  0.0827 -0.2243  0.5361
   74MOL   C28938395   1.171   6.388   0.715 -0.5182 -0.5568  0.2857
   74MOL   N29038396   1.206   6.329   0.585  0.4059 -0.0292  0.3809
   74MOL   C29138397   1.123   6.283   0.479 -0.2736 -0.0198 -0.9917
   74MOL   C29238398   1.200   6.207   0.392  0.2544  0.2071 -0.3657
   74MOL   C29338399   1.130   6.125   0.299  0.4754  0.7439 -0.0510
   74MOL   C29438400   0.989   6.122   0.285  0.3851 -0.3088 -0.0276
   74MOL   C29538401   0.915   6.209   0.373 -0.1751 -0.0843  0.0410
   74MOL   C29638402   0.986   6.288   0.470  0.6884 -0.7947 -0.3754
   74MOL   C29738403   1.337   6.241   0.418  0.0643 -0.5629 -0.8091
   74MOL   C29838404   1.338   6.321   0.533  0.6902  0.4890 -0.4666
   74MOL   C29938405   1.462   6.369   0.587 -0.3568 -0.2403 -0.0537
   74MOL   C30038406   1.586   6.337   0.524 -0.1983  0.0360  0.1394
   74MOL   C30138407   1.592   6.248   0.409 -0.0352  0.3134  0.4649
   74MOL   C30238408   1.464   6.196   0.364  0.5333  0.1483 -0.0237
   74MOL   H30338409   1.296   6.566   0.676  0.2270 -1.3180  0.3576
   74MOL   H30438410   1.198   6.567   0.826  2.0205 -1.2857  0.7666
   74MOL   H30538411   1.063   6.378   0.726 -0.2573 -1.0144  2.6945
   74MOL   H30638412   1.186   6.071   0.224 -0.3036  0.0705 -0.1550
   74MOL   H30738413   0.943   6.056   0.214 -1.7493  1.9290 -0.7939
   74MOL   H30838414   0.807   6.207   0.371 -0.1527 -2.4667 -0.1159
   74MOL   H30938415   0.926   6.339   0.545 -0.5376 -1.8155 -0.6411
   74MOL   H31038416   1.467   6.430   0.676  0.0090 -2.4489  1.4704
   74MOL   H31138417   1.676   6.376   0.569  1.3611  0.2551 -2.9943
   74MOL   H31238418   1.685   6.223   0.360 -1.0649  0.5425 -1.6215
   74MOL   H31338419   1.477   6.126   0.282 -0.7208 -1.7805  1.3690
   74MOL   C31438420   1.234   6.319   0.840 -0.3260  0.6617 -0.2036
   74MOL   C31538421   1.257   6.170   0.837  0.7234  0.2485 -0.2697
   74MOL   N31638422   1.345   6.120   0.943 -0.4699 -0.1314 -0.4288
   74MOL   C31738423   1.476   6.075   0.921  0.9426 -0.3540 -0.4359
   74MOL   C31838424   1.537   6.041   1.040 -0.6479  0.9280 -0.7411
   74MOL   C31938425   1.676   6.001   1.036  0.1951 -0.5009  0.0268
   74MOL   C32038426   1.755   6.025   0.919 -0.9581  0.0668 -0.3106
   74MOL   C32138427   1.689   6.051   0.796 -0.1669 -0.7413  0.1775
   74MOL   C32238428   1.548   6.072   0.798 -0.0820 -0.4230  0.3856
   74MOL   C32338429   1.439   6.048   1.145 -0.4025  0.6037 -0.1679
   74MOL   C32438430   1.321   6.108   1.080 -0.3007 -0.3131 -0.1205
   74MOL   C32538431   1.215   6.167   1.158 -0.1185  0.1968  0.4868
   74MOL   C32638432   1.218   6.150   1.298 -0.3091 -0.4512 -0.2768
   74MOL   C32738433   1.323   6.086   1.359  0.0100  0.2568  0.6668
   74MOL   C32838434   1.431   6.035   1.282  0.5300  0.3092 -0.7287
   74MOL   H32938435   1.324   6.375   0.865 -1.1402  2.5163 -1.2424
   74MOL   H33038436   1.168   6.344   0.923 -2.4850  2.7471 -2.4666
   74MOL   H33138437   1.319   6.170   0.747  1.9430  1.3721  0.5517
   74MOL   H33238438   1.719   5.974   1.131  1.7204 -0.2259 -0.5655
   74MOL   H33338439   1.860   6.000   0.925 -1.0272 -1.0091 -2.8570
   74MOL   H33438440   1.746   6.041   0.705 -0.0887 -0.1201  0.1542
   74MOL   H33538441   1.515   6.111   0.703 -0.8057  0.9923  1.2021
   74MOL   H33638442   1.144   6.237   1.116 -1.8812 -1.2494  1.0106
   74MOL   H33738443   1.135   6.178   1.361  0.3588 -0.1934  0.4935
   74MOL   H33838444   1.330   6.085   1.467  0.2171 -1.0898  0.6473
   74MOL   H33938445   1.509   5.997   1.347 -1.0869 -4.0382 -1.1549
   74MOL   C34038446   1.134   6.082   0.804 -0.0513  1.0529  0.3418
   74MOL   C34138447   1.167   5.937   0.752  0.0142  1.0974  0.8394
   74MOL   N34238448   1.050   5.846   0.782  0.2022 -0.1953  0.6743
   74MOL   C34338449   1.051   5.737   0.869 -0.0240 -0.0183  0.3987
   74MOL   C34438450   0.924   5.674   0.865 -0.3846 -0.6113 -0.3754
   74MOL   C34538451   0.912   5.551   0.938 -0.3772 -0.2561 -1.2505
   74MOL   C34638452   1.022   5.499   1.010 -1.2295 -0.5237  0.6329
   74MOL   C34738453   1.139   5.572   1.013  0.3003  0.0583  1.2424
   74MOL   C34838454   1.153   5.697   0.956 -0.5126 -0.9680  0.3905
   74MOL   C34938455   0.844   5.739   0.763  0.0175 -0.5725  0.3877
   74MOL   C35038456   0.923   5.848   0.721 -0.2082 -0.3192 -0.4363
   74MOL   C35138457   0.876   5.934   0.616  0.2830  0.5239  0.1698
   74MOL   C35238458   0.751   5.910   0.550  0.4887  0.4745 -0.4942
   74MOL   C35338459   0.673   5.800   0.597 -0.5613 -0.1071 -0.3015
   74MOL   C35438460   0.727   5.710   0.696 -0.5006 -0.6605  0.3006
   74MOL   H35538461   1.072   6.066   0.891 -0.9160 -3.4638 -0.9874
   74MOL   H35638462   1.079   6.141   0.731 -0.0259  0.0674 -0.4890
   74MOL   H35738463   1.253   5.899   0.806  0.3924 -1.1934 -1.2891
   74MOL   H35838464   0.826   5.487   0.925 -0.5162 -0.2764 -0.2286
   74MOL   H35938465   1.016   5.407   1.067 -1.4657 -0.8200  0.1299
   74MOL   H36038466   1.222   5.537   1.073  1.6424  1.2014  0.1116
   74MOL   H36138467   1.245   5.754   0.964 -1.0560 -0.1125  0.6146
   74MOL   H36238468   0.928   6.026   0.596 -0.3671  1.3379  2.0955
   74MOL   H36338469   0.722   5.969   0.465  1.8003  0.5348 -0.9122
   74MOL   H36438470   0.576   5.782   0.554 -1.0338  0.2574  0.6110
   74MOL   H36538471   0.672   5.626   0.735 -1.5868 -0.3188 -0.4551
   74MOL   C36638472   1.208   5.932   0.604 -0.1390  0.3736  0.0137
   74MOL   C36738473   1.221   5.780   0.563  0.1727  0.5430 -0.1272
   74MOL   N36838474   1.222   5.767   0.418 -0.3619 -0.4225 -0.3844
   74MOL   C36938475   1.107   5.729   0.345 -0.0991 -0.1728 -0.8760
   74MOL   C37038476   1.145   5.701   0.211 -0.2919  0.2670  0.3614
   74MOL   C37138477   1.045   5.638   0.125 -0.1372  0.3488  0.0146
   74MOL   C37238478   0.913   5.623   0.173 -0.1914 -0.1642  0.3100
   74MOL   C37338479   0.880   5.646   0.305 -0.1036  0.0866 -0.8376
   74MOL   C37438480   0.972   5.705   0.389 -0.1513  0.2632 -0.0519
   74MOL   C37538481   1.282   5.742   0.195 -0.2410 -0.5147 -0.0817
   74MOL   C37638482   1.322   5.790   0.325 -0.8926  0.2701 -0.7397
   74MOL   C37738483   1.451   5.847   0.338  0.5098  0.7186 -0.3620
   74MOL   C37838484   1.544   5.836   0.238  0.0464 -0.3445  0.0216
   74MOL   C37938485   1.509   5.772   0.120 -0.1860 -0.7449  0.1317
   74MOL   C38038486   1.382   5.724   0.095 -0.8955 -0.3020 -0.0832
   74MOL   H38138487   1.137   5.987   0.542 -0.6000 -2.6678 -2.2838
   74MOL   H38238488   1.302   5.987   0.600 -0.0247  0.2351  0.7681
   74MOL   H38338489   1.131   5.730   0.599  0.9167 -1.4995 -0.9747
   74MOL   H38438490   1.079   5.599   0.030 -0.3158  0.3423 -0.0468
   74MOL   H38538491   0.852   5.588   0.091 -1.3129 -2.1745  1.9436
   74MOL   H38638492   0.781   5.629   0.345  0.3468  1.1467  0.7397
   74MOL   H38738493   0.951   5.717   0.494  1.8746 -0.7030  0.4965
   74MOL   H38838494   1.468   5.883   0.439 -2.2532 -1.3169  0.9129
   74MOL   H38938495   1.640   5.878   0.259 -0.6374  2.0872 -1.5090
   74MOL   H39038496   1.584   5.764   0.043  0.3018  0.6264  0.4472
   74MOL   H39138497   1.355   5.682   8.226  0.8603  0.3699 -0.8983
   74MOL   C39238498   1.340   5.701   0.636  0.1693 -0.0445  0.0033
   74MOL   C39338499   1.358   5.557   0.579 -0.0122  0.3577 -0.7425
   74MOL   N39438500   1.494   5.493   0.598 -0.0500 -0.0834  0.2544
   74MOL   C39538501   1.588   5.473   0.497  0.1657 -0.3001  0.5272
   74MOL   C39638502   1.707   5.394   0.544 -0.3393 -0.6315  0.8233
   74MOL   C39738503   1.807   5.356   0.454 -0.5613  0.0308 -0.7115
   74MOL   C39838504   1.800   5.397   0.324 -0.1750  0.5983 -0.2991
   74MOL   C39938505   1.686   5.473   0.274  0.2004  0.8422 -0.1696
   74MOL   C40038506   1.580   5.504   0.361 -0.1142  0.0634 -0.2666
   74MOL   C40138507   1.679   5.382   0.688  0.2093  0.0695  0.4858
   74MOL   C40238508   1.550   5.442   0.714 -0.7142 -1.1712 -0.1138
   74MOL   C40338509   1.499   5.439   0.847  0.4403  0.2479  0.0904
   74MOL   C40438510   1.573   5.380   0.948 -0.3768 -0.0313 -0.2423
   74MOL   C40538511   1.696   5.321   0.925  0.8749  0.1295  0.7182
   74MOL   C40638512   1.752   5.330   0.796 -0.2115  0.3300 -0.6022
   74MOL   H40738513   1.437   5.748   0.620 -0.0531 -0.2576 -2.2645
   74MOL   H40838514   1.320   5.701   0.743 -0.2979 -1.3038 -0.0746
   74MOL   H40938515   1.353   5.565   0.471  0.7603 -1.0269 -0.8915
   74MOL   H41038516   1.896   5.311   0.497 -1.0932  1.5021  2.0370
   74MOL   H41138517   1.874   5.373   0.250 -0.0327  4.2438 -1.4283
   74MOL   H41238518   1.684   5.489   0.167 -2.0015 -0.3681 -0.3460
   74MOL   H41338519   1.493   5.562   0.334  0.4615  2.2029  2.2519
   74MOL   H41438520   1.402   5.476   0.876 -0.4993 -2.0048 -0.1203
   74MOL   H41538521   1.524   5.379   1.044  0.6992  0.0780  0.3207
   74MOL   H41638522   1.749   5.261   0.998 -1.2810 -2.9256 -0.1396
   74MOL   H41738523   1.852   5.291   0.786 -0.5057 -0.3100 -1.1112
   74MOL   C41838524   1.247   5.472   0.630  0.2051  1.4369  0.5211
   74MOL   C41938525   1.242   5.327   0.561 -0.0359 -1.4082  0.9030
   74MOL   N42038526   1.152   5.244   0.630  0.1893 -0.1353  0.0708
   74MOL   C42138527   1.191   5.128   0.699  0.2128  0.1078 -0.2064
   74MOL   C42238528   1.078   5.067   0.764 -0.0258  0.0651 -0.5263
   74MOL   C42338529   1.097   4.938   0.823 -0.9050 -0.0916 -0.2856
   74MOL   C42438530   1.222   4.880   0.822 -0.7969  0.2928 -0.1105
   74MOL   C42538531   1.331   4.942   0.765 -0.4579  0.3391  0.1187
   74MOL   C42638532   1.320   5.070   0.702 -0.2734 -0.5709  0.3234
   74MOL   C42738533   0.969   5.159   0.743  0.5543  0.5133 -0.1852
   74MOL   C42838534   1.015   5.264   0.655  0.3469 -0.0851  0.2380
   74MOL   C42938535   0.920   5.364   0.610  0.4624  0.0402  0.4381
   74MOL   C43038536   0.783   5.350   0.664  0.2551  0.2312  0.0764
   74MOL   C43138537   0.739   5.240   0.744 -0.6603  0.0985 -0.6036
   74MOL   C43238538   0.834   5.142   0.783  0.0888 -0.3849 -0.3501
   74MOL   H43338539   1.248   5.464   0.739 -0.6136 -1.2789  0.3630
   74MOL   H43438540   1.149   5.511   0.606  0.2475  1.7260  0.8175
   74MOL   H43538541   1.341   5.285   0.549 -0.7639 -2.3960 -2.0403
   74MOL   H43638542   1.008   4.896   0.867 -1.1085 -0.3450 -0.9354
   74MOL   H43738543   1.247   4.782   0.862 -0.7807  0.4906  0.3688
   74MOL   H43838544   1.426   4.891   0.756 -0.1892  0.8776 -0.1835
   74MOL   H43938545   1.400   5.120   0.650  0.2637 -1.1521  0.5930
   74MOL   H44038546   0.944   5.443   0.540  0.6081  0.2030  0.6710
   74MOL   H44138547   0.713   5.423   0.625  0.2608 -0.4554 -1.2632
   74MOL   H44238548   0.643   5.233   0.792  0.3138  0.1100  1.3911
   74MOL   H44338549   0.805   5.061   0.848  3.1655 -0.0148  1.5923
   74MOL   C44438550   1.198   5.357   0.405  0.5062  0.3124 -0.3276
   74MOL   C44538551   1.144   5.239   0.321 -0.1380  0.4117  0.0749
   74MOL   N44638552   1.142   5.272   0.181 -0.1685 -0.5541  0.3561
   74MOL   C44738553   1.027   5.299   0.110  0.9659  0.0888  0.8252
   74MOL   C44838554   1.059   5.323   8.207  0.3569 -0.3825  0.1417
   74MOL   C44938555   0.957   5.335   8.113  0.4827  0.2422 -0.7531
   74MOL   C45038556   0.821   5.336   8.147  0.1749 -0.2259 -0.0392
   74MOL   C45138557   0.786   5.317   0.055 -0.4140  0.4631  0.4195
   74MOL   C45238558   0.896   5.297   0.154  0.1188  0.3250  1.2334
   74MOL   C45338559   1.201   5.326   8.200 -0.4055 -0.2839  0.3524
   74MOL   C45438560   1.254   5.295   0.100 -0.0513  0.1257 -0.5640
   74MOL   C45538561   1.394   5.291   0.120 -0.2812  0.4825 -0.1924
   74MOL   C45638562   1.486   5.315   0.015 -0.3300  0.1892  0.6465
   74MOL   C45738563   1.431   5.349   8.108  0.5406 -0.0078  0.7607
   74MOL   C45838564   1.291   5.352   8.094  0.4052 -0.1947  0.3103
   74MOL   H45938565   1.113   5.424   0.394 -0.3470 -0.1685  2.8587
   74MOL   H46038566   1.276   5.404   0.345  0.8490 -0.0397 -0.1651
   74MOL   H46138567   1.043   5.212   0.351  0.5500 -0.9501  1.2804
   74MOL   H46238568   0.984   5.371   8.015  2.4446 -0.8607 -0.6287
   74MOL   H46338569   0.751   5.362   8.069 -0.6780  0.8870  1.0864
   74MOL   H46438570   0.682   5.314   0.083 -0.7464  0.8287 -0.7277
   74MOL   H46538571   0.864   5.278   0.255 -0.4842  0.9202  1.1552
   74MOL   H46638572   1.433   5.268   0.219 -1.2686 -0.1851  0.0476
   74MOL   H46738573   1.592   5.299   0.026 -0.6222 -1.9158  0.6805
   74MOL   H46838574   1.498   5.363   8.025 -0.0456  1.7141  0.5626
   74MOL   H46938575   1.242   5.361   7.998  1.8172  1.4665 -0.2848
   74MOL   C47038576   1.213   5.096   0.339 -0.9779  0.2633 -0.1589
   74MOL   C47138577   1.126   4.973   0.372 -0.0966 -0.7686  0.1630
   74MOL   N47238578   1.011   4.959   0.282  0.4093  0.0242 -0.3775
   74MOL   C47338579   0.878   4.988   0.327 -0.0899  0.3138  0.4494
   74MOL   C47438580   0.795   4.989   0.210  0.6959 -0.4322  0.2755
   74MOL   C47538581   0.662   5.032   0.221  0.5698  0.2512  0.3313
   74MOL   C47638582   0.612   5.068   0.347 -0.1256 -0.2568  0.0124
   74MOL   C47738583   0.682   5.045   0.463  0.5150 -0.2626 -0.0032
   74MOL   C47838584   0.819   5.016   0.452  0.7141 -1.0158  0.4329
   74MOL   C47938585   0.880   4.955   0.098 -0.1076 -0.6876  0.6162
   74MOL   C48038586   1.014   4.938   0.144 -0.0158 -0.0612 -0.7547
   74MOL   C48138587   1.117   4.911   0.056  0.2858 -0.7067 -0.4600
   74MOL   C48238588   1.084   4.900   8.145 -0.7409  0.3902  0.3800
   74MOL   C48338589   0.958   4.922   8.091 -0.2711  0.2818 -0.4581
   74MOL   C48438590   0.858   4.945   8.184 -0.7308 -0.5640  0.1920
   74MOL   H48538591   1.255   5.075   0.241 -1.7809 -1.3913 -0.1487
   74MOL   H48638592   1.310   5.102   0.390 -0.6021  0.8306 -0.9228
   74MOL   H48738593   1.081   4.977   0.472  0.3765 -0.4537  0.3641
   74MOL   H48838594   0.604   5.052   0.132  0.4765 -0.4539  0.2268
   74MOL   H48938595   0.515   5.115   0.352 -0.3965 -0.5174 -2.2486
   74MOL   H49038596   0.628   5.062   0.554 -3.6221 -1.2555 -2.1647
   74MOL   H49138597   0.877   4.991   0.540  0.2904 -1.4351  0.5947
   74MOL   H49238598   1.218   4.899   0.091  0.6004  1.5338 -0.5580
   74MOL   H49338599   1.160   4.886   8.070 -2.5269  1.5558 -1.6816
   74MOL   H49438600   0.944   4.914   7.984  2.4943 -0.1634 -0.8325
   74MOL   H49538601   0.754   4.953   8.155 -1.0013 -0.9697  1.0247
   74MOL   C49638602   1.198   4.839   0.376 -0.6795 -0.6509 -0.6640
   74MOL   C49738603   1.117   4.710   0.408  0.4294 -0.4181  0.1124
   74MOL   N49838604   1.206   4.604   0.430 -0.1921 -0.1113 -0.0715
   74MOL   C49938605   1.236   4.542   0.555  0.3051 -0.7374  0.3866
   74MOL   C50038606   1.330   4.436   0.530  0.1679 -0.0719  0.1344
   74MOL   C50138607   1.378   4.366   0.640  0.5264  0.2869  0.4877
   74MOL   C50238608   1.350   4.398   0.770 -0.3535 -0.2056 -0.0509
   74MOL   C50338609   1.263   4.501   0.791  0.2079  0.2007  0.2150
   74MOL   C50438610   1.196   4.572   0.687 -0.3547 -1.1436 -0.6754
   74MOL   C50538611   1.347   4.431   0.389  0.1212  0.4877 -0.1261
   74MOL   C50638612   1.266   4.530   0.330 -0.3472  0.0935 -0.0727
   74MOL   C50738613   1.257   4.539   0.188  0.1251  0.1477 -0.8253
   74MOL   C50838614   1.339   4.457   0.107  0.0707  0.2428 -0.2020
   74MOL   C50938615   1.427   4.365   0.164  0.3048 -0.1664 -0.1008
   74MOL   C51038616   1.424   4.345   0.303  0.2756 -0.3557 -0.5259
   74MOL   H51138617   1.264   4.823   0.291 -1.6495  2.2983 -2.0596
   74MOL   H51238618   1.263   4.854   0.462  0.1357 -0.2550 -1.3502
   74MOL   H51338619   1.072   4.691   0.310  2.4649  1.5830 -1.2951
   74MOL   H51438620   1.437   4.278   0.618  0.3124  0.0442  0.8766
   74MOL   H51538621   1.395   4.362   0.862 -1.5836 -0.6168  0.3965
   74MOL   H51638622   1.241   4.538   0.890 -0.3910  0.5831 -0.0613
   74MOL   H51738623   1.130   4.655   0.707  1.0214 -0.0100 -0.7782
   74MOL   H51838624   1.212   4.629   0.148 -1.5682  0.6502  2.0782
   74MOL   H51938625   1.332   4.455   8.226 -0.1011  0.3807 -0.1955
   74MOL   H52038626   1.480   4.296   0.101  0.5378  1.5395 -1.8524
   74MOL   H52138627   1.478   4.264   0.349  1.1980  0.0458 -0.8889
   74MOL   H52238628   1.040   4.726   0.483  0.5571  1.7421 -0.1739
   75MOL     C138629   6.139   0.370   3.968  0.4071  0.5899 -0.0740
   75MOL     C238630   6.209   0.255   4.040  0.4956  0.6051 -0.3796
   75MOL     N338631   6.164   0.249   4.176 -0.2205 -0.0213 -0.8666
   75MOL     C438632   6.227   0.311   4.280  0.3102 -0.5442  0.4703
   75MOL     C538633   6.153   0.292   4.403 -0.5851  0.2108 -0.1222
   75MOL     C638634   6.204   0.340   4.525  0.3379 -0.6666  0.1392
   75MOL     C738635   6.325   0.412   4.532  0.0879  0.5017  0.2172
   75MOL     C838636   6.395   0.435   4.411 -0.1566 -0.6208 -0.4170
   75MOL     C938637   6.349   0.390   4.289  0.1082  0.0041  0.4663
   75MOL    C1038638   6.030   0.223   4.365 -0.3826 -0.5901  0.2670
   75MOL    C1138639   6.042   0.195   4.222  0.7313 -0.3217  0.7828
   75MOL    C1238640   5.926   0.128   4.160 -0.0734 -0.2193  0.3436
   75MOL    C1338641   5.815   0.084   4.231 -0.3537 -0.0402 -0.0934
   75MOL    C1438642   5.807   0.117   4.366 -0.4129  0.2522  0.9087
   75MOL    C1538643   5.912   0.186   4.433 -0.5503 -0.5772 -0.2038
   75MOL    H1638644   6.140   0.467   4.018  2.6298  1.2784 -1.4015
   75MOL    H1738645   6.034   0.345   3.956  0.7867 -1.2283  0.2789
   75MOL    H1838646   6.314   0.286   4.040  1.4469 -2.4268 -0.3671
   75MOL    H1938647   6.140   0.322   4.610 -0.5481 -0.9036 -0.5713
   75MOL    H2038648   6.364   0.441   4.628  0.5041 -1.2538  0.5904
   75MOL    H2138649   6.487   0.491   4.410 -1.9682  2.4873 -2.3402
   75MOL    H2238650   6.388   0.422   4.194 -4.2883  0.1238 -1.3649
   75MOL    H2338651   5.920   0.110   4.054  0.5386  2.1600 -0.1218
   75MOL    H2438652   5.739   0.026   4.182  0.3263  0.6478 -2.0466
   75MOL    H2538653   5.721   0.085   4.423 -1.0188 -2.0228 -1.2124
   75MOL    H2638654   5.909   0.206   4.539  3.6747 -1.9741  0.2837
   75MOL    H2738655   6.186   0.396   3.873 -0.5251  1.1559 -0.3795
   75MOL    C2838656   6.209   0.124   3.961  0.0136 -0.5070 -0.2016
   75MOL    C2938657   6.285   0.006   4.033 -0.5363  0.4706 -0.6248
   75MOL    N3038658   6.208   8.107   4.025  0.1309  0.2076  0.4273
   75MOL    C3138659   6.202   8.010   4.126  0.2011 -0.6739 -0.1643
   75MOL    C3238660   6.132   7.891   4.076  0.5345 -0.1170 -0.0215
   75MOL    C3338661   6.119   7.784   4.168 -0.3393 -1.0197  0.7497
   75MOL    C3438662   6.156   7.788   4.299 -0.3581  0.3118  0.0080
   75MOL    C3538663   6.241   7.897   4.335 -0.5962 -0.0845  0.4203
   75MOL    C3638664   6.258   8.007   4.253 -0.9352  0.3916 -0.0179
   75MOL    C3738665   6.091   7.918   3.936 -0.7511 -0.7903 -0.5811
   75MOL    C3838666   6.143   8.050   3.916 -0.5794 -0.6276 -0.9406
   75MOL    C3938667   6.122   8.104   3.789  0.5056  0.4106 -0.9359
   75MOL    C4038668   6.035   8.039   3.699  0.3381 -0.7432  0.2742
   75MOL    C4138669   5.983   7.921   3.724  0.4187  0.1846  0.0924
   75MOL    C4238670   6.019   7.845   3.837 -0.0832 -0.7910 -0.8324
   75MOL    H4338671   6.102   0.104   3.956 -0.2325  0.8433 -0.4785
   75MOL    H4438672   6.243   0.139   3.859 -1.4711 -0.2462 -0.6677
   75MOL    H4538673   6.297   0.024   4.139 -0.8713  3.4766 -1.0514
   75MOL    H4638674   6.071   7.689   4.147 -0.6950 -0.8227  0.6781
   75MOL    H4738675   6.142   7.702   4.362 -0.8732 -0.1966 -0.7962
   75MOL    H4838676   6.296   7.893   4.428 -1.7541  1.0239  1.1689
   75MOL    H4938677   6.325   8.083   4.290 -1.6059 -0.2026  2.5637
   75MOL    H5038678   6.161   8.200   3.758 -0.7431  1.1653 -0.2192
   75MOL    H5138679   6.011   8.098   3.612  0.4326  0.7876  1.2622
   75MOL    H5238680   5.911   7.883   3.654  1.0198  2.2040 -1.6724
   75MOL    H5338681   5.986   7.743   3.850 -0.1638 -0.8804 -1.6615
   75MOL    C5438682   6.433   8.217   3.980 -0.3437  0.3773  0.3052
   75MOL    C5538683   6.548   0.052   4.068 -0.1060 -0.4475  0.8988
   75MOL    N5638684   6.581   8.187   4.183 -0.2402 -0.2590 -0.2498
   75MOL    C5738685   6.563   8.214   4.317  0.6994 -0.4497 -0.2732
   75MOL    C5838686   6.595   8.098   4.399 -0.1219 -0.2481 -0.0750
   75MOL    C5938687   6.583   8.101   4.538 -0.0300 -0.0110 -0.2212
   75MOL    C6038688   6.549   8.219   4.599  0.1316  0.2922  0.1868
   75MOL    C6138689   6.528   0.108   4.521 -0.3872  0.1064  0.0778
   75MOL    C6238690   6.542   0.111   4.383 -0.2668  0.3988 -0.2505
   75MOL    C6338691   6.634   8.003   4.305  0.3517 -0.0132  0.0935
   75MOL    C6438692   6.625   8.055   4.173 -0.2326 -0.2440 -0.2801
   75MOL    C6538693   6.653   7.974   4.061 -0.1045 -0.1099  1.0282
   75MOL    C6638694   6.701   7.844   4.071 -0.0442  0.2273 -0.0972
   75MOL    C6738695   6.727   7.795   4.199  0.0329  0.4885  0.0748
   75MOL    C6838696   6.692   7.875   4.312  0.1254 -0.2033  0.0337
   75MOL    H6938697   6.438   8.108   3.978  2.1896  0.4690 -0.9393
   75MOL    H7038698   6.438   0.033   3.880 -1.3814  1.5792  0.7543
   75MOL    H7138699   6.511   0.145   4.111 -0.5121 -0.4082  0.4774
   75MOL    H7238700   6.593   8.013   4.599 -0.8401  0.5810  0.7765
   75MOL    H7338701   6.516   8.227   4.702  1.4236 -0.7258  0.6936
   75MOL    H7438702   6.505   0.201   4.572 -3.3044  0.4087 -1.6476
   75MOL    H7538703   6.534   0.203   4.328 -0.0618  0.5133 -0.0887
   75MOL    H7638704   6.643   8.005   3.958 -1.3706  0.6795  1.3691
   75MOL    H7738705   6.717   7.789   3.980  0.1402 -1.9083  1.1798
   75MOL    H7838706   6.760   7.693   4.209 -1.1006  0.1891  0.9144
   75MOL    H7938707   6.706   7.839   4.412  0.8069  0.8423  0.3221
   75MOL    C8038708   6.678   0.095   3.999 -0.0983 -0.1352  0.5370
   75MOL    C8138709   6.690   0.207   3.896 -0.9062  0.3842  0.0786
   75MOL    N8238710   6.606   0.319   3.926  0.5658 -0.5172 -0.4603
   75MOL    C8338711   6.510   0.375   3.839 -0.3813 -0.0389 -0.4514
   75MOL    C8438712   6.474   0.508   3.887  0.3658  0.0999  0.2170
   75MOL    C8538713   6.385   0.587   3.812 -0.0589 -0.0881 -0.6438
   75MOL    C8638714   6.339   0.541   3.689 -0.0289  0.0372  0.2797
   75MOL    C8738715   6.372   0.406   3.649 -0.1014  0.1255  0.5373
   75MOL    C8838716   6.449   0.323   3.726  0.7700  0.6002 -0.2336
   75MOL    C8938717   6.551   0.529   4.005  0.2459  0.0340 -0.1220
   75MOL    C9038718   6.621   0.408   4.034  0.0259 -0.1208 -0.2757
   75MOL    C9138719   6.714   0.403   4.146  0.6079 -0.0267  1.3841
   75MOL    C9238720   6.723   0.507   4.239 -0.3388 -0.0886  0.3164
   75MOL    C9338721   6.647   0.620   4.214 -0.1865 -0.0898 -0.0527
   75MOL    C9438722   6.568   0.634   4.098  0.3886  0.4258 -0.0112
   75MOL    H9538723   6.755   0.115   4.073 -2.7458  1.4342  2.9514
   75MOL    H9638724   6.724   0.013   3.943 -1.1103  1.1909 -2.3315
   75MOL    H9738725   6.650   0.161   3.806  0.7567 -0.8082 -0.0607
   75MOL    H9838726   6.364   0.691   3.833  0.4907  0.3316 -2.0660
   75MOL    H9938727   6.274   0.605   3.630 -1.6578 -2.1075 -0.3604
   75MOL   H10038728   6.332   0.380   3.552 -1.4261 -1.2220  1.4306
   75MOL   H10138729   6.464   0.225   3.683 -3.0639 -0.5080  0.7499
   75MOL   H10238730   6.780   0.320   4.168 -1.7215 -1.8055  1.9022
   75MOL   H10338731   6.792   0.505   4.322 -0.9529 -0.1929  0.8271
   75MOL   H10438732   6.659   0.703   4.282 -3.1896  0.0092  0.4219
   75MOL   H10538733   6.512   0.723   4.073  1.3430  0.8922 -0.5163
   75MOL   C10638734   6.838   0.238   3.868 -0.0141  0.2685 -0.6899
   75MOL   C10738735   6.876   0.374   3.808  0.2869  0.3726  0.0940
   75MOL   N10838736   7.017   0.396   3.819 -0.1129  0.2367  0.1489
   75MOL   C10938737   7.072   0.509   3.883 -0.7436  0.1599 -0.3321
   75MOL   C11038738   7.217   0.514   3.859  0.9437 -0.2436 -0.4525
   75MOL   C11138739   7.293   0.614   3.921 -0.1042  0.1388 -0.8788
   75MOL   C11238740   7.242   0.713   4.006 -0.1112  0.1493  0.6470
   75MOL   C11338741   7.104   0.705   4.024  0.8073  0.0389  0.0921
   75MOL   C11438742   7.020   0.610   3.969 -0.1609  0.4219  0.0710
   75MOL   C11538743   7.246   0.405   3.768 -0.6153  0.1443  0.3151
   75MOL   C11638744   7.120   0.335   3.746  0.0900  0.3124  0.1092
   75MOL   C11738745   7.117   0.222   3.667  0.0707  0.3331 -0.0872
   75MOL   C11838746   7.235   0.162   3.619  0.2869  0.0774 -0.4041
   75MOL   C11938747   7.360   0.224   3.642 -0.0977  0.1055 -0.2052
   75MOL   C12038748   7.365   0.345   3.712 -0.3975  0.0575 -0.2294
   75MOL   H12138749   6.902   0.224   3.955  0.7143  0.6500 -1.1630
   75MOL   H12238750   6.867   0.165   3.793  1.5228 -0.7683  0.8623
   75MOL   H12338751   6.823   0.445   3.871 -1.0304  1.1670 -1.8725
   75MOL   H12438752   7.401   0.619   3.912 -0.0761  2.4570  0.3947
   75MOL   H12538753   7.306   0.792   4.043 -0.1577  0.7254 -0.4639
   75MOL   H12638754   7.052   0.778   4.085  1.0067 -0.2546  0.6077
   75MOL   H12738755   6.917   0.596   4.000 -0.5510  1.5850 -0.6959
   75MOL   H12838756   7.025   0.178   3.632  0.7127 -0.0289 -1.3943
   75MOL   H12938757   7.229   0.066   3.570  0.6967 -0.5697  0.8117
   75MOL   H13038758   7.453   0.182   3.607 -1.0526 -1.9351 -0.3355
   75MOL   H13138759   7.459   0.395   3.732 -2.0065  1.8587  3.2329
   75MOL   C13238760   6.828   0.400   3.667 -0.1305  0.0078  0.2303
   75MOL   C13338761   6.859   0.545   3.614 -0.9051  0.1622 -0.6219
   75MOL   N13438762   6.854   0.563   3.470  0.2832 -0.7983  0.9727
   75MOL   C13538763   6.965   0.575   3.390 -0.4107  0.1865 -0.4877
   75MOL   C13638764   6.926   0.611   3.259  0.3446  0.3997 -0.3175
   75MOL   C13738765   7.027   0.642   3.159 -0.2312 -0.3569 -0.4800
   75MOL   C13838766   7.164   0.639   3.195  0.0757  0.0914  0.3101
   75MOL   C13938767   7.200   0.619   3.327 -0.3971  0.1295 -0.0573
   75MOL   C14038768   7.102   0.582   3.428 -0.2980 -0.0851  0.1493
   75MOL   C14138769   6.786   0.595   3.251  0.3879 -0.1937 -0.1960
   75MOL   C14238770   6.742   0.574   3.385  0.3797 -0.8488  0.8916
   75MOL   C14338771   6.603   0.575   3.413  0.2494 -0.0299  0.2312
   75MOL   C14438772   6.509   0.603   3.314  0.2292 -0.1694  0.4410
   75MOL   C14538773   6.550   0.631   3.179  0.5682  0.2638 -0.1291
   75MOL   C14638774   6.693   0.624   3.149  0.6591  1.0611 -0.2623
   75MOL   H14738775   6.876   0.330   3.598 -1.4034  2.1903 -3.0130
   75MOL   H14838776   6.721   0.382   3.653  0.2253 -0.3373 -2.3144
   75MOL   H14938777   6.963   0.564   3.642  0.4981 -3.1530 -3.1728
   75MOL   H15038778   7.010   0.662   3.054 -2.5264 -0.4027 -0.1411
   75MOL   H15138779   7.245   0.650   3.124  0.6652 -2.3771  0.5581
   75MOL   H15238780   7.304   0.618   3.355 -0.7824 -2.7937  1.5040
   75MOL   H15338781   7.136   0.564   3.530  0.8874 -0.4776 -0.3022
   75MOL   H15438782   6.570   0.556   3.514 -0.0360  0.0802  0.1569
   75MOL   H15538783   6.404   0.598   3.341 -0.1541 -2.1673 -1.3167
   75MOL   H15638784   6.477   0.652   3.102  1.9616 -0.7199 -1.7504
   75MOL   H15738785   6.727   0.640   3.047  0.5130 -1.1859 -0.6882
   75MOL   C15838786   6.767   0.655   3.688  0.5228 -0.2914 -0.1398
   75MOL   C15938787   6.797   0.803   3.651 -0.1820  0.0815 -0.0754
   75MOL   N16038788   6.699   0.897   3.713 -0.3104 -0.1776 -0.2629
   75MOL   C16138789   6.584   0.942   3.647 -0.1530 -0.5834 -1.0931
   75MOL   C16238790   6.515   1.025   3.747  0.2543  1.3342 -0.7602
   75MOL   C16338791   6.392   1.077   3.706  0.9065 -0.2595  0.3280
   75MOL   C16438792   6.323   1.038   3.586 -0.0449  0.4243  0.0532
   75MOL   C16538793   6.399   0.964   3.488 -0.0314 -0.2577  0.2155
   75MOL   C16638794   6.529   0.913   3.523 -0.2613 -0.7065 -0.2177
   75MOL   C16738795   6.589   1.029   3.870 -0.0812 -0.8404 -0.0530
   75MOL   C16838796   6.703   0.943   3.847  0.0938  0.2256 -0.0464
   75MOL   C16938797   6.796   0.922   3.947  0.0860  0.3053 -0.1847
   75MOL   C17038798   6.782   0.986   4.071 -0.0445 -1.1730 -0.0107
   75MOL   C17138799   6.668   1.069   4.092 -0.5367  1.0707 -0.1377
   75MOL   C17238800   6.570   1.085   3.996  0.5144  0.5591  0.4363
   75MOL   H17338801   6.663   0.627   3.670 -0.2592  1.8602  0.9634
   75MOL   H17438802   6.779   0.639   3.795 -0.0669 -0.3046 -0.0729
   75MOL   H17538803   6.779   0.802   3.544 -2.7209  1.2188  0.2810
   75MOL   H17638804   6.346   1.141   3.780 -0.3319  0.3260 -0.9113
   75MOL   H17738805   6.222   1.071   3.568  0.6588  2.9522  0.5022
   75MOL   H17838806   6.358   0.940   3.391  0.1725  0.4239 -0.0439
   75MOL   H17938807   6.588   0.845   3.463  1.5965 -0.5889  1.3886
   75MOL   H18038808   6.883   0.859   3.944  0.3978  0.7721 -1.0065
   75MOL   H18138809   6.856   0.983   4.150 -0.0216 -0.3382 -0.0024
   75MOL   H18238810   6.657   1.123   4.185  0.7521  0.0066  0.6488
   75MOL   H18338811   6.473   1.126   4.018 -0.3297 -0.7106 -0.8148
   75MOL   C18438812   6.942   0.850   3.671 -0.7256 -0.1003  0.0682
   75MOL   C18538813   6.970   1.001   3.656  0.2257  0.3399  0.3002
   75MOL   N18638814   7.110   1.027   3.654 -0.1448  0.1445 -0.3551
   75MOL   C18738815   7.180   1.082   3.761 -0.1395  0.2331  0.4105
   75MOL   C18838816   7.312   1.116   3.724  0.0099 -0.7195 -0.2611
   75MOL   C18938817   7.399   1.185   3.817  0.4344 -0.0045 -1.0255
   75MOL   C19038818   7.352   1.217   3.945 -0.1479 -0.0483 -0.0329
   75MOL   C19138819   7.220   1.186   3.982 -0.0655 -0.2516 -0.4371
   75MOL   C19238820   7.134   1.114   3.892 -0.9730  0.1795  0.8098
   75MOL   C19338821   7.327   1.061   3.589 -0.0425  0.6865 -0.3069
   75MOL   C19438822   7.201   1.004   3.551  0.3570 -0.1671 -0.2483
   75MOL   C19538823   7.185   0.956   3.424  0.4681  0.6672  0.0191
   75MOL   C19638824   7.288   0.958   3.327  0.3668 -0.1461 -0.2000
   75MOL   C19738825   7.417   1.003   3.373 -0.0825 -0.5989 -0.6358
   75MOL   C19838826   7.436   1.048   3.503 -0.0961  0.1376 -0.1243
   75MOL   H19938827   6.986   0.819   3.765 -1.3154  0.6642  0.5949
   75MOL   H20038828   7.006   0.800   3.597  0.5373  0.3761  0.8127
   75MOL   H20138829   6.924   1.042   3.746  0.6823 -0.4162  0.8881
   75MOL   H20238830   7.502   1.209   3.794  0.0909  0.7343 -1.7979
   75MOL   H20338831   7.427   1.250   4.016  1.2160 -1.4693 -0.7791
   75MOL   H20438832   7.176   1.202   4.079  0.9911 -0.0727  0.0248
   75MOL   H20538833   7.036   1.089   3.928 -1.2290  0.0096  0.0145
   75MOL   H20638834   7.092   0.909   3.395 -0.2411  2.0871 -0.0546
   75MOL   H20738835   7.267   0.903   3.237  0.1124  0.6859 -0.6497
   75MOL   H20838836   7.508   0.992   3.316 -0.5195  0.9844 -1.6746
   75MOL   H20938837   7.536   1.079   3.532 -0.0188  0.2343 -0.4973
   75MOL   C21038838   6.900   1.077   3.539  0.1778  0.2674  0.2247
   75MOL   C21138839   6.937   1.231   3.528  0.9506  0.3860  0.2290
   75MOL   N21238840   6.906   1.275   3.391  0.2075 -0.0733  0.7651
   75MOL   C21338841   6.998   1.306   3.289  0.5102  0.4791 -0.1565
   75MOL   C21438842   6.927   1.333   3.170  0.0750  0.1494 -0.3314
   75MOL   C21538843   7.005   1.359   3.057 -0.3163  0.0568  0.1345
   75MOL   C21638844   7.142   1.355   3.054 -0.0281  0.1104  0.2578
   75MOL   C21738845   7.212   1.305   3.167  0.4322 -0.4063 -0.2414
   75MOL   C21838846   7.143   1.296   3.289 -0.4675 -0.1135  0.4559
   75MOL   C21938847   6.787   1.322   3.195  0.4899 -0.3732  0.0398
   75MOL   C22038848   6.778   1.276   3.333 -0.1910  0.3669 -0.0020
   75MOL   C22138849   6.651   1.251   3.389  0.1632 -0.3342  0.1389
   75MOL   C22238850   6.535   1.254   3.308 -0.1881  0.7727  0.2938
   75MOL   C22338851   6.539   1.299   3.172  0.6308 -0.1910  0.1340
   75MOL   C22438852   6.664   1.345   3.125  0.0998 -0.1968  0.4154
   75MOL   H22538853   6.910   1.020   3.447 -1.9192  0.0953  0.0735
   75MOL   H22638854   6.792   1.060   3.548  0.2313 -1.8847 -2.4835
   75MOL   H22738855   7.046   1.239   3.535  0.8238  1.5799  0.9166
   75MOL   H22838856   6.952   1.383   2.966  1.0240  2.2466 -0.1145
   75MOL   H22938857   7.193   1.362   2.960  0.8048  2.9575  0.8918
   75MOL   H23038858   7.318   1.283   3.163  0.8253  1.2689  0.3682
   75MOL   H23138859   7.192   1.257   3.377  2.2170  0.4551 -0.7396
   75MOL   H23238860   6.642   1.222   3.493 -2.9885  1.7588  0.5094
   75MOL   H23338861   6.445   1.225   3.359  2.0703 -0.2350  3.8519
   75MOL   H23438862   6.446   1.316   3.120  0.6208  0.3122  0.3153
   75MOL   H23538863   6.668   1.391   3.028 -2.7463 -0.6893  0.0401
   75MOL   C23638864   6.891   1.309   3.646  0.2088 -0.1480 -0.3081
   75MOL   C23738865   6.949   1.454   3.652 -0.1436  0.8206  0.4405
   75MOL   N23838866   6.881   1.534   3.762  0.8165  0.2257 -0.2261
   75MOL   C23938867   6.800   1.648   3.743  0.0878 -0.3911 -0.4239
   75MOL   C24038868   6.762   1.706   3.867 -0.1600  0.2095 -0.4452
   75MOL   C24138869   6.682   1.817   3.865  0.1644 -0.3181  0.3492
   75MOL   C24238870   6.635   1.870   3.748 -0.3992  0.6634 -1.2669
   75MOL   C24338871   6.672   1.823   3.624 -0.0517 -0.0653 -0.1834
   75MOL   C24438872   6.754   1.711   3.623  0.1220  1.1633  0.0861
   75MOL   C24538873   6.824   1.627   3.965 -0.0748  0.0816  0.9090
   75MOL   C24638874   6.901   1.528   3.900  0.3149 -0.2530 -0.0531
   75MOL   C24738875   6.972   1.434   3.975  0.5328  1.4443 -0.2362
   75MOL   C24838876   6.971   1.434   4.113 -0.1801 -0.3547  0.1473
   75MOL   C24938877   6.896   1.533   4.176  0.7320 -0.5073  0.1066
   75MOL   C25038878   6.818   1.626   4.104 -0.1575  0.7217 -0.0877
   75MOL   H25138879   6.782   1.317   3.640  0.1408 -0.0679  0.9844
   75MOL   H25238880   6.903   1.254   3.739 -1.2067  2.1319  1.2674
   75MOL   H25338881   6.922   1.498   3.556 -1.0327 -0.7955 -0.0598
   75MOL   H25438882   6.655   1.855   3.962 -0.3581 -1.7314  0.7658
   75MOL   H25538883   6.564   1.951   3.750  2.1674  2.9962 -0.4018
   75MOL   H25638884   6.629   1.857   3.531 -0.4475  1.2209  0.4473
   75MOL   H25738885   6.785   1.671   3.528 -2.8137  2.3699 -1.4448
   75MOL   H25838886   7.016   1.357   3.915  0.7587  2.1654 -0.9957
   75MOL   H25938887   7.021   1.360   4.173 -1.0434  1.3277  3.0906
   75MOL   H26038888   6.900   1.545   4.283 -2.2325 -0.8889  0.3229
   75MOL   H26138889   6.767   1.708   4.153 -1.9241 -1.9571  2.7487
   75MOL   C26238890   7.107   1.453   3.666  0.6541 -0.1632 -0.3096
   75MOL   C26338891   7.181   1.586   3.687 -0.3726  0.0942 -0.2624
   75MOL   N26438892   7.306   1.557   3.749  0.8368  0.3242 -0.4794
   75MOL   C26538893   7.343   1.575   3.881  0.6689  0.0559 -0.2520
   75MOL   C26638894   7.482   1.547   3.901 -0.3560 -0.2871  0.5125
   75MOL   C26738895   7.541   1.574   4.027 -0.2727  0.9857 -0.0802
   75MOL   C26838896   7.461   1.608   4.135 -0.3866  0.5782 -0.1310
   75MOL   C26938897   7.320   1.631   4.113 -0.8094 -0.3704 -0.4511
   75MOL   C27038898   7.263   1.620   3.991 -0.1188 -0.5603 -0.7198
   75MOL   C27138899   7.520   1.490   3.783  0.1018  0.2257 -0.1530
   75MOL   C27238900   7.414   1.485   3.692  0.2764 -0.3055 -0.6293
   75MOL   C27338901   7.429   1.424   3.565  0.3535  0.4988  0.8015
   75MOL   C27438902   7.552   1.375   3.521 -0.3460 -0.2831  0.9697
   75MOL   C27538903   7.659   1.386   3.608 -0.3283  0.1167  0.3540
   75MOL   C27638904   7.643   1.450   3.732  0.2377  0.6086  0.1852
   75MOL   H27738905   7.122   1.389   3.753  1.7145  1.2343  0.5579
   75MOL   H27838906   7.155   1.395   3.588 -0.0116  0.3503 -1.1210
   75MOL   H27938907   7.122   1.630   3.767  1.7370 -0.0448  1.3915
   75MOL   H28038908   7.648   1.563   4.040 -0.5326 -2.8266 -0.7038
   75MOL   H28138909   7.496   1.626   4.235  0.8340  0.2056 -0.4850
   75MOL   H28238910   7.264   1.677   4.193  1.9605  3.2347 -0.4263
   75MOL   H28338911   7.158   1.644   3.989 -0.1344 -0.2986  1.6910
   75MOL   H28438912   7.341   1.423   3.502  1.4865  0.8586 -0.7984
   75MOL   H28538913   7.567   1.334   3.422  2.7083  0.9567  0.8791
   75MOL   H28638914   7.751   1.342   3.573 -0.7549 -0.2293 -0.3546
   75MOL   H28738915   7.730   1.454   3.796 -0.5332 -1.4738  1.4082
   75MOL   C28838916   7.178   1.694   3.579 -0.6672  0.0861  1.1081
   75MOL   C28938917   7.316   1.766   3.549  1.0487 -0.3060 -0.1408
   75MOL   N29038918   7.298   1.842   3.424 -0.5901  0.4101  0.1526
   75MOL   C29138919   7.359   1.810   3.302  0.1374 -0.2424  0.3310
   75MOL   C29238920   7.341   1.917   3.209  0.3562  0.3750 -0.0799
   75MOL   C29338921   7.403   1.909   3.084 -0.6692  0.0844 -0.3959
   75MOL   C29438922   7.472   1.788   3.045 -0.2796 -0.4577 -0.0334
   75MOL   C29538923   7.489   1.682   3.134 -0.0480  0.6422 -0.6575
   75MOL   C29638924   7.434   1.700   3.263  0.3727  0.1679  0.8198
   75MOL   C29738925   7.255   2.012   3.275 -0.1078 -0.4069 -0.3526
   75MOL   C29838926   7.227   1.960   3.405  0.2453  0.0326  0.1879
   75MOL   C29938927   7.148   2.025   3.502  1.2549 -0.6240  0.8151
   75MOL   C30038928   7.085   2.148   3.471  0.4499 -0.2387  0.1936
   75MOL   C30138929   7.114   2.204   3.342  0.0398  0.0284 -0.1392
   75MOL   C30238930   7.197   2.137   3.246  1.1410  0.4480  0.3704
   75MOL   H30338931   7.145   1.650   3.485  0.7155 -0.5048  0.8802
   75MOL   H30438932   7.094   1.763   3.592  0.3470  1.6561 -0.4566
   75MOL   H30538933   7.383   1.683   3.528 -0.9642 -1.5970 -1.6892
   75MOL   H30638934   7.387   1.995   3.020 -0.5421  1.8256  1.8330
   75MOL   H30738935   7.527   1.794   2.952 -0.2313  1.3663  0.0877
   75MOL   H30838936   7.546   1.592   3.114 -1.9264 -0.9143  0.7590
   75MOL   H30938937   7.437   1.614   3.327 -1.3380  1.0280  2.1067
   75MOL   H31038938   7.124   1.978   3.596 -2.3644 -0.0651  0.2543
   75MOL   H31138939   7.023   2.210   3.534 -0.6594 -0.7511 -0.3791
   75MOL   H31238940   7.053   2.288   3.314  2.3793  1.1310 -2.0395
   75MOL   H31338941   7.208   2.170   3.143 -0.7069  2.0160  0.6495
   75MOL   C31438942   7.382   1.856   3.656  0.2088 -0.3901  0.6020
   75MOL   C31538943   7.522   1.897   3.617 -0.0534  0.5142 -0.1503
   75MOL   N31638944   7.561   2.011   3.707  0.1817  0.2945  0.4711
   75MOL   C31738945   7.578   2.146   3.669  0.5991  1.0054  0.6901
   75MOL   C31838946   7.647   2.217   3.771 -0.2322 -0.8011  0.7802
   75MOL   C31938947   7.678   2.352   3.745  0.0424  0.1506 -0.1531
   75MOL   C32038948   7.642   2.416   3.623  0.0616  0.4320 -0.2130
   75MOL   C32138949   7.572   2.346   3.531 -0.6254  0.4994  0.1763
   75MOL   C32238950   7.538   2.209   3.551 -0.1843  0.6458  0.3181
   75MOL   C32338951   7.657   2.130   3.883 -0.2574  0.9934  0.6443
   75MOL   C32438952   7.605   2.002   3.839  0.1142 -0.5993 -0.5626
   75MOL   C32538953   7.618   1.891   3.927 -0.1502  0.3980  0.3119
   75MOL   C32638954   7.685   1.899   4.049  0.2162 -0.4099  0.2495
   75MOL   C32738955   7.729   2.031   4.091  0.5445  0.2739 -0.6248
   75MOL   C32838956   7.701   2.142   4.015 -1.2114 -0.0081  0.7236
   75MOL   H32938957   7.327   1.948   3.678  0.5997 -0.7405  3.2399
   75MOL   H33038958   7.383   1.806   3.753 -0.1945  0.0913  0.8631
   75MOL   H33138959   7.518   1.936   3.515 -1.9524 -0.0153 -0.2872
   75MOL   H33238960   7.732   2.414   3.815  2.2190  0.3773 -1.9849
   75MOL   H33338961   7.651   2.524   3.620 -1.8384  0.5974 -0.5187
   75MOL   H33438962   7.530   2.406   3.452 -1.8907 -1.7932 -0.9592
   75MOL   H33538963   7.477   2.155   3.479 -1.1285 -1.5971  2.6863
   75MOL   H33638964   7.558   1.803   3.908 -0.9256  1.3822 -1.9252
   75MOL   H33738965   7.695   1.814   4.116 -0.4175  0.2269  1.1579
   75MOL   H33838966   7.774   2.025   4.189  1.2604 -1.2974 -1.0244
   75MOL   H33938967   7.718   2.243   4.050  1.0061 -0.3433  0.6852
   75MOL   C34038968   7.621   1.777   3.612  0.2528 -0.1038  0.2797
   75MOL   C34138969   7.765   1.833   3.577 -0.3956  0.0425 -0.4017
   75MOL   N34238970   7.862   1.725   3.592 -0.4276  0.2163 -0.3226
   75MOL   C34338971   7.937   1.705   3.705 -0.4495  0.0477  0.3318
   75MOL   C34438972   8.003   1.579   3.692  0.2934  0.3085  0.7893
   75MOL   C34538973   8.088   1.543   3.800  0.5309 -0.7160  0.3642
   75MOL   C34638974   8.089   1.621   3.921  0.6861 -0.5117 -0.6603
   75MOL   C34738975   8.019   1.744   3.934 -0.3906  0.1820 -0.2966
   75MOL   C34838976   7.950   1.780   3.825 -0.1606  0.1272  0.3213
   75MOL   C34938977   7.972   1.531   3.562 -0.1038  0.0496 -0.3099
   75MOL   C35038978   7.876   1.618   3.507  0.4547  0.7654 -0.3984
   75MOL   C35138979   7.829   1.584   3.383  0.2245 -0.1242 -0.8039
   75MOL   C35238980   7.873   1.465   3.320  0.0315 -0.4530  0.4000
   75MOL   C35338981   7.972   1.382   3.379  0.2345  0.6922 -0.7314
   75MOL   C35438982   8.026   1.419   3.501  0.4898 -0.1931  0.0450
   75MOL   H35538983   7.622   1.727   3.708  0.7634 -0.6543 -0.0117
   75MOL   H35638984   7.592   1.698   3.543  1.6056 -0.4713  0.1251
   75MOL   H35738985   7.797   1.904   3.654  0.3525  0.2811 -0.9237
   75MOL   H35838986   8.130   1.444   3.806 -0.2334 -1.1297 -1.0247
   75MOL   H35938987   8.135   1.583   4.011  2.9706  0.2028 -1.4994
   75MOL   H36038988   8.009   1.792   4.030 -2.8939  0.6948 -0.7651
   75MOL   H36138989   7.900   1.875   3.828 -0.2798  0.0824 -0.1560
   75MOL   H36238990   7.759   1.653   3.338 -0.0802 -0.5197 -0.9324
   75MOL   H36338991   7.847   1.454   3.216 -0.7000  2.0754  0.2767
   75MOL   H36438992   8.010   1.298   3.324 -1.4922 -1.0721  0.6671
   75MOL   H36538993   8.096   1.348   3.542  0.1375  0.8143  2.4838
   75MOL   C36638994   7.774   1.920   3.448  0.5467  0.0357  0.3689
   75MOL   C36738995   7.919   1.943   3.382 -0.5719  0.5834 -0.9217
   75MOL   N36838996   7.911   2.007   3.244  0.7348  0.1793 -0.1557
   75MOL   C36938997   7.929   1.941   3.126 -0.6624  0.1176  0.0656
   75MOL   C37038998   7.922   2.032   3.019 -0.3649 -0.1837  0.9306
   75MOL   C37138999   7.935   1.978   2.888  0.2896  0.0073  0.4128
   75MOL   C37239000   7.978   1.847   2.866  0.5319 -0.3003  0.2432
   75MOL   C37339001   7.991   1.764   2.972 -0.1480 -0.0587 -0.1031
   75MOL   C37439002   7.955   1.808   3.098 -0.6848  0.0592  0.0529
   75MOL   C37539003   7.890   2.158   3.074 -0.1725 -0.0136  0.0284
   75MOL   C37639004   7.875   2.138   3.214  0.8502 -0.0519  0.0393
   75MOL   C37739005   7.832   2.247   3.297 -0.8515 -0.5045  0.5655
   75MOL   C37839006   7.798   2.378   3.244 -0.3152  1.0628 -0.6425
   75MOL   C37939007   7.806   2.391   3.103 -0.2676 -0.5945  0.2746
   75MOL   C38039008   7.858   2.288   3.020 -0.6398 -0.1021 -0.4407
   75MOL   H38139009   7.696   1.896   3.376  1.1144 -1.1085  0.1158
   75MOL   H38239010   7.741   2.017   3.484  0.5645 -0.4356  1.6895
   75MOL   H38339011   7.960   1.843   3.372  1.2653  1.3295 -0.9667
   75MOL   H38439012   7.895   2.040   2.809 -0.2043  0.3639  0.9325
   75MOL   H38539013   7.976   1.812   2.764 -1.6039 -1.3134  0.5976
   75MOL   H38639014   8.022   1.660   2.967  1.6327  0.2945  2.2886
   75MOL   H38739015   7.962   1.737   3.178 -0.4942  1.4457  1.2908
   75MOL   H38839016   7.828   2.232   3.404 -0.3712  2.8665  1.0890
   75MOL   H38939017   7.760   2.459   3.305 -0.7391  1.0191 -0.8444
   75MOL   H39039018   7.780   2.487   3.061  3.2589 -0.5009 -1.8824
   75MOL   H39139019   7.868   2.300   2.913  2.8850  0.2823 -0.1227
   75MOL   C39239020   8.023   2.018   3.478  0.2369  0.1754 -0.3995
   75MOL   C39339021   8.175   1.972   3.449  0.5146 -0.4549 -0.0421
   75MOL   N39439022   0.039   2.081   3.410  0.3945  0.3338 -0.4430
   75MOL   C39539023   0.089   2.095   3.281  0.3029  0.2936  0.4038
   75MOL   C39639024   0.180   2.208   3.280  0.3904 -0.3180 -0.3601
   75MOL   C39739025   0.235   2.246   3.157 -0.3921  0.7255  0.5061
   75MOL   C39839026   0.199   2.182   3.034  0.6065  0.7247  0.2780
   75MOL   C39939027   0.110   2.074   3.034 -0.0109  0.7520 -0.6904
   75MOL   C40039028   0.051   2.035   3.162  0.1072  0.3063  0.7367
   75MOL   C40139029   0.193   2.254   3.419  0.4468 -0.2326 -0.3231
   75MOL   C40239030   0.099   2.176   3.498  0.0414 -0.3800  0.1337
   75MOL   C40339031   0.073   2.205   3.629 -0.2648  0.0233  0.2701
   75MOL   C40439032   0.147   2.304   3.695 -0.3301 -0.1758 -0.0311
   75MOL   C40539033   0.240   2.378   3.626  0.0866 -0.2652  0.1669
   75MOL   C40639034   0.267   2.356   3.489  0.1589 -0.1645  0.4558
   75MOL   H40739035   8.004   2.126   3.484 -1.8585 -0.0072 -2.9182
   75MOL   H40839036   8.009   1.992   3.583  1.1070 -0.0688 -0.3387
   75MOL   H40939037   8.161   1.908   3.362  1.6864 -0.4444 -0.2436
   75MOL   H41039038   0.301   2.330   3.149 -0.2557  0.8005  2.3388
   75MOL   H41139039   0.237   2.223   2.941  2.2303 -0.2715  0.4839
   75MOL   H41239040   0.080   2.035   2.938 -0.6605 -1.0995  0.2377
   75MOL   H41339041   8.199   1.963   3.154  0.8751 -0.3302 -1.9232
   75MOL   H41439042   8.215   2.158   3.677 -0.0251 -1.4367 -0.6893
   75MOL   H41539043   0.124   2.322   3.799  0.6834  0.5118  0.0871
   75MOL   H41639044   0.305   2.444   3.681 -0.7218  0.7770 -0.0996
   75MOL   H41739045   0.350   2.402   3.437 -2.1924  0.4793 -2.8446
   75MOL   C41839046   0.008   1.882   3.555 -0.3452  0.4690  0.2946
   75MOL   C41939047   0.156   1.841   3.550 -0.5479 -0.2674  0.4494
   75MOL   N42039048   0.203   1.762   3.662 -0.3438 -0.6951  0.4194
   75MOL   C42139049   0.271   1.812   3.769  0.1941  0.5669 -0.1946
   75MOL   C42239050   0.299   1.706   3.860  0.3611 -0.8184 -0.1443
   75MOL   C42339051   0.357   1.743   3.987 -0.0286 -0.5454  0.1436
   75MOL   C42439052   0.413   1.869   4.000 -0.7720 -0.4110  0.1439
   75MOL   C42539053   0.381   1.971   3.907 -0.0835  0.1289  0.3324
   75MOL   C42639054   0.303   1.944   3.795 -0.9688  0.1356 -0.2758
   75MOL   C42739055   0.246   1.583   3.800 -0.2131 -0.1427  0.6656
   75MOL   C42839056   0.185   1.623   3.677 -0.3985  0.0333  0.5581
   75MOL   C42939057   0.130   1.519   3.596 -0.3773 -0.0093  0.3960
   75MOL   C43039058   0.128   1.384   3.630  0.2708 -0.3500 -0.2563
   75MOL   C43139059   0.174   1.352   3.757 -1.0374  0.7306  0.4024
   75MOL   C43239060   0.236   1.450   3.836  0.0713 -0.6148  0.0296
   75MOL   H43339061   8.214   1.916   3.656 -3.1661 -2.1522  0.6559
   75MOL   H43439062   8.179   1.789   3.547 -0.4605  0.5282  0.4110
   75MOL   H43539063   0.215   1.932   3.556  1.9011 -1.8746  1.5083
   75MOL   H43639064   0.378   1.669   4.063  0.9262 -3.4814 -2.8807
   75MOL   H43739065   0.468   1.887   4.091 -0.4790  1.8016 -0.4571
   75MOL   H43839066   0.422   2.070   3.922 -0.9457  0.7115 -1.0833
   75MOL   H43939067   0.290   2.019   3.718 -0.6489 -0.1709 -0.6342
   75MOL   H44039068   0.078   1.548   3.505 -1.6149  0.2592  1.1766
   75MOL   H44139069   0.084   1.303   3.575 -1.4153 -0.1862  0.8106
   75MOL   H44239070   0.162   1.250   3.793  0.9392  0.1483 -0.5073
   75MOL   H44339071   0.289   1.433   3.928 -0.1439 -1.1697  0.0490
   75MOL   C44439072   0.211   1.782   3.414  0.0398  0.6280 -0.1749
   75MOL   C44539073   0.355   1.829   3.372 -0.0319  0.2017  0.4484
   75MOL   N44639074   0.456   1.787   3.473  0.4699  0.0534  0.0155
   75MOL   C44739075   0.528   1.878   3.551  0.1794 -0.1623 -0.2656
   75MOL   C44839076   0.617   1.805   3.631 -0.1481  0.1038 -0.9628
   75MOL   C44939077   0.704   1.874   3.714  0.1363  0.2026 -0.3115
   75MOL   C45039078   0.707   2.010   3.717 -0.2263 -0.1474  0.2814
   75MOL   C45139079   0.625   2.084   3.635  0.3096 -1.1087  0.2998
   75MOL   C45239080   0.524   2.019   3.562 -0.4311  0.4125 -0.4074
   75MOL   C45339081   0.581   1.666   3.613 -0.0493  0.2693  0.6239
   75MOL   C45439082   0.491   1.657   3.505  0.9262  0.8711  0.6137
   75MOL   C45539083   0.439   1.537   3.464 -0.0460  0.7454  0.0279
   75MOL   C45639084   0.483   1.416   3.528  0.1530 -0.1822  0.1251
   75MOL   C45739085   0.583   1.420   3.629  0.1602  0.3860 -0.5934
   75MOL   C45839086   0.625   1.547   3.672  0.0881 -0.2068  0.3497
   75MOL   H45939087   0.197   1.675   3.404 -1.8392  0.9927 -1.7366
   75MOL   H46039088   0.156   1.812   3.325  2.3740  1.6589 -1.3136
   75MOL   H46139089   0.351   1.938   3.369 -1.7501  0.1446 -0.6456
   75MOL   H46239090   0.765   1.822   3.786  3.0439  1.1162 -2.0373
   75MOL   H46339091   0.777   2.069   3.774 -1.7153  2.2504 -0.2641
   75MOL   H46439092   0.631   2.191   3.649  1.1767 -1.3574  1.9339
   75MOL   H46539093   0.453   2.078   3.507  0.4911  2.8374  0.9301
   75MOL   H46639094   0.358   1.529   3.393  0.1239  0.7825 -0.1667
   75MOL   H46739095   0.433   1.324   3.503  0.5018 -0.5289  0.7014
   75MOL   H46839096   0.630   1.332   3.672 -0.3074  1.3685  2.0309
   75MOL   H46939097   0.714   1.558   3.733  1.2221  2.5332 -1.6945
   75MOL   C47039098   0.393   1.778   3.233  0.6855 -0.2241  0.2703
   75MOL   C47139099   0.526   1.824   3.186 -0.1186  0.6199  0.4504
   75MOL   N47239100   0.545   1.757   3.052  0.5157  0.0211  0.8022
   75MOL   C47339101   0.641   1.659   3.028 -0.1574  0.4551 -0.2713
   75MOL   C47439102   0.624   1.616   2.894 -0.0460 -0.9994  0.7289
   75MOL   C47539103   0.711   1.516   2.843 -0.4878 -0.1704  0.0280
   75MOL   C47639104   0.812   1.455   2.923  0.0128 -0.0445  0.4187
   75MOL   C47739105   0.827   1.497   3.053 -0.4959 -0.0978 -0.2653
   75MOL   C47839106   0.742   1.599   3.106 -0.6430  0.6536 -0.2663
   75MOL   C47939107   0.524   1.701   2.831  0.1915 -0.2040  0.3705
   75MOL   C48039108   0.475   1.785   2.934 -0.7101 -0.3747 -0.8432
   75MOL   C48139109   0.381   1.883   2.902  0.4674  0.5522 -0.2987
   75MOL   C48239110   0.334   1.899   2.771 -0.1475 -0.6901 -0.6547
   75MOL   C48339111   0.383   1.815   2.672 -0.2107 -0.3535  0.4446
   75MOL   C48439112   0.480   1.727   2.698 -0.3731 -0.5873  0.2510
   75MOL   H48539113   0.387   1.670   3.243  1.7311 -0.4009 -0.8786
   75MOL   H48639114   0.314   1.808   3.165  0.3975 -0.0020  0.6996
   75MOL   H48739115   0.597   1.779   3.255  1.6627 -0.2633 -1.8948
   75MOL   H48839116   0.700   1.478   2.743  0.4330  0.4568 -0.3123
   75MOL   H48939117   0.887   1.387   2.886 -1.7618 -2.0702  0.4252
   75MOL   H49039118   0.902   1.452   3.116  1.4884  0.0204 -2.4971
   75MOL   H49139119   0.755   1.627   3.210 -0.9605 -1.3374  0.3265
   75MOL   H49239120   0.349   1.952   2.978  0.7418  1.7230 -1.2346
   75MOL   H49339121   0.263   1.976   2.746 -0.6056 -0.5604  1.0346
   75MOL   H49439122   0.357   1.824   2.567  3.9943 -2.8266 -0.9168
   75MOL   H49539123   0.529   1.680   2.614 -0.7116 -0.2523 -0.1433
   75MOL   C49639124   0.563   1.975   3.182 -0.5534  0.4692 -0.1857
   75MOL   C49739125   0.672   2.021   3.087 -0.7240 -0.3898  0.4607
   75MOL   N49839126   0.650   2.166   3.078  0.0431  0.4458 -0.1361
   75MOL   C49939127   0.682   2.259   3.179 -0.0160 -0.2662  0.1203
   75MOL   C50039128   0.630   2.389   3.147 -0.2783  0.0293 -0.1071
   75MOL   C50139129   0.659   2.493   3.239  0.6485  0.2849  0.6291
   75MOL   C50239130   0.728   2.472   3.356 -0.2791  0.0445  0.1939
   75MOL   C50339131   0.775   2.346   3.388  0.0083 -0.4463 -0.3087
   75MOL   C50439132   0.757   2.240   3.295  0.6353 -0.0487  0.5381
   75MOL   C50539133   0.576   2.376   3.019  0.5587 -0.1263  0.2399
   75MOL   C50639134   0.584   2.239   2.981 -0.3900  1.2552  0.2117
   75MOL   C50739135   0.531   2.190   2.861  0.1427  0.4021 -0.5770
   75MOL   C50839136   0.481   2.283   2.769  0.7670 -0.5640  0.4977
   75MOL   C50939137   0.478   2.424   2.799  0.3269 -0.2612 -0.2187
   75MOL   C51039138   0.521   2.467   2.928  0.2421  0.8655 -0.1051
   75MOL   H51139139   0.473   2.032   3.159  0.0251  0.8716 -1.4657
   75MOL   H51239140   0.598   2.002   3.282 -1.8103  0.5233  0.2442
   75MOL   H51339141   0.657   1.974   2.990 -0.8042  0.4650  0.0587
   75MOL   H51439142   0.630   2.594   3.213  0.3801 -0.0428 -0.3883
   75MOL   H51539143   0.744   2.549   3.430 -0.0116  2.4340 -2.2973
   75MOL   H51639144   0.839   2.327   3.473  1.4048  0.4695 -1.1210
   75MOL   H51739145   0.818   2.154   3.315 -0.8509 -0.7681  2.1850
   75MOL   H51839146   0.539   2.084   2.841  0.1857  0.4212 -0.6584
   75MOL   H51939147   0.460   2.250   2.668  0.6523  2.2720 -0.4339
   75MOL   H52039148   0.435   2.493   2.728  0.4324  1.3085  1.2139
   75MOL   H52139149   0.524   2.574   2.945  0.3587  0.9494 -0.6391
   75MOL   H52239150   0.770   2.011   3.134  0.5149  1.2894 -1.7034
   76MOL     C139151   5.000   3.551   0.783 -0.0846  0.2918 -0.1315
   76MOL     C239152   5.128   3.623   0.811  0.6218  1.0217  0.5964
   76MOL     N339153   5.173   3.695   0.698  0.5059 -0.1742 -0.2522
   76MOL     C439154   5.303   3.700   0.656 -0.3067 -0.0345  0.1937
   76MOL     C539155   5.322   3.780   0.548 -0.3466 -0.0336 -0.0720
   76MOL     C639156   5.450   3.798   0.489  0.1573 -0.4772  0.0668
   76MOL     C739157   5.552   3.730   0.549  0.3498 -1.0421  0.9608
   76MOL     C839158   5.542   3.644   0.658 -0.4812 -0.2244  0.2346
   76MOL     C939159   5.416   3.636   0.716 -0.2642 -0.7067 -0.8858
   76MOL    C1039160   5.200   3.841   0.526 -0.2220  0.0546  0.4070
   76MOL    C1139161   5.106   3.784   0.614 -0.1941  0.2318 -0.4169
   76MOL    C1239162   4.969   3.819   0.611 -0.2548  0.0207 -0.0882
   76MOL    C1339163   4.925   3.901   0.503  0.0271 -0.3538  0.7635
   76MOL    C1439164   5.020   3.957   0.415  0.5177  0.7717 -0.0282
   76MOL    C1539165   5.160   3.935   0.428 -0.1469  0.4070  0.3312
   76MOL    H1639166   4.911   3.607   0.810 -0.5743 -0.7113  0.3621
   76MOL    H1739167   5.002   3.457   0.839 -0.5219 -0.4726 -1.3872
   76MOL    H1839168   5.199   3.540   0.812  0.1999  0.6595  0.6110
   76MOL    H1939169   5.467   3.878   0.418  0.0699 -0.4323  0.0951
   76MOL    H2039170   5.643   3.738   0.491  1.0191 -1.3417  1.9436
   76MOL    H2139171   5.633   3.594   0.687  0.1606 -0.3811 -1.9268
   76MOL    H2239172   5.403   3.568   0.799 -2.3307  0.6041 -0.0799
   76MOL    H2339173   4.901   3.765   0.675 -1.5292  1.0591 -0.5413
   76MOL    H2439174   4.821   3.923   0.486 -0.0320  0.8432  2.5639
   76MOL    H2539175   4.980   4.012   0.331 -1.2892  4.0324  2.8215
   76MOL    H2639176   5.232   3.973   0.357 -0.9887  1.4744  0.0317
   76MOL    H2739177   5.001   3.533   0.676  0.1085 -2.1591  0.2391
   76MOL    C2839178   5.131   3.708   0.941 -0.2316  0.6094  0.2500
   76MOL    C2939179   5.114   3.622   1.071  0.1990 -0.4546  0.3725
   76MOL    N3039180   5.229   3.533   1.092 -0.1618  0.1058 -0.0117
   76MOL    C3139181   5.224   3.395   1.082  0.1626 -0.0049 -0.0165
   76MOL    C3239182   5.358   3.340   1.092 -0.6610  0.3508 -0.0159
   76MOL    C3339183   5.368   3.202   1.088 -0.5927 -0.3553 -0.4137
   76MOL    C3439184   5.260   3.118   1.071  0.1294  0.9087  0.1604
   76MOL    C3539185   5.133   3.171   1.053 -0.1096  0.6384 -0.5156
   76MOL    C3639186   5.111   3.310   1.067  0.1516 -0.2024  0.1262
   76MOL    C3739187   5.445   3.451   1.112 -0.1746 -0.4375 -0.2867
   76MOL    C3839188   5.365   3.571   1.114 -0.2125 -0.7997 -0.5829
   76MOL    C3939189   5.425   3.696   1.128  0.2417  0.5207 -0.3650
   76MOL    C4039190   5.567   3.703   1.137 -0.3627  0.0252  0.8396
   76MOL    C4139191   5.646   3.589   1.143 -0.5591  0.2888  0.2360
   76MOL    C4239192   5.582   3.459   1.131  0.3919  0.2736 -0.2792
   76MOL    H4339193   5.211   3.781   0.944 -2.1247  2.7929 -0.7661
   76MOL    H4439194   5.046   3.775   0.938 -0.6588  0.1148  0.9986
   76MOL    H4539195   5.021   3.567   1.062  0.9237 -2.0174  2.2011
   76MOL    H4639196   5.464   3.154   1.095 -0.9228 -1.1145 -0.9978
   76MOL    H4739197   5.272   3.010   1.063  0.4433  0.6490  3.4941
   76MOL    H4839198   5.048   3.105   1.051  0.0657  0.3156  1.4088
   76MOL    H4939199   5.009   3.345   1.062  0.1910 -0.1923 -0.7238
   76MOL    H5039200   5.371   3.789   1.132 -1.2616 -0.3652  0.0169
   76MOL    H5139201   5.616   3.799   1.142  2.0493 -1.0904 -0.5173
   76MOL    H5239202   5.753   3.601   1.146 -0.6275  0.9615  0.0227
   76MOL    H5339203   5.641   3.370   1.143 -0.4311 -0.0623  1.3123
   76MOL    C5439204   5.096   3.702   1.205  0.1174  0.6732 -0.1533
   76MOL    C5539205   4.956   3.760   1.232  1.0470  0.1181 -0.0087
   76MOL    N5639206   4.855   3.654   1.230  0.3237  0.2381 -0.3567
   76MOL    C5739207   4.733   3.669   1.157  0.4832 -0.2208 -0.3039
   76MOL    C5839208   4.656   3.552   1.168 -0.3455  0.5456  0.1250
   76MOL    C5939209   4.529   3.541   1.111  0.1153  0.4845 -0.0381
   76MOL    C6039210   4.476   3.652   1.047 -0.1037 -0.9290  0.2797
   76MOL    C6139211   4.554   3.773   1.029  0.1456 -0.2800  0.1103
   76MOL    C6239212   4.684   3.774   1.081  0.3271 -0.3364 -0.0560
   76MOL    C6339213   4.722   3.463   1.256  0.0079  0.7475  0.2243
   76MOL    C6439214   4.839   3.536   1.303  0.4472  0.2497  0.0241
   76MOL    C6539215   4.924   3.472   1.402  0.0359 -0.6436  0.0601
   76MOL    C6639216   4.894   3.342   1.450  0.5028 -0.1547  0.0535
   76MOL    C6739217   4.781   3.273   1.399 -0.2554 -0.0793  0.0763
   76MOL    C6839218   4.692   3.331   1.309  0.0334 -1.1429  0.0678
   76MOL    H6939219   5.130   3.642   1.289  1.0462  0.5455 -0.6082
   76MOL    H7039220   5.165   3.786   1.205 -2.0205  2.5007  2.6977
   76MOL    H7139221   4.936   3.834   1.154  0.7713  0.5187  0.4349
   76MOL    H7239222   4.479   3.446   1.125  0.2093  0.6452  1.4975
   76MOL    H7339223   4.380   3.644   0.996  0.4525 -1.4268 -0.7188
   76MOL    H7439224   4.532   3.856   0.964  1.6059 -0.4261 -0.5899
   76MOL    H7539225   4.745   3.862   1.069  2.9323 -1.9613  0.8826
   76MOL    H7639226   5.008   3.528   1.440  1.2985 -1.6072 -1.2497
   76MOL    H7739227   4.964   3.300   1.521 -0.3732 -3.0066 -0.7282
   76MOL    H7839228   4.760   3.172   1.432 -0.5948 -0.1038 -0.2164
   76MOL    H7939229   4.599   3.281   1.288 -0.8008 -0.5469  2.1819
   76MOL    C8039230   4.949   3.832   1.372  0.0380  0.1517 -0.2406
   76MOL    C8139231   5.016   3.971   1.373 -0.0089  0.5299  0.1821
   76MOL    N8239232   4.951   4.061   1.279  0.4270 -0.2967  0.3808
   76MOL    C8339233   5.015   4.109   1.166 -0.0416  0.2976  0.0684
   76MOL    C8439234   4.938   4.211   1.102 -0.6007  0.5803  0.9801
   76MOL    C8539235   4.984   4.282   0.991 -0.0640  0.1918 -0.0718
   76MOL    C8639236   5.115   4.260   0.941  0.5952 -0.4949 -0.0282
   76MOL    C8739237   5.186   4.152   0.994 -0.8188 -0.2491  0.4052
   76MOL    C8839238   5.142   4.083   1.108 -0.1815  0.2573 -0.3588
   76MOL    C8939239   4.810   4.199   1.168  0.4419 -0.0890 -0.4924
   76MOL    C9039240   4.818   4.102   1.274 -0.3849  0.0885  0.2922
   76MOL    C9139241   4.704   4.080   1.357  0.2414 -0.2404  0.4344
   76MOL    C9239242   4.581   4.140   1.330 -0.3635  0.3175  0.0985
   76MOL    C9339243   4.568   4.240   1.225  0.4319  0.6740  0.6067
   76MOL    C9439244   4.687   4.267   1.146  0.7697  0.1960 -0.2356
   76MOL    H9539245   4.844   3.845   1.399 -0.5367 -2.3583 -1.0358
   76MOL    H9639246   5.002   3.768   1.443 -2.3701 -0.3161  1.1966
   76MOL    H9739247   5.122   3.957   1.351 -0.0132  0.8285 -0.0340
   76MOL    H9839248   4.922   4.351   0.935  0.1144 -1.5170 -2.4052
   76MOL    H9939249   5.154   4.311   0.854 -1.5761  1.0756 -0.1294
   76MOL   H10039250   5.287   4.145   0.956 -1.1431  0.7729 -0.6687
   76MOL   H10139251   5.212   4.011   1.148 -0.2140  0.7154  0.5380
   76MOL   H10239252   4.719   4.023   1.447 -0.2611  0.6770  1.1065
   76MOL   H10339253   4.510   4.140   1.412  0.0526 -0.1995  0.4643
   76MOL   H10439254   4.492   4.316   1.216 -0.6882 -0.6197 -0.9733
   76MOL   H10539255   4.674   4.337   1.065 -0.4518  0.3849  0.1075
   76MOL   C10639256   5.018   4.039   1.516 -0.5501  0.1132  0.1291
   76MOL   C10739257   5.135   4.136   1.544 -0.7762  0.0986  0.8574
   76MOL   N10839258   5.141   4.251   1.458 -0.2675  0.4171  0.3094
   76MOL   C10939259   5.246   4.283   1.371 -0.4408 -0.5580 -0.2043
   76MOL   C11039260   5.211   4.401   1.297 -0.6957  0.1161  0.3721
   76MOL   C11139261   5.311   4.449   1.211  0.5520 -0.1655 -0.3613
   76MOL   C11239262   5.432   4.386   1.187  0.1698  0.3504  0.0995
   76MOL   C11339263   5.457   4.267   1.249 -0.4738 -0.4617  0.7364
   76MOL   C11439264   5.369   4.213   1.343  0.6205  0.4497  0.1738
   76MOL   C11539265   5.074   4.438   1.348  0.4645 -0.2353  0.5998
   76MOL   C11639266   5.041   4.352   1.453 -1.1563  0.1560  0.0982
   76MOL   C11739267   4.923   4.371   1.527 -0.4967 -0.3245  0.0013
   76MOL   C11839268   4.830   4.472   1.493  0.3149  1.0808 -0.4926
   76MOL   C11939269   4.870   4.566   1.387  0.2041  0.1848 -0.1992
   76MOL   C12039270   4.984   4.536   1.315 -0.1085  1.0040 -0.9116
   76MOL   H12139271   4.920   4.084   1.533 -0.0249  0.5323  2.1711
   76MOL   H12239272   5.033   3.962   1.591  0.2052 -0.3243 -0.4645
   76MOL   H12339273   5.225   4.083   1.513 -1.5552 -0.4460 -0.5136
   76MOL   H12439274   5.301   4.546   1.164  0.7656 -0.1287 -0.3311
   76MOL   H12539275   5.508   4.432   1.125  0.4244 -1.4223 -0.9158
   76MOL   H12639276   5.543   4.211   1.217 -0.1475  0.9361 -0.8808
   76MOL   H12739277   5.397   4.130   1.407 -0.9015 -1.5836 -1.7120
   76MOL   H12839278   4.905   4.306   1.612 -1.0556  0.5742  0.5886
   76MOL   H12939279   4.732   4.487   1.536 -0.0405 -1.2570 -0.4714
   76MOL   H13039280   4.796   4.641   1.363  1.1465  1.7972  1.7521
   76MOL   H13139281   5.016   4.598   1.232  0.6144 -0.4559 -1.7348
   76MOL   C13239282   5.171   4.172   1.691 -0.4171 -0.1542  0.4155
   76MOL   C13339283   5.212   4.047   1.781  1.1998 -0.0984 -0.2741
   76MOL   N13439284   5.297   3.952   1.708  0.1949  0.7440 -0.3320
   76MOL   C13539285   5.273   3.819   1.674 -0.0395 -0.5451  0.1374
   76MOL   C13639286   5.374   3.764   1.595  0.0300  1.1908 -0.6013
   76MOL   C13739287   5.362   3.634   1.541  0.4651  0.0109  0.0657
   76MOL   C13839288   5.252   3.557   1.576  0.1679 -0.4267  0.0069
   76MOL   C13939289   5.146   3.614   1.643  0.1329 -0.4473 -0.4277
   76MOL   C14039290   5.157   3.743   1.704  0.0392 -0.0585 -0.1076
   76MOL   C14139291   5.478   3.867   1.587 -0.2265  0.0774  0.2142
   76MOL   C14239292   5.428   3.982   1.659  0.6983 -0.6237  0.5839
   76MOL   C14339293   5.501   4.102   1.656 -0.1865  0.0152 -0.5420
   76MOL   C14439294   5.620   4.108   1.585  0.9556  0.7286  0.5534
   76MOL   C14539295   5.677   3.995   1.524  0.3104 -0.5804 -0.0507
   76MOL   C14639296   5.610   3.869   1.524 -0.7217 -0.5586  0.1962
   76MOL   H14739297   5.251   4.246   1.696 -0.7682  0.2286  0.3324
   76MOL   H14839298   5.083   4.225   1.727  1.5080  2.8578  0.8032
   76MOL   H14939299   5.114   4.001   1.800  0.5026  1.4507 -0.0253
   76MOL   H15039300   5.424   3.591   1.464 -0.3282 -0.5912 -0.2433
   76MOL   H15139301   5.241   3.456   1.538  2.1936 -1.4167  1.9860
   76MOL   H15239302   5.060   3.549   1.656 -0.7050  1.0645  1.8678
   76MOL   H15339303   5.071   3.783   1.756 -1.6012 -2.0483 -1.1695
   76MOL   H15439304   5.458   4.195   1.691  0.1586  0.3829 -1.0838
   76MOL   H15539305   5.666   4.206   1.586 -0.9732  1.6842 -0.3240
   76MOL   H15639306   5.780   3.997   1.492  0.4434 -1.3759  0.3278
   76MOL   H15739307   5.648   3.778   1.480 -1.1680  0.5216 -2.5052
   76MOL   C15839308   5.284   4.094   1.918 -0.2059  0.7816  0.7610
   76MOL   C15939309   5.197   4.169   2.026  0.7182  0.5698 -0.4944
   76MOL   N16039310   5.123   4.070   2.107 -0.2169  0.3790  0.2784
   76MOL   C16139311   4.985   4.059   2.118  0.3894  0.2909 -0.2487
   76MOL   C16239312   4.952   3.938   2.191 -0.4398 -0.5559 -0.6205
   76MOL   C16339313   4.819   3.897   2.207  0.7353  0.2044  0.2782
   76MOL   C16439314   4.725   3.980   2.150 -0.0331  0.5133 -0.2501
   76MOL   C16539315   4.752   4.103   2.085  0.4650 -0.5878 -0.1938
   76MOL   C16639316   4.884   4.143   2.069 -1.0196  0.1712 -0.1201
   76MOL   C16739317   5.079   3.895   2.253  0.6389 -0.3382  0.2160
   76MOL   C16839318   5.182   3.977   2.198  0.3528 -0.1013  0.3957
   76MOL   C16939319   5.311   3.960   2.238 -0.4209  0.3209  0.0890
   76MOL   C17039320   5.346   3.849   2.318  0.1539  0.3558  0.4930
   76MOL   C17139321   5.244   3.764   2.366 -0.7378 -0.3376 -0.3507
   76MOL   C17239322   5.109   3.793   2.339  0.4678 -0.1581  0.3938
   76MOL   H17339323   5.331   4.009   1.967  0.7097 -0.6854 -2.5249
   76MOL   H17439324   5.373   4.154   1.895  1.0913 -1.4896 -0.3584
   76MOL   H17539325   5.122   4.223   1.969  1.1386  1.2670 -0.3880
   76MOL   H17639326   4.793   3.810   2.266 -1.4213 -0.3261 -1.3804
   76MOL   H17739327   4.624   3.945   2.164  0.9479 -2.0308  0.7209
   76MOL   H17839328   4.684   4.173   2.039  2.3738  1.9414  0.6938
   76MOL   H17939329   4.908   4.227   2.006 -0.2518  1.9377  2.4613
   76MOL   H18039330   5.390   4.020   2.194  0.1949 -1.0562 -0.6959
   76MOL   H18139331   5.449   3.830   2.344  0.4787  1.3187 -0.0753
   76MOL   H18239332   5.273   3.673   2.417  0.3624  0.2002  0.0086
   76MOL   H18339333   5.033   3.724   2.374 -0.5474  0.7682  0.0500
   76MOL   C18439334   5.279   4.269   2.115  0.2686 -0.1210  0.1693
   76MOL   C18539335   5.350   4.395   2.058  0.1187 -0.6154 -0.8336
   76MOL   N18639336   5.292   4.454   1.941  0.0983 -0.2154 -0.3125
   76MOL   C18739337   5.364   4.476   1.822 -0.1082 -0.0336 -0.3056
   76MOL   C18839338   5.282   4.540   1.727 -0.5613 -0.7731 -0.4146
   76MOL   C18939339   5.339   4.574   1.599 -0.1242  0.0873  0.1927
   76MOL   C19039340   5.472   4.553   1.566  0.0483 -1.0196  0.1512
   76MOL   C19139341   5.560   4.501   1.668  0.6109 -0.2863  0.2698
   76MOL   C19239342   5.503   4.459   1.792 -0.7388  0.0030 -0.5239
   76MOL   C19339343   5.151   4.540   1.790  0.0752  0.2465  0.0249
   76MOL   C19439344   5.161   4.498   1.925  0.2862 -0.7516 -0.5258
   76MOL   C19539345   5.047   4.494   2.013  0.7608 -0.4372  0.5088
   76MOL   C19639346   4.923   4.529   1.963 -0.4673 -0.5118 -0.1754
   76MOL   C19739347   4.912   4.574   1.829  0.2019 -0.1293 -0.9206
   76MOL   C19839348   5.022   4.582   1.747 -0.1892  0.2906  0.7087
   76MOL   H19939349   5.206   4.295   2.192 -1.7139 -0.1106 -1.6649
   76MOL   H20039350   5.365   4.219   2.158  0.1734  1.9441  2.8937
   76MOL   H20139351   5.446   4.357   2.024  1.1915  0.3532  1.0757
   76MOL   H20239352   5.268   4.593   1.520 -0.2705  0.1899  0.3478
   76MOL   H20339353   5.502   4.573   1.464 -1.9130  0.0978 -0.2479
   76MOL   H20439354   5.664   4.484   1.645  0.3325  0.0516 -1.3202
   76MOL   H20539355   5.579   4.417   1.856 -1.7740 -3.5382 -1.4680
   76MOL   H20639356   5.065   4.445   2.108  0.8390 -2.3422 -0.4787
   76MOL   H20739357   4.831   4.526   2.019 -1.0223 -1.3573 -1.1143
   76MOL   H20839358   4.815   4.605   1.793  0.9285  0.6822 -2.2026
   76MOL   H20939359   5.010   4.624   1.648 -0.5783  0.0469  0.6522
   76MOL   C21039360   5.369   4.503   2.164 -0.2705  0.6276  0.1125
   76MOL   C21139361   5.444   4.470   2.301 -0.2476  0.4035 -0.2627
   76MOL   N21239362   5.558   4.372   2.276  0.1126 -0.9546  0.3053
   76MOL   C21339363   5.589   4.256   2.355  0.0381 -0.1047  0.7142
   76MOL   C21439364   5.724   4.212   2.325 -0.0721 -0.6057 -0.0792
   76MOL   C21539365   5.772   4.096   2.393  0.4424 -0.2764 -0.0514
   76MOL   C21639366   5.690   4.019   2.468 -0.2174  0.2071  0.4732
   76MOL   C21739367   5.554   4.053   2.489 -0.1808 -0.5475 -0.0025
   76MOL   C21839368   5.508   4.178   2.439  0.1531  0.2880  0.2474
   76MOL   C21939369   5.777   4.297   2.222  0.1988 -0.6234 -0.6082
   76MOL   C22039370   5.678   4.392   2.198  0.0110  0.4263 -0.3439
   76MOL   C22139371   5.702   4.507   2.114  0.0752  0.1531 -0.2235
   76MOL   C22239372   5.828   4.521   2.055 -0.2814 -0.3634 -0.5132
   76MOL   C22339373   5.925   4.420   2.063 -1.0452 -0.2475  0.3773
   76MOL   C22439374   5.895   4.310   2.140 -0.2586  0.1871 -0.1189
   76MOL   H22539375   5.420   4.585   2.113 -1.6562  0.3732 -1.7300
   76MOL   H22639376   5.269   4.533   2.196 -0.2595  1.0944 -0.2849
   76MOL   H22739377   5.376   4.420   2.370  0.7841 -1.3164 -0.4413
   76MOL   H22839378   5.875   4.067   2.380 -0.0608 -2.0773 -0.1428
   76MOL   H22939379   5.727   3.929   2.515 -0.0249  0.3132  0.5239
   76MOL   H23039380   5.492   3.989   2.551 -0.3378  1.3608  1.8690
   76MOL   H23139381   5.405   4.201   2.458 -0.6451 -1.1400 -2.1627
   76MOL   H23239382   5.623   4.579   2.099 -1.6711 -1.7105 -0.1037
   76MOL   H23339383   5.856   4.607   1.996  3.2165 -0.4825  0.8787
   76MOL   H23439384   6.016   4.434   2.007 -1.1924 -0.4628  0.0809
   76MOL   H23539385   5.956   4.221   2.142  2.6367  2.0861  0.3503
   76MOL   C23639386   5.488   4.604   2.383  0.1208  0.6890  0.2220
   76MOL   C23739387   5.491   4.602   2.534  1.1420  0.6544  0.3348
   76MOL   N23839388   5.630   4.605   2.589  0.4845  0.9805 -0.2751
   76MOL   C23939389   5.701   4.499   2.657 -0.1709 -0.1029  0.2928
   76MOL   C24039390   5.830   4.546   2.703 -0.4895  0.1521  0.0671
   76MOL   C24139391   5.914   4.466   2.785  0.1084 -0.4509  0.4714
   76MOL   C24239392   5.876   4.334   2.810  0.2733 -0.1135  0.0054
   76MOL   C24339393   5.748   4.285   2.768 -0.0354  0.7386 -0.4927
   76MOL   C24439394   5.671   4.365   2.678  0.2208  0.1706 -0.1618
   76MOL   C24539395   5.846   4.679   2.647  0.1169 -0.6116  0.2485
   76MOL   C24639396   5.721   4.711   2.591 -0.1275  0.2663 -0.3982
   76MOL   C24739397   5.695   4.841   2.535 -0.0186 -0.1223 -0.3126
   76MOL   C24839398   5.791   4.940   2.549  0.2925 -0.2973 -0.4393
   76MOL   C24939399   5.917   4.908   2.602  0.3948 -0.2190 -0.0995
   76MOL   C25039400   5.946   4.775   2.644  0.4547  0.2852 -1.2709
   76MOL   H25139401   5.579   4.645   2.340  1.2547  0.0016  1.9108
   76MOL   H25239402   5.421   4.686   2.356 -1.3836 -0.1883  1.1885
   76MOL   H25339403   5.460   4.498   2.549  0.4731  0.8941  0.6349
   76MOL   H25439404   6.006   4.516   2.812 -1.2095  1.5539  1.3650
   76MOL   H25539405   5.948   4.268   2.858  3.4667  0.1655 -4.1236
   76MOL   H25639406   5.724   4.183   2.794  1.5940  0.3606 -0.3677
   76MOL   H25739407   5.585   4.311   2.643  1.1432 -1.2187 -0.3091
   76MOL   H25839408   5.599   4.850   2.487  0.4718 -1.9269 -1.6804
   76MOL   H25939409   5.775   5.040   2.512 -0.7096 -0.7092 -1.1620
   76MOL   H26039410   5.998   4.978   2.590  0.0226  0.2044 -0.1479
   76MOL   H26139411   6.042   4.750   2.685 -2.0243 -2.0289  3.5700
   76MOL   C26239412   5.384   4.689   2.601 -0.9926  1.1323 -0.0751
   76MOL   C26339413   5.386   4.728   2.755 -0.0222 -0.3334  0.2830
   76MOL   N26439414   5.287   4.834   2.771  0.3210  0.3728  0.2352
   76MOL   C26539415   5.322   4.970   2.781  0.7318  0.2574  0.3882
   76MOL   C26639416   5.203   5.045   2.793  0.2307  0.2136  0.0651
   76MOL   C26739417   5.218   5.190   2.795 -0.0399 -0.1245  0.3879
   76MOL   C26839418   5.342   5.252   2.776 -0.4300 -0.9773 -0.2387
   76MOL   C26939419   5.455   5.168   2.769 -0.5337 -0.0120  0.4858
   76MOL   C27039420   5.444   5.027   2.760  0.2658  0.0588 -0.3258
   76MOL   C27139421   5.094   4.953   2.803 -0.0854 -0.4271  0.7633
   76MOL   C27239422   5.149   4.819   2.782 -0.4903 -0.4234 -0.2786
   76MOL   C27339423   5.055   4.710   2.786  0.8481 -0.1564 -0.8978
   76MOL   C27439424   4.915   4.734   2.797  0.2937  0.2894 -0.6259
   76MOL   C27539425   4.866   4.863   2.816  0.3659 -0.1353 -0.2795
   76MOL   C27639426   4.956   4.970   2.815 -0.2536  0.5351  0.0538
   76MOL   H27739427   5.386   4.781   2.542 -1.0184  1.8455  1.0158
   76MOL   H27839428   5.285   4.654   2.572  0.1210  0.0066 -2.6705
   76MOL   H27939429   5.485   4.763   2.780 -0.2819  0.2811  0.4507
   76MOL   H28039430   5.134   5.257   2.806 -1.2249 -1.5638  0.1628
   76MOL   H28139431   5.351   5.358   2.793  0.1829 -1.0313 -0.2239
   76MOL   H28239432   5.553   5.212   2.758 -0.3976 -0.8013 -1.8310
   76MOL   H28339433   5.538   4.975   2.752 -0.4517 -1.4058  0.5998
   76MOL   H28439434   5.091   4.608   2.784  0.5418 -0.2818 -0.2156
   76MOL   H28539435   4.842   4.655   2.799  1.7041 -1.0088  0.8338
   76MOL   H28639436   4.759   4.872   2.826  0.6125  0.7211  1.9272
   76MOL   H28739437   4.913   5.069   2.817 -1.3658  0.0723 -0.1957
   76MOL   C28839438   5.377   4.608   2.849 -0.1032  0.5759 -0.4068
   76MOL   C28939439   5.356   4.655   3.003 -0.7134  0.4273 -0.1761
   76MOL   N29039440   5.358   4.547   3.103  0.5652 -0.0211  0.3524
   76MOL   C29139441   5.250   4.519   3.189 -0.2384  0.3129 -0.0429
   76MOL   C29239442   5.295   4.429   3.291 -0.3535  0.2787 -0.0367
   76MOL   C29339443   5.205   4.407   3.395 -0.7455 -0.2339  0.0301
   76MOL   C29439444   5.074   4.452   3.388 -0.5261  0.0867  0.1614
   76MOL   C29539445   5.027   4.537   3.285  0.0121  0.2778 -0.1425
   76MOL   C29639446   5.118   4.572   3.181 -0.4305 -0.0287 -0.0446
   76MOL   C29739447   5.434   4.391   3.267 -0.7616 -0.3561  0.2378
   76MOL   C29839448   5.469   4.475   3.151 -0.3099 -0.6115  0.0591
   76MOL   C29939449   5.596   4.453   3.082 -0.1366  0.6421 -0.3039
   76MOL   C30039450   5.695   4.373   3.150 -0.2640 -0.0494  0.1328
   76MOL   C30139451   5.667   4.310   3.272  0.1817  0.0861 -0.4698
   76MOL   C30239452   5.536   4.321   3.330  0.2743 -0.3828 -0.5402
   76MOL   H30339453   5.290   4.549   2.820  1.3298  0.4794 -4.9233
   76MOL   H30439454   5.470   4.552   2.837  0.3393  1.3664 -0.6709
   76MOL   H30539455   5.263   4.713   3.005  0.5397  2.5865 -1.8775
   76MOL   H30639456   5.228   4.356   3.488 -0.9565  0.5094  0.4976
   76MOL   H30739457   5.004   4.432   3.468 -1.3761 -1.2591 -0.9000
   76MOL   H30839458   4.927   4.579   3.292  0.2683  0.9012 -0.2241
   76MOL   H30939459   5.087   4.642   3.105  1.2547  0.0880 -0.6574
   76MOL   H31039460   5.633   4.506   2.995 -1.3020 -0.2882 -1.3784
   76MOL   H31139461   5.792   4.353   3.108  0.2695  0.4101  1.1102
   76MOL   H31239462   5.743   4.260   3.331  1.4399  1.0973 -1.2107
   76MOL   H31339463   5.504   4.275   3.422 -0.5233 -2.6298 -1.9040
   76MOL   C31439464   5.455   4.769   3.052  0.2520  0.6646 -0.1286
   76MOL   C31539465   5.459   4.802   3.203 -0.3302  0.0673 -0.0550
   76MOL   N31639466   5.576   4.880   3.239  0.2305  0.4829 -0.1701
   76MOL   C31739467   5.676   4.834   3.316  0.1898  0.1677 -0.4648
   76MOL   C31839468   5.768   4.941   3.339  0.1486 -0.0978 -0.3003
   76MOL   C31939469   5.880   4.916   3.413 -0.0098  0.2923 -0.1311
   76MOL   C32039470   5.908   4.793   3.479 -1.0246  0.5245  0.4567
   76MOL   C32139471   5.819   4.689   3.460 -0.0449 -0.4016 -0.1293
   76MOL   C32239472   5.702   4.709   3.381 -0.6321 -0.0239 -0.1833
   76MOL   C32339473   5.710   5.060   3.279  0.0426  0.0030 -0.2279
   76MOL   C32439474   5.596   5.013   3.209  0.2988  0.0465  0.0701
   76MOL   C32539475   5.519   5.103   3.134 -0.4143  0.1128 -0.6335
   76MOL   C32639476   5.560   5.236   3.118 -0.3718  0.1669 -0.6657
   76MOL   C32739477   5.679   5.287   3.187 -0.1343  0.1446  0.4417
   76MOL   C32839478   5.750   5.194   3.269 -0.0134 -0.1709 -0.2001
   76MOL   H32939479   5.553   4.732   3.021 -0.1252  1.5791 -2.4995
   76MOL   H33039480   5.429   4.862   3.000 -1.2215  0.6903  0.6534
   76MOL   H33139481   5.469   4.708   3.258 -2.5870  0.5403  1.2201
   76MOL   H33239482   5.949   4.997   3.422  0.7595 -0.2141 -1.3614
   76MOL   H33339483   6.002   4.784   3.530 -1.6740 -1.7345  1.3271
   76MOL   H33439484   5.830   4.588   3.498 -1.1953  0.1326  1.6438
   76MOL   H33539485   5.635   4.626   3.364 -0.0030 -0.4490 -0.6082
   76MOL   H33639486   5.420   5.082   3.097  0.0386 -0.4997 -1.4951
   76MOL   H33739487   5.503   5.297   3.050  0.2843  0.7522 -0.6887
   76MOL   H33839488   5.714   5.383   3.151  0.5564 -1.0412 -2.1971
   76MOL   H33939489   5.843   5.231   3.310 -1.0170  1.2942  0.8089
   76MOL   C34039490   5.323   4.856   3.254  0.6027 -0.4501 -0.2642
   76MOL   C34139491   5.319   4.885   3.411  0.3088 -0.3899  0.0795
   76MOL   N34239492   5.221   4.989   3.454  0.0931  0.7028  0.1468
   76MOL   C34339493   5.238   5.126   3.467  0.8212 -0.7388 -0.7256
   76MOL   C34439494   5.123   5.193   3.528  0.0439 -0.4834  0.4390
   76MOL   C34539495   5.124   5.334   3.538 -0.4779 -0.2243  0.1394
   76MOL   C34639496   5.231   5.413   3.486  0.1109 -0.0192  0.0854
   76MOL   C34739497   5.341   5.350   3.429 -0.0035  0.2973  0.2110
   76MOL   C34839498   5.346   5.210   3.427  0.4691 -0.0930  0.5327
   76MOL   C34939499   5.033   5.086   3.558 -0.8915  0.7362 -0.5917
   76MOL   C35039500   5.085   4.961   3.495 -0.1708 -0.1684  0.5452
   76MOL   C35139501   5.007   4.845   3.494  0.6650 -0.4196  0.0850
   76MOL   C35239502   4.878   4.846   3.548 -0.0720 -0.0141 -0.3896
   76MOL   C35339503   4.837   4.953   3.621 -0.2855  0.2422  0.4496
   76MOL   C35439504   4.905   5.074   3.629  0.1212 -0.1698 -0.2692
   76MOL   H35539505   5.277   4.941   3.203 -1.0120 -0.9692  0.2685
   76MOL   H35639506   5.233   4.795   3.246 -0.3360  0.8944 -0.1069
   76MOL   H35739507   5.416   4.932   3.430 -0.1010  0.0909  0.9994
   76MOL   H35839508   5.042   5.377   3.593 -1.7608 -1.4901 -0.7524
   76MOL   H35939509   5.221   5.520   3.485 -1.4704 -0.1519 -1.2662
   76MOL   H36039510   5.421   5.408   3.385  0.1882  0.3359  0.6031
   76MOL   H36139511   5.440   5.169   3.392 -0.0798  0.1883 -1.3026
   76MOL   H36239512   5.038   4.760   3.434  0.8970 -0.3323  0.0815
   76MOL   H36339513   4.819   4.757   3.533  0.3182 -0.1015 -1.4355
   76MOL   H36439514   4.749   4.942   3.682 -0.4406  0.5092  0.2763
   76MOL   H36539515   4.867   5.161   3.682 -0.2929 -0.7978  0.4783
   76MOL   C36639516   5.328   4.757   3.494  0.8393  0.1608 -0.3453
   76MOL   C36739517   5.386   4.752   3.633  0.3823  0.1304  0.5604
   76MOL   N36839518   5.285   4.795   3.726 -0.4518 -0.2615 -0.3405
   76MOL   C36939519   5.281   4.919   3.783  0.3580 -0.1935  0.2981
   76MOL   C37039520   5.174   4.933   3.877 -0.3164  0.2197 -0.7087
   76MOL   C37139521   5.159   5.054   3.941  0.4099 -0.2838  0.1611
   76MOL   C37239522   5.244   5.161   3.917  0.6437  0.2878 -0.0041
   76MOL   C37339523   5.352   5.147   3.831  0.3434  0.0647  0.3303
   76MOL   C37439524   5.370   5.028   3.763 -0.0255 -0.7228  0.0710
   76MOL   C37539525   5.112   4.807   3.876 -0.0982 -0.5193  0.3511
   76MOL   C37639526   5.175   4.725   3.777  0.2737 -0.1706  1.0234
   76MOL   C37739527   5.129   4.593   3.748  0.7625 -0.6465 -0.5726
   76MOL   C37839528   5.021   4.546   3.823  0.5162  0.1042 -0.0042
   76MOL   C37939529   4.958   4.626   3.923 -0.1407 -0.6740 -0.1379
   76MOL   C38039530   5.007   4.751   3.950 -0.2586  0.5555  0.2033
   76MOL   H38139531   5.230   4.711   3.496 -0.6132  3.0432 -2.0734
   76MOL   H38239532   5.381   4.687   3.430 -0.5041  0.0543 -1.3707
   76MOL   H38339533   5.466   4.823   3.651  1.2606 -0.8491  0.5420
   76MOL   H38439534   5.088   5.071   4.021 -0.1029 -1.7060  0.0236
   76MOL   H38539535   5.215   5.249   3.973  1.0356 -1.0475  2.3520
   76MOL   H38639536   5.419   5.227   3.805 -0.5792  0.7594  0.0789
   76MOL   H38739537   5.462   5.022   3.707  0.3512  1.4241  0.4152
   76MOL   H38839538   5.167   4.520   3.678 -2.0890 -1.6863 -1.1071
   76MOL   H38939539   4.992   4.444   3.803  2.6242 -0.7391  1.1339
   76MOL   H39039540   4.872   4.586   3.974  0.3640 -0.9391  0.5063
   76MOL   H39139541   4.962   4.812   4.027  0.8112  0.6262  0.7853
   76MOL   C39239542   5.450   4.621   3.664  0.1242 -0.6528 -0.1204
   76MOL   C39339543   5.482   4.586   3.811 -0.0664 -0.2482 -0.5971
   76MOL   N39439544   5.523   4.449   3.842  0.1596 -0.4913 -0.3275
   76MOL   C39539545   5.459   4.364   3.936 -0.0599  0.0229 -0.0137
   76MOL   C39639546   5.520   4.239   3.934  0.1038 -0.2433  0.3208
   76MOL   C39739547   5.487   4.134   4.020  0.5410  0.1477 -0.4316
   76MOL   C39839548   5.378   4.153   4.109 -0.0791  0.2056 -0.4757
   76MOL   C39939549   5.313   4.281   4.115 -0.1309  0.3961  0.0451
   76MOL   C40039550   5.357   4.385   4.024  0.1681  0.7623  0.7735
   76MOL   C40139551   5.628   4.245   3.845 -0.2182 -0.0140  0.4213
   76MOL   C40239552   5.628   4.374   3.788  0.0656 -0.1082 -0.1794
   76MOL   C40339553   5.716   4.410   3.686  0.4986  0.2610 -0.2762
   76MOL   C40439554   5.808   4.314   3.642 -0.0123  0.3302  0.5516
   76MOL   C40539555   5.819   4.185   3.703 -0.2864 -0.6308  0.0024
   76MOL   C40639556   5.723   4.154   3.804  0.2324 -0.3182 -0.6588
   76MOL   H40739557   5.382   4.544   3.627  1.1054 -0.1448 -3.1612
   76MOL   H40839558   5.530   4.614   3.590  1.1286  3.0400  0.5138
   76MOL   H40939559   5.390   4.616   3.860 -1.1494 -0.9993 -2.1353
   76MOL   H41039560   5.529   4.037   3.997  0.1880  0.4905 -2.6852
   76MOL   H41139561   5.333   4.074   4.168 -1.9000  2.9203  1.9495
   76MOL   H41239562   5.235   4.305   4.186  0.0988  0.6678  0.2042
   76MOL   H41339563   5.310   4.482   4.029  0.7443  1.1717 -1.2859
   76MOL   H41439564   5.703   4.505   3.636 -3.6708 -0.9296 -1.6764
   76MOL   H41539565   5.876   4.344   3.564 -0.6032 -1.2031 -0.5704
   76MOL   H41639566   5.898   4.114   3.685 -1.2263 -2.2397  2.1175
   76MOL   H41739567   5.723   4.055   3.847  0.0088  0.7730  1.8971
   76MOL   C41839568   5.595   4.683   3.867 -0.2449  0.7004  0.3110
   76MOL   C41939569   5.592   4.694   4.021  0.5225  0.0360  0.6849
   76MOL   N42039570   5.709   4.768   4.071 -0.5415 -0.0782  0.0658
   76MOL   C42139571   5.820   4.715   4.138 -0.1434  0.2761  0.1921
   76MOL   C42239572   5.903   4.820   4.183 -0.8116 -0.0581 -0.0340
   76MOL   C42339573   6.019   4.783   4.259  0.3157  0.1472 -0.2065
   76MOL   C42439574   6.047   4.654   4.284  0.5858 -0.1037 -0.6802
   76MOL   C42539575   5.966   4.550   4.244  0.3784  0.6414  0.0593
   76MOL   C42639576   5.846   4.582   4.175 -0.6637 -0.3847 -0.0415
   76MOL   C42739577   5.849   4.943   4.130 -0.2532 -0.1770  0.0070
   76MOL   C42839578   5.727   4.912   4.064 -0.4250  0.3783 -0.4297
   76MOL   C42939579   5.653   5.014   4.004  0.3582  0.2401  0.0428
   76MOL   C43039580   5.701   5.145   4.020 -0.4226  0.2530  0.1208
   76MOL   C43139581   5.814   5.186   4.099  0.3648  0.6042 -0.7969
   76MOL   C43239582   5.895   5.080   4.146  0.3694  0.1997 -0.0331
   76MOL   H43339583   5.696   4.659   3.836  0.2847  1.1532  1.6364
   76MOL   H43439584   5.583   4.790   3.848 -1.0737  0.4051 -0.8893
   76MOL   H43539585   5.604   4.595   4.066  0.7041 -0.3579 -0.2226
   76MOL   H43639586   6.080   4.859   4.305  1.4372  0.4734 -2.1939
   76MOL   H43739587   6.136   4.637   4.344 -1.0088  0.7296  2.0084
   76MOL   H43839588   5.973   4.444   4.263  3.2042  0.7674 -0.1320
   76MOL   H43939589   5.773   4.507   4.151 -0.0729 -0.2107 -2.5701
   76MOL   H44039590   5.561   4.999   3.949 -0.4388 -1.3698  1.7720
   76MOL   H44139591   5.639   5.217   3.970 -0.4273  0.5495  0.5522
   76MOL   H44239592   5.848   5.287   4.111  0.3505  0.4306  0.7398
   76MOL   H44339593   5.990   5.104   4.190  0.7071  1.5777 -1.4790
   76MOL   C44439594   5.456   4.751   4.081 -0.7785  0.6664  1.1595
   76MOL   C44539595   5.440   4.773   4.232  0.2429  0.6234  0.4893
   76MOL   N44639596   5.322   4.864   4.250 -0.3134 -0.3845 -0.7916
   76MOL   C44739597   5.328   5.006   4.252 -0.3737  0.1845 -0.1633
   76MOL   C44839598   5.193   5.059   4.278  0.0260  0.9727  0.2985
   76MOL   C44939599   5.180   5.198   4.298 -0.3978 -0.3392 -0.5280
   76MOL   C45039600   5.292   5.285   4.276  0.1438 -0.0391 -0.0772
   76MOL   C45139601   5.419   5.232   4.253 -0.1722  1.0290 -0.0439
   76MOL   C45239602   5.437   5.095   4.245 -0.5418  0.4314 -0.2647
   76MOL   C45339603   5.105   4.944   4.285 -0.8874 -1.1664 -0.0604
   76MOL   C45439604   5.188   4.830   4.271  0.6197  0.5469 -0.6084
   76MOL   C45539605   5.121   4.700   4.273  0.3901  0.3662 -0.2797
   76MOL   C45639606   4.983   4.686   4.293  0.1062  0.6151  0.5206
   76MOL   C45739607   4.905   4.798   4.313 -0.2266 -0.0364  0.3914
   76MOL   C45839608   4.969   4.923   4.309  0.5587  0.4644  0.6383
   76MOL   H45939609   5.437   4.842   4.022 -0.4565  0.5568  0.8821
   76MOL   H46039610   5.377   4.681   4.055  0.6563  0.2338 -2.4659
   76MOL   H46139611   5.531   4.831   4.251  1.9798 -1.2556 -1.7084
   76MOL   H46239612   5.085   5.228   4.338 -0.8059 -2.0456 -0.1689
   76MOL   H46339613   5.290   5.391   4.295  0.8801 -0.4367  2.3613
   76MOL   H46439614   5.505   5.297   4.246 -0.0264  0.8619  0.2031
   76MOL   H46539615   5.540   5.063   4.249 -0.3751  0.5850 -2.6932
   76MOL   H46639616   5.181   4.613   4.248  2.7191  2.3863 -2.0010
   76MOL   H46739617   4.929   4.593   4.285 -0.8898  1.3312 -1.6642
   76MOL   H46839618   4.797   4.792   4.317 -0.2980 -0.3088 -1.4933
   76MOL   H46939619   4.904   5.007   4.332 -0.4666 -0.6837  2.0162
   76MOL   C47039620   5.439   4.651   4.322 -0.1044  0.4440  0.6664
   76MOL   C47139621   5.410   4.668   4.469  0.0257  0.3262  0.2154
   76MOL   N47239622   5.398   4.528   4.516  0.4134  0.1993  0.2127
   76MOL   C47339623   5.284   4.473   4.574  0.1285 -0.5465  0.0900
   76MOL   C47439624   5.305   4.337   4.614  0.2045 -0.2207  0.0240
   76MOL   C47539625   5.209   4.264   4.692 -1.0045 -0.3130  0.3290
   76MOL   C47639626   5.081   4.324   4.704 -0.4788 -0.2001  0.1198
   76MOL   C47739627   5.054   4.447   4.649  0.2975  1.2163  0.2397
   76MOL   C47839628   5.157   4.528   4.600 -0.9934  0.4724  0.2732
   76MOL   C47939629   5.441   4.304   4.571 -0.2123  0.3408  0.3621
   76MOL   C48039630   5.495   4.422   4.513  0.1733 -0.3062 -0.2567
   76MOL   C48139631   5.629   4.427   4.467  0.1171  0.4869  0.0350
   76MOL   C48239632   5.706   4.315   4.493 -0.1460 -0.4781 -0.2338
   76MOL   C48339633   5.662   4.200   4.557  0.6684 -0.6020 -0.3404
   76MOL   C48439634   5.518   4.188   4.583 -0.1396  0.6543  0.2290
   76MOL   H48539635   5.381   4.571   4.276  1.3414  0.2879 -0.9764
   76MOL   H48639636   5.543   4.617   4.316 -0.0436  0.8924 -1.3962
   76MOL   H48739637   5.317   4.721   4.486 -0.3122  0.8950 -3.0901
   76MOL   H48839638   5.219   4.161   4.723 -0.7914 -0.7123 -1.0287
   76MOL   H48939639   5.001   4.269   4.752  0.3146 -0.0506  1.6247
   76MOL   H49039640   4.952   4.484   4.656  0.4507  1.4227  1.4899
   76MOL   H49139641   5.134   4.628   4.566  0.3867 -0.3909 -3.4255
   76MOL   H49239642   5.679   4.513   4.425  0.8318  0.0436 -0.0312
   76MOL   H49339643   5.812   4.320   4.473  0.4743  1.7762  3.2702
   76MOL   H49439644   5.714   4.106   4.568  1.7574  0.0948  0.6289
   76MOL   H49539645   5.472   4.096   4.619  0.1227 -0.5194 -2.3257
   76MOL   C49639646   5.525   4.741   4.547  0.1965 -0.5462 -0.9112
   76MOL   C49739647   5.493   4.747   4.694 -0.4923  0.1345  1.3180
   76MOL   N49839648   5.625   4.743   4.772 -0.1709 -0.1881  0.2441
   76MOL   C49939649   5.721   4.842   4.808 -0.0582 -0.3983  0.6070
   76MOL   C50039650   5.823   4.787   4.890  0.8977 -0.1084 -1.4645
   76MOL   C50139651   5.909   4.874   4.954  0.3158 -0.3536 -0.5680
   76MOL   C50239652   5.904   5.014   4.924  0.3201 -0.6445  0.8613
   76MOL   C50339653   5.815   5.062   4.828 -0.2851  0.3924  0.7689
   76MOL   C50439654   5.715   4.979   4.779  1.4070  0.6578 -0.5701
   76MOL   C50539655   5.806   4.648   4.887 -0.8881  0.3043  0.2703
   76MOL   C50639656   5.681   4.622   4.821 -0.7742 -0.0787  0.2868
   76MOL   C50739657   5.632   4.488   4.813  0.0097 -0.1015  0.1460
   76MOL   C50839658   5.702   4.380   4.869 -0.0089 -0.2309  0.3824
   76MOL   C50939659   5.829   4.411   4.924  0.7933 -0.0739  0.7435
   76MOL   C51039660   5.886   4.542   4.933  0.8622 -0.9776 -0.3154
   76MOL   H51139661   5.619   4.688   4.530 -0.6422 -2.0210 -1.0265
   76MOL   H51239662   5.545   4.833   4.491 -0.0382  0.2147  0.2509
   76MOL   H51339663   5.428   4.670   4.735  0.2356 -0.8002  0.7318
   76MOL   H51439664   5.975   4.822   5.022  1.4214 -0.8891 -2.0247
   76MOL   H51539665   5.974   5.084   4.966 -0.6910  0.5411  0.6031
   76MOL   H51639666   5.807   5.167   4.802 -1.5697  0.1595  0.1735
   76MOL   H51739667   5.629   5.007   4.720  0.6589 -0.7163 -0.1377
   76MOL   H51839668   5.541   4.469   4.758  0.2114 -0.1397 -0.1745
   76MOL   H51939669   5.675   4.276   4.871 -0.1041 -0.1870  1.5262
   76MOL   H52039670   5.888   4.327   4.959 -1.3504 -1.5000  1.0642
   76MOL   H52139671   5.985   4.560   4.971  2.7006 -0.3549 -5.0947
   76MOL   H52239672   5.444   4.841   4.721  1.7354  1.6652  0.2007
   77MOL     C139673   0.487   6.618   6.896 -0.1126 -0.0219 -0.2605
   77MOL     C239674   0.427   6.626   7.037 -0.1841 -0.1850  0.4587
   77MOL     N339675   0.515   6.672   7.141  0.1523 -0.1871 -0.3666
   77MOL     C439676   0.599   6.787   7.142 -0.2654  0.6569  0.1997
   77MOL     C539677   0.671   6.792   7.263 -0.7562 -0.2143 -0.1070
   77MOL     C639678   0.765   6.903   7.286  0.4234  0.2813 -0.2134
   77MOL     C739679   0.789   7.002   7.191  0.0270  0.5147  0.7646
   77MOL     C839680   0.714   6.990   7.073  0.2147  0.0936  0.2294
   77MOL     C939681   0.619   6.886   7.042  0.4971  0.2973  0.5557
   77MOL    C1039682   0.620   6.688   7.346 -0.4035  0.1078  0.1740
   77MOL    C1139683   0.520   6.618   7.268 -0.0725  0.0489  0.9527
   77MOL    C1239684   0.448   6.502   7.320 -0.2299 -0.0300  0.4543
   77MOL    C1339685   0.475   6.463   7.453 -0.3394 -0.5271 -0.1314
   77MOL    C1439686   0.578   6.528   7.525  0.1158  0.1314 -0.1902
   77MOL    C1539687   0.638   6.641   7.475 -0.2942  0.2755 -0.2467
   77MOL    H1639688   0.481   6.710   6.838 -0.9071  0.1222  0.0493
   77MOL    H1739689   0.437   6.553   6.824 -0.3238 -1.0422  0.7929
   77MOL    H1839690   0.403   6.522   7.058  1.0314 -0.0743  2.5578
   77MOL    H1939691   0.820   6.912   7.379 -1.9084  0.2125  1.2021
   77MOL    H2039692   0.859   7.084   7.204  1.2406 -0.2478 -0.8481
   77MOL    H2139693   0.731   7.067   6.999 -0.6536 -1.5224 -1.6828
   77MOL    H2239694   0.557   6.895   6.955  2.2500 -0.6615 -0.8295
   77MOL    H2339695   0.372   6.464   7.254 -1.1273 -0.4918  1.7297
   77MOL    H2439696   0.424   6.382   7.503  0.3252 -1.3039 -0.6942
   77MOL    H2539697   0.599   6.491   7.625 -1.0511  2.1469  0.8392
   77MOL    H2639698   0.712   6.694   7.534  1.3969  0.4749 -2.4983
   77MOL    H2739699   0.592   6.587   6.891  0.4809  1.5685  1.9958
   77MOL    C2839700   0.299   6.707   7.050  0.1895 -0.2872  0.0951
   77MOL    C2939701   0.179   6.638   6.983 -0.5211 -0.1734 -0.4166
   77MOL    N3039702   0.143   6.511   7.055 -0.8797  0.0832  0.2849
   77MOL    C3139703   0.124   6.391   6.990  0.4648 -0.0003  0.4601
   77MOL    C3239704   0.084   6.286   7.084 -0.7463  0.3044 -0.3795
   77MOL    C3339705   0.077   6.157   7.038 -0.0901  0.6405  0.3848
   77MOL    C3439706   0.083   6.130   6.899  0.1366  0.2686 -0.5520
   77MOL    C3539707   0.116   6.227   6.807  0.3186  1.1669  0.2805
   77MOL    C3639708   0.139   6.354   6.853  0.2898 -0.9527  1.0725
   77MOL    C3739709   0.077   6.350   7.211 -0.3643 -0.1095  0.3004
   77MOL    C3839710   0.105   6.488   7.190 -0.2516  0.1380  0.3450
   77MOL    C3939711   0.109   6.575   7.310 -0.1325 -0.0873  0.1052
   77MOL    C4039712   0.094   6.521   7.437  0.2162 -0.4176 -0.4968
   77MOL    C4139713   0.075   6.383   7.455  0.3604  0.4623 -0.1996
   77MOL    C4239714   0.062   6.303   7.343  0.0458 -0.0962  0.6216
   77MOL    H4339715   0.281   6.708   7.158  3.0514  0.8490  0.6020
   77MOL    H4439716   0.320   6.809   7.019  2.6993 -1.2776 -1.6435
   77MOL    H4539717   0.191   6.617   6.877  0.0493  0.4086 -0.4735
   77MOL    H4639718   0.055   6.079   7.109  0.6804  0.6240  0.6082
   77MOL    H4739719   0.084   6.027   6.867  0.2606  0.2839 -0.6014
   77MOL    H4839720   0.115   6.191   6.705 -0.8645 -1.9557  1.3358
   77MOL    H4939721   0.166   6.430   6.782  0.8104 -0.0620  2.1980
   77MOL    H5039722   0.125   6.681   7.297 -0.5191 -0.0611 -0.1659
   77MOL    H5139723   0.105   6.587   7.523 -1.7045 -2.5359  1.4350
   77MOL    H5239724   0.054   6.348   7.555  1.0005  2.0501  0.5192
   77MOL    H5339725   0.049   6.196   7.349 -1.5302 -0.0486 -1.3265
   77MOL    C5439726   0.057   6.725   6.991  0.1566 -0.4853  0.9863
   77MOL    C5539727   0.053   6.842   6.886 -0.0875 -0.4623 -0.4190
   77MOL    N5639728   0.030   6.791   6.751 -0.5721  0.3146 -0.6277
   77MOL    C5739729   0.122   6.793   6.643 -0.5367 -0.0581  0.7508
   77MOL    C5839730   0.065   6.732   6.531  0.1947 -0.3999  0.2183
   77MOL    C5939731   0.153   6.711   6.419 -0.6088  0.5217 -0.5713
   77MOL    C6039732   0.293   6.750   6.417 -0.0118 -0.2800 -0.4772
   77MOL    C6139733   0.334   6.823   6.528 -0.9509  0.2617  0.1605
   77MOL    C6239734   0.257   6.835   6.649 -0.7022  0.8007  0.2153
   77MOL    C6339735   8.157   6.700   6.564 -0.3260  0.5157  0.2652
   77MOL    C6439736   8.140   6.727   6.700  0.5559  0.3623  0.0257
   77MOL    C6539737   8.013   6.701   6.764 -0.6800 -0.1018  1.1001
   77MOL    C6639738   7.907   6.650   6.684  0.2936 -0.5681  0.7717
   77MOL    C6739739   7.928   6.615   6.549 -0.3110  0.1965 -0.2408
   77MOL    C6839740   8.054   6.639   6.494  0.7827 -0.1689  0.7163
   77MOL    H6939741   8.200   6.659   6.967  0.5416 -0.6082 -0.0453
   77MOL    H7039742   0.039   6.760   7.093 -1.6741  1.6492 -0.0082
   77MOL    H7139743   0.148   6.896   6.883 -1.2139  1.4629 -3.7979
   77MOL    H7239744   0.120   6.644   6.341  2.7025 -3.0849  0.9959
   77MOL    H7339745   0.354   6.721   6.332  0.7060 -1.3105  0.3733
   77MOL    H7439746   0.436   6.859   6.533 -0.9149 -0.0793  3.0717
   77MOL    H7539747   0.303   6.874   6.738 -2.2243 -0.2905  1.4991
   77MOL    H7639748   8.000   6.728   6.867 -0.4004 -0.2031  1.1638
   77MOL    H7739749   7.810   6.649   6.729 -0.1095 -0.5096 -0.0782
   77MOL    H7839750   7.849   6.569   6.492 -1.2226  0.9777  0.3940
   77MOL    H7939751   8.080   6.608   6.394  0.3037 -3.0740  1.4564
   77MOL    C8039752   8.174   6.947   6.920 -0.3724  0.4061  0.2126
   77MOL    C8139753   8.200   7.027   7.049  0.4513  0.3488 -0.4973
   77MOL    N8239754   0.112   7.054   7.078  0.0533  0.2490 -0.2677
   77MOL    C8339755   0.187   7.009   7.197 -0.4425  0.3240  0.6402
   77MOL    C8439756   0.318   7.058   7.192  0.1437 -0.2333 -0.0931
   77MOL    C8539757   0.410   7.016   7.293  0.0275  0.6423 -0.2528
   77MOL    C8639758   0.367   6.931   7.399  0.3713 -0.6772  1.3483
   77MOL    C8739759   0.233   6.887   7.404 -0.4578  0.3518 -0.7663
   77MOL    C8839760   0.146   6.922   7.301 -0.7615 -0.7930  0.9139
   77MOL    C8939761   0.328   7.127   7.067  0.5963  1.0073 -0.2796
   77MOL    C9039762   0.204   7.119   6.997 -0.3414 -0.2421  0.2640
   77MOL    C9139763   0.192   7.175   6.868 -0.2593 -0.6894 -0.4414
   77MOL    C9239764   0.305   7.242   6.811 -0.8937 -0.4169  0.5666
   77MOL    C9339765   0.435   7.237   6.875  0.7753  0.1724  0.0107
   77MOL    C9439766   0.438   7.191   7.009 -0.4954 -0.0867 -0.6770
   77MOL    H9539767   8.168   7.014   6.834  0.4500 -1.2133 -1.1124
   77MOL    H9639768   8.073   6.907   6.910  0.1050 -0.9190  0.6394
   77MOL    H9739769   8.178   6.958   7.130 -0.6711 -0.1999 -1.2744
   77MOL    H9839770   0.510   7.056   7.304 -0.2752  1.8681 -1.7042
   77MOL    H9939771   0.432   6.902   7.480  1.4344  1.4863  1.3166
   77MOL   H10039772   0.190   6.833   7.488 -1.6207  0.1258 -1.4928
   77MOL   H10139773   0.048   6.877   7.310 -0.2721 -2.1418 -0.3395
   77MOL   H10239774   0.102   7.182   6.809  0.7837 -2.5654 -2.3252
   77MOL   H10339775   0.284   7.290   6.717  0.4699 -1.2065 -0.1651
   77MOL   H10439776   0.523   7.286   6.836  1.9884 -3.3260 -1.7808
   77MOL   H10539777   0.521   7.224   7.069 -0.5382 -0.1712 -0.5703
   77MOL   C10639778   8.096   7.141   7.068 -0.2750  0.6912  0.5998
   77MOL   C10739779   7.957   7.085   7.120  0.3840  0.2360 -0.3981
   77MOL   N10839780   7.977   7.008   7.238  0.5890  0.4664 -0.7855
   77MOL   C10939781   7.972   6.868   7.246 -0.8466  0.2820 -0.3431
   77MOL   C11039782   8.009   6.825   7.377  0.3312  0.7099 -0.3578
   77MOL   C11139783   8.022   6.684   7.406  0.6315  0.0951  0.6319
   77MOL   C11239784   7.990   6.594   7.296  0.0622 -0.0366  0.0215
   77MOL   C11339785   7.947   6.635   7.170 -0.2623 -0.4348  0.2446
   77MOL   C11439786   7.949   6.774   7.144  0.0389 -0.0915  0.0345
   77MOL   C11539787   8.027   6.942   7.457 -0.7186  0.0799 -0.2736
   77MOL   C11639788   8.009   7.054   7.370  0.9343  0.1820  0.3589
   77MOL   C11739789   8.040   7.182   7.420 -0.1544  0.3251  0.2682
   77MOL   C11839790   8.070   7.204   7.556  0.0241 -0.5424  0.2160
   77MOL   C11939791   8.090   7.093   7.635  0.0003 -0.2538 -0.5305
   77MOL   C12039792   8.071   6.957   7.590 -0.6345 -0.2578 -0.3159
   77MOL   H12139793   8.150   7.211   7.131 -0.4194 -0.2237  1.7513
   77MOL   H12239794   8.092   7.195   6.973  1.2597 -0.4663 -0.1417
   77MOL   H12339795   7.913   7.017   7.047 -1.6291 -0.4058  1.3664
   77MOL   H12439796   8.053   6.652   7.504 -0.9882 -0.4708  0.9862
   77MOL   H12539797   7.995   6.489   7.318 -0.9816 -0.2076 -0.5387
   77MOL   H12639798   7.919   6.574   7.086 -0.3996  0.2925 -0.2423
   77MOL   H12739799   7.908   6.813   7.053 -1.4592  1.6925  1.4354
   77MOL   H12839800   8.023   7.258   7.346  0.0516 -0.3124 -0.4350
   77MOL   H12939801   8.071   7.304   7.597  0.0506 -0.3187 -0.3311
   77MOL   H13039802   8.133   7.109   7.733  0.2819  1.5017 -0.9177
   77MOL   H13139803   8.098   6.881   7.661 -0.3885 -0.5479 -0.7226
   77MOL   C13239804   7.844   7.198   7.124 -0.3889 -0.4269  0.2101
   77MOL   C13339805   7.802   7.251   6.982 -0.4688  0.0900  0.4721
   77MOL   N13439806   7.704   7.162   6.919  0.5895 -0.1301 -0.3044
   77MOL   C13539807   7.722   7.084   6.801 -0.6743 -0.0350 -0.0604
   77MOL   C13639808   7.614   6.993   6.790  0.4868 -1.0435  0.0251
   77MOL   C13739809   7.613   6.898   6.685 -0.0002 -0.0792 -0.1223
   77MOL   C13839810   7.708   6.913   6.584  0.1527  0.3466 -0.0317
   77MOL   C13939811   7.815   7.002   6.592  0.3324 -0.0636  0.4255
   77MOL   C14039812   7.824   7.085   6.703 -0.3771 -0.7977 -1.0076
   77MOL   C14139813   7.530   7.021   6.904  0.8936  0.3574 -0.3785
   77MOL   C14239814   7.583   7.128   6.983  0.6080 -0.4124 -0.0574
   77MOL   C14339815   7.509   7.179   7.095  0.0046  0.6181 -0.5370
   77MOL   C14439816   7.391   7.113   7.139  0.3484  0.4917  0.6320
   77MOL   C14539817   7.346   7.009   7.060  0.1969 -0.8298  0.7026
   77MOL   C14639818   7.413   6.960   6.947  0.7702 -0.1090 -0.3803
   77MOL   H14739819   7.755   7.174   7.183  1.5279 -0.1985  3.3454
   77MOL   H14839820   7.892   7.278   7.180  2.5356 -2.3040  0.4527
   77MOL   H14939821   7.885   7.237   6.913  0.7402  1.8629  1.5197
   77MOL   H15039822   7.526   6.835   6.682  0.0744 -0.2465  0.9369
   77MOL   H15139823   7.710   6.853   6.495  1.8337 -0.5021  0.5644
   77MOL   H15239824   7.890   7.013   6.515 -2.2414 -0.0773 -2.1460
   77MOL   H15339825   7.913   7.142   6.725 -1.7167  0.4243  1.3818
   77MOL   H15439826   7.542   7.260   7.158 -3.0877  2.1701 -0.8507
   77MOL   H15539827   7.332   7.156   7.219 -0.3237 -0.8880  0.8909
   77MOL   H15639828   7.252   6.962   7.082 -1.2768  0.7983 -1.8937
   77MOL   H15739829   7.378   6.871   6.898  0.1585 -0.3073  0.4183
   77MOL   C15839830   7.745   7.398   6.960 -0.1719  0.0328  0.7014
   77MOL   C15939831   7.842   7.510   7.015 -0.4556 -0.5892  0.4156
   77MOL   N16039832   7.980   7.487   6.982  0.2046 -0.0340  0.8233
   77MOL   C16139833   8.093   7.475   7.069  0.2346 -0.2519 -0.1817
   77MOL   C16239834   8.213   7.464   6.997 -0.4574  0.7311  0.2891
   77MOL   C16339835   0.111   7.465   7.060  0.2239 -0.3350  0.4426
   77MOL   C16439836   0.109   7.465   7.199  0.2622 -0.0447 -0.5619
   77MOL   C16539837   8.220   7.503   7.271  0.3396  0.1110  0.1176
   77MOL   C16639838   8.096   7.500   7.211  0.1726 -0.4061  0.1329
   77MOL   C16739839   8.172   7.447   6.862  0.1005 -0.6807  0.6900
   77MOL   C16839840   8.033   7.469   6.853 -0.3517  0.3903 -0.5248
   77MOL   C16939841   7.973   7.465   6.727 -0.2902 -0.1779 -0.0622
   77MOL   C17039842   8.046   7.438   6.610 -0.0629  0.3678 -0.4948
   77MOL   C17139843   8.186   7.429   6.611 -0.7746 -0.0017 -0.0275
   77MOL   C17239844   0.021   7.430   6.741 -0.5208 -0.2345  0.1039
   77MOL   H17339845   7.720   7.415   6.856  2.6033  1.7390  0.2482
   77MOL   H17439846   7.649   7.406   7.011 -1.4876  0.5142 -1.7888
   77MOL   H17539847   7.842   7.498   7.123  2.3776  1.5959  0.7491
   77MOL   H17639848   0.202   7.451   7.004  0.9475 -0.2781  1.6001
   77MOL   H17739849   0.200   7.462   7.256  0.9094 -1.2030 -1.6286
   77MOL   H17839850   8.225   7.530   7.375  0.5619 -0.2218  0.1936
   77MOL   H17939851   8.004   7.523   7.262  0.8647  0.1451  1.1410
   77MOL   H18039852   7.866   7.477   6.721 -0.4312 -0.7159  1.4074
   77MOL   H18139853   7.999   7.435   6.512  0.7158 -2.0891 -0.8407
   77MOL   H18239854   0.012   7.424   6.518 -0.6043  0.3660  0.0488
   77MOL   H18339855   0.128   7.421   6.746 -0.5637 -0.3873  0.8114
   77MOL   C18439856   7.805   7.653   6.973 -0.3229 -0.2091  0.3046
   77MOL   C18539857   7.675   7.712   7.032  0.4632  0.0235 -0.1136
   77MOL   N18639858   7.657   7.678   7.172  0.0720 -0.1312  0.1612
   77MOL   C18739859   7.551   7.601   7.220 -0.3313 -0.1107  0.0379
   77MOL   C18839860   7.569   7.582   7.359  0.0606 -0.2765 -0.7046
   77MOL   C18939861   7.470   7.514   7.431  0.3052  0.4591 -0.3237
   77MOL   C19039862   7.349   7.471   7.373  0.9066  0.8107  0.1937
   77MOL   C19139863   7.337   7.493   7.234 -0.2361 -0.6332  0.0918
   77MOL   C19239864   7.432   7.559   7.156  0.1007  0.1941 -0.1550
   77MOL   C19339865   7.700   7.640   7.388  0.5478 -0.6433 -0.9393
   77MOL   C19439866   7.743   7.714   7.272  0.4587 -0.4214 -0.3682
   77MOL   C19539867   7.854   7.797   7.287 -1.1522  0.0114  0.2214
   77MOL   C19639868   7.921   7.800   7.411  0.5383 -0.1114  0.3741
   77MOL   C19739869   7.884   7.725   7.519 -0.5912 -0.1619 -0.4169
   77MOL   C19839870   7.772   7.646   7.509 -0.1756 -0.4233  0.3784
   77MOL   H19939871   7.889   7.711   7.011  1.2264 -1.8810 -0.5242
   77MOL   H20039872   7.809   7.661   6.864 -1.4597 -1.5818  0.1461
   77MOL   H20139873   7.602   7.654   6.976  0.0699 -0.7133  1.1345
   77MOL   H20239874   7.498   7.500   7.534  0.9549  0.2050 -0.5378
   77MOL   H20339875   7.276   7.415   7.429  0.5689  1.2671  0.2119
   77MOL   H20439876   7.252   7.452   7.181 -0.4370 -0.3093  0.1594
   77MOL   H20539877   7.429   7.572   7.049 -1.3823  1.1418 -0.0131
   77MOL   H20639878   7.878   7.866   7.207  2.2033 -0.0907  1.1090
   77MOL   H20739879   7.993   7.879   7.428 -1.5784  2.1163 -0.6772
   77MOL   H20839880   7.933   7.743   7.614 -1.2894 -0.5720  0.0260
   77MOL   H20939881   7.735   7.597   7.597  1.1547 -0.8572  0.6955
   77MOL   C21039882   7.652   7.864   6.999  0.0802  0.5258  0.1434
   77MOL   C21139883   7.637   7.901   6.855 -0.2603 -0.1521  0.4572
   77MOL   N21239884   7.559   7.809   6.770 -0.3311 -0.0728  0.5398
   77MOL   C21339885   7.613   7.730   6.666  0.0329  0.0762  0.5479
   77MOL   C21439886   7.503   7.655   6.619 -0.5744  0.4195  0.0860
   77MOL   C21539887   7.521   7.569   6.510 -0.0214 -0.4360  0.3324
   77MOL   C21639888   7.648   7.551   6.454 -0.0437  0.3967 -0.0888
   77MOL   C21739889   7.754   7.636   6.492 -0.6251 -0.3281 -0.5899
   77MOL   C21839890   7.740   7.722   6.604  1.3935  0.3851  0.0668
   77MOL   C21939891   7.388   7.667   6.707 -0.6868  0.3368 -0.7829
   77MOL   C22039892   7.426   7.773   6.793  0.0328 -0.3923  0.6171
   77MOL   C22139893   7.334   7.817   6.888  0.0582 -0.7796 -0.3520
   77MOL   C22239894   7.210   7.756   6.902 -0.4347 -0.3622  0.5132
   77MOL   C22339895   7.167   7.655   6.816 -0.2768 -0.2164 -0.0434
   77MOL   C22439896   7.259   7.612   6.721  0.5066 -0.5884 -0.0965
   77MOL   H22539897   7.557   7.900   7.039 -0.9585  2.3451 -3.7235
   77MOL   H22639898   7.739   7.916   7.039 -0.1261  0.1145  1.1618
   77MOL   H22739899   7.741   7.895   6.823  0.0800 -0.2705  1.5917
   77MOL   H22839900   7.439   7.508   6.474 -0.3919 -0.6478  1.5131
   77MOL   H22939901   7.658   7.490   6.366 -1.3940 -1.9747  1.3642
   77MOL   H23039902   7.849   7.617   6.444 -0.9033  0.5172 -1.4778
   77MOL   H23139903   7.824   7.774   6.646  0.6805  3.1529 -1.8124
   77MOL   H23239904   7.357   7.893   6.961 -2.3827 -0.4220  0.0900
   77MOL   H23339905   7.146   7.786   6.984 -0.8469  1.9612 -0.6313
   77MOL   H23439906   7.071   7.606   6.828  0.4342 -1.1009  2.5001
   77MOL   H23539907   7.233   7.539   6.646 -1.3535  0.8478 -0.8954
   77MOL   C23639908   7.585   8.045   6.833 -0.2475  0.9442  0.4737
   77MOL   C23739909   7.631   8.098   6.696  0.6900  0.5183  0.6644
   77MOL   N23839910   7.521   8.146   6.613  0.5671 -0.3913 -0.0419
   77MOL   C23939911   7.501   8.111   6.477  0.0266 -0.2141  0.2396
   77MOL   C24039912   7.386   8.185   6.422 -0.3012  0.6913 -0.7217
   77MOL   C24139913   7.358   8.158   6.283  0.3127  0.5307 -0.1174
   77MOL   C24239914   7.432   8.068   6.206 -0.9146 -0.3042  0.0232
   77MOL   C24339915   7.552   8.010   6.258 -0.2882  0.1544  0.5120
   77MOL   C24439916   7.581   8.029   6.391 -0.2111  0.3454  0.2494
   77MOL   C24539917   7.344   0.043   6.522  0.1071 -0.1759  0.0751
   77MOL   C24639918   7.416   0.015   6.639  0.3437 -0.2123  0.4825
   77MOL   C24739919   7.377   0.077   6.761 -0.5148  0.4013  0.3385
   77MOL   C24839920   7.270   0.168   6.767 -0.0858 -0.4977  0.1214
   77MOL   C24939921   7.208   0.208   6.649 -0.4386 -0.2560 -0.7154
   77MOL   C25039922   7.248   0.150   6.531  0.2706  0.1272  0.1094
   77MOL   H25139923   7.477   8.043   6.847 -0.6272  0.4583 -2.3732
   77MOL   H25239924   7.630   8.112   6.906  0.0932 -1.2098  2.3225
   77MOL   H25339925   7.666   8.010   6.643 -1.3266 -0.1438  0.4193
   77MOL   H25439926   7.268   8.205   6.246 -0.9268 -1.1087  0.7470
   77MOL   H25539927   7.408   8.061   6.101  1.1863 -2.7074 -0.3811
   77MOL   H25639928   7.618   7.949   6.199 -2.0918 -3.3900  2.0257
   77MOL   H25739929   7.663   7.974   6.434 -0.6272  0.4509  1.1916
   77MOL   H25839930   7.433   0.052   6.850  0.3362  0.6127 -0.1336
   77MOL   H25939931   7.243   0.209   6.863  1.2650 -0.1446  0.3517
   77MOL   H26039932   7.136   0.287   6.641  0.4555  0.9577  2.4803
   77MOL   H26139933   7.209   0.196   6.441 -1.3630 -1.6723 -0.1293
   77MOL   C26239934   7.736   8.216   6.710  0.4977  0.2249  0.2430
   77MOL   C26339935   7.866   8.212   6.791  0.2294  0.2874 -0.1242
   77MOL   N26439936   7.933   8.085   6.778  0.6920  0.6070 -0.5313
   77MOL   C26539937   7.997   8.019   6.881  0.5360  0.8294 -0.4160
   77MOL   C26639938   8.067   7.908   6.831 -1.0477  0.2166 -0.7293
   77MOL   C26739939   8.141   7.822   6.917 -0.2229  0.0743 -0.1148
   77MOL   C26839940   8.156   7.860   7.054  0.0195  0.6239  0.2701
   77MOL   C26939941   8.083   7.970   7.100 -0.4445 -0.5356  0.0370
   77MOL   C27039942   8.005   8.049   7.020  0.1726 -0.2565 -0.4127
   77MOL   C27139943   8.039   7.905   6.695 -0.4977 -0.1533  0.5595
   77MOL   C27239944   7.962   8.017   6.661 -0.0080  0.5109 -0.6712
   77MOL   C27339945   7.926   8.035   6.526  0.5279  0.2160 -0.0020
   77MOL   C27439946   7.967   7.942   6.429  0.2377 -0.6680  0.5591
   77MOL   C27539947   8.038   7.827   6.454 -0.2185 -0.1239  0.6535
   77MOL   C27639948   8.074   7.810   6.589 -0.2914 -0.4610  0.0287
   77MOL   H27739949   7.772   0.016   6.611  1.7661 -0.1544  0.5865
   77MOL   H27839950   7.680   0.071   6.754 -0.4774  0.0953 -0.7195
   77MOL   H27939951   7.836   8.219   6.895  0.2100 -1.3023 -0.0236
   77MOL   H28039952   8.187   7.739   6.867  0.6896 -0.8694  2.2065
   77MOL   H28139953   8.221   7.805   7.120 -1.9031 -3.3070 -0.9007
   77MOL   H28239954   8.086   7.972   7.208  3.7989 -0.7145 -0.0047
   77MOL   H28339955   7.946   8.135   7.048 -1.2759 -0.8521 -1.5435
   77MOL   H28439956   7.866   8.115   6.485  1.3892 -0.2296 -2.1635
   77MOL   H28539957   7.951   7.956   6.323 -0.1137 -2.4842  0.3703
   77MOL   H28639958   8.057   7.766   6.367  0.4623  3.0345 -1.5165
   77MOL   H28739959   8.131   7.724   6.621  0.3124 -1.5023 -3.6419
   77MOL   C28839960   7.975   0.093   6.754  0.2358 -0.4213 -0.3452
   77MOL   C28939961   7.931   0.241   6.785  0.7432 -0.5478 -0.5546
   77MOL   N29039962   7.870   0.261   6.911 -1.0058 -0.8101  0.3303
   77MOL   C29139963   7.742   0.313   6.938  0.5256  0.7382  0.1767
   77MOL   C29239964   7.718   0.319   7.080 -0.4476  0.0517  0.3439
   77MOL   C29339965   7.592   0.367   7.122 -0.2596  0.3602  0.2446
   77MOL   C29439966   7.493   0.406   7.032 -0.3839  0.3321  0.7890
   77MOL   C29539967   7.511   0.390   6.895  1.1011 -0.3677 -0.1660
   77MOL   C29639968   7.641   0.349   6.849  0.2810 -0.0902  0.1381
   77MOL   C29739969   7.841   0.277   7.139  0.4828  0.2048  0.0253
   77MOL   C29839970   7.930   0.247   7.033  0.4108  0.5206  0.6988
   77MOL   C29939971   8.062   0.211   7.062 -0.1121  0.1348  0.2857
   77MOL   C30039972   8.109   0.199   7.193  0.3907  0.7121 -0.2683
   77MOL   C30139973   8.028   0.236   7.300  0.2924  0.2566  0.0743
   77MOL   C30239974   7.895   0.274   7.277 -0.4155 -0.0988 -0.4599
   77MOL   H30339975   8.068   0.078   6.810 -0.2956  1.7256  1.1560
   77MOL   H30439976   8.006   0.075   6.651 -0.4692 -0.1108 -0.6101
   77MOL   H30539977   7.858   0.251   6.704  1.8585  2.2315 -1.2856
   77MOL   H30639978   7.575   0.379   7.227 -1.6869  0.3851  0.0184
   77MOL   H30739979   7.394   0.439   7.062 -1.8640 -1.5592 -1.7189
   77MOL   H30839980   7.431   0.416   6.827  0.9484  0.0139  0.1560
   77MOL   H30939981   7.657   0.361   6.743  1.4238  1.2745  0.4454
   77MOL   H31039982   8.130   0.179   6.985  0.6428 -1.5282  1.5975
   77MOL   H31139983   8.207   0.156   7.209  1.0044  1.6483 -1.4401
   77MOL   H31239984   8.075   0.230   7.397  0.8166  1.3289 -0.1078
   77MOL   H31339985   7.823   0.294   7.356  1.2236 -0.9279  1.2871
   77MOL   C31439986   8.046   0.353   6.762  0.3506  0.2699  0.0917
   77MOL   C31539987   8.115   0.348   6.625 -0.0684 -0.6584 -0.0186
   77MOL   N31639988   8.027   0.380   6.522  0.3768 -0.4209  1.0654
   77MOL   C31739989   7.989   0.289   6.424  0.3839 -0.3662  0.1176
   77MOL   C31839990   7.895   0.346   6.333 -0.7210  0.0910 -0.0061
   77MOL   C31939991   7.842   0.279   6.222 -0.2401 -0.0542  0.3847
   77MOL   C32039992   7.880   0.144   6.197 -0.1877  0.3046  0.3879
   77MOL   C32139993   7.960   0.080   6.292 -0.6720 -0.3554  0.0254
   77MOL   C32239994   8.018   0.154   6.397 -0.5033  0.6271 -0.0333
   77MOL   C32339995   7.869   0.479   6.383 -0.5555 -0.6093  0.7808
   77MOL   C32439996   7.953   0.497   6.499 -0.1156 -0.5513  0.4406
   77MOL   C32539997   7.951   0.622   6.563  0.1026 -0.1476 -0.2950
   77MOL   C32639998   7.871   0.728   6.517  0.3002  0.4373  1.1211
   77MOL   C32739999   7.790   0.716   6.404  0.2847 -0.4453 -0.2532
   77MOL   C32840000   7.795   0.590   6.341 -0.2122 -0.2690 -0.5087
   77MOL   H32940001   7.996   0.449   6.778  1.9943  1.1528  0.0226
   77MOL   H33040002   8.106   0.340   6.852 -0.6400  2.3040  1.0911
   77MOL   H33140003   8.152   0.247   6.605  2.0282  0.0842 -0.0963
   77MOL   H33240004   7.767   0.326   6.161 -1.2516 -0.2757  1.4455
   77MOL   H33340005   7.822   0.088   6.125 -1.6914  0.8141  1.1994
   77MOL   H33440006   7.974   8.200   6.298  1.8288 -0.0777 -0.2847
   77MOL   H33540007   8.077   0.095   6.465  0.8136  1.1705 -0.6907
   77MOL   H33640008   8.025   0.634   6.640  0.1865  2.3279 -0.7158
   77MOL   H33740009   7.885   0.819   6.574  3.3246  0.0343  1.1252
   77MOL   H33840010   7.724   0.792   6.367 -0.1470  1.1297  3.5180
   77MOL   H33940011   7.722   0.574   6.264 -0.7421 -0.3357  0.0022
   77MOL   C34040012   0.006   0.440   6.635  0.1389 -0.3355  0.4351
   77MOL   C34140013   0.128   0.384   6.709 -0.3563  1.3098  0.0262
   77MOL   N34240014   0.162   0.248   6.677  0.2213  0.7774 -0.7747
   77MOL   C34340015   0.162   0.140   6.773 -0.4355  0.5896  0.4337
   77MOL   C34440016   0.169   0.014   6.704  0.1596  0.4032 -0.6948
   77MOL   C34540017   0.177   8.119   6.774  0.3274  0.7432  0.0162
   77MOL   C34640018   0.149   8.122   6.909 -0.2312 -0.1081  0.3596
   77MOL   C34740019   0.151   0.016   6.984  0.1645  0.3940 -0.0481
   77MOL   C34840020   0.152   0.139   6.915  0.8641 -0.2412 -0.1026
   77MOL   C34940021   0.186   0.052   6.566  0.4601  0.7522  0.2426
   77MOL   C35040022   0.177   0.195   6.552  0.3635  0.3066 -0.1265
   77MOL   C35140023   0.187   0.249   6.421 -0.3447 -0.2596 -0.6366
   77MOL   C35240024   0.221   0.171   6.311  0.2641 -0.4636 -0.8877
   77MOL   C35340025   0.229   0.038   6.325  0.2702  0.4881  0.5283
   77MOL   C35440026   0.213   8.201   6.450  0.0799 -0.0195  0.4918
   77MOL   H35540027   0.042   0.482   6.541  2.4192  1.6726  2.1373
   77MOL   H35640028   8.204   0.529   6.691 -2.0257 -0.3855 -0.5791
   77MOL   H35740029   0.102   0.390   6.815 -0.3665  0.8020  0.0539
   77MOL   H35840030   0.190   8.026   6.721  1.4070  0.2143  1.1911
   77MOL   H35940031   0.140   8.028   6.961 -0.4509  0.1496  0.7890
   77MOL   H36040032   0.150   0.009   7.092 -1.3205  1.0427 -0.0091
   77MOL   H36140033   0.145   0.227   6.976 -0.1976  0.0367 -0.6114
   77MOL   H36240034   0.176   0.355   6.404 -2.3709 -0.4902 -0.8613
   77MOL   H36340035   0.238   0.216   6.215  1.0378  0.2385 -0.4333
   77MOL   H36440036   0.245   8.198   6.242  0.3536 -1.0300  1.7714
   77MOL   H36540037   0.231   8.096   6.466 -0.6382 -0.1280  0.5990
   77MOL   C36640038   0.255   0.466   6.693  0.0140  0.5120  0.0327
   77MOL   C36740039   0.248   0.608   6.760  0.8257  0.1495 -0.1027
   77MOL   N36840040   0.203   0.601   6.896 -0.0200  0.1613 -0.4315
   77MOL   C36940041   0.088   0.665   6.947 -0.3739  0.5997  0.1587
   77MOL   C37040042   0.079   0.625   7.083  0.8977 -0.1087  0.6163
   77MOL   C37140043   8.198   0.678   7.156  0.0994 -0.0112  0.1434
   77MOL   C37240044   8.098   0.754   7.092  0.2947  0.2489 -0.0572
   77MOL   C37340045   8.104   0.784   6.956  0.5082 -0.0621  0.0141
   77MOL   C37440046   8.215   0.735   6.882 -0.1430 -0.4678  0.2472
   77MOL   C37540047   0.194   0.544   7.115 -0.1515  0.2941 -0.0880
   77MOL   C37640048   0.275   0.534   6.998 -0.5834  0.0130 -0.2066
   77MOL   C37740049   0.393   0.464   7.004  0.1811 -0.2026  0.0284
   77MOL   C37840050   0.437   0.404   7.122 -0.1367  0.3727  0.4784
   77MOL   C37940051   0.356   0.406   7.238 -1.0541  0.6469 -0.1402
   77MOL   C38040052   0.235   0.473   7.229 -0.0540 -1.0686  0.0750
   77MOL   H38140053   0.339   0.418   6.744 -0.3176 -0.0540  0.0525
   77MOL   H38240054   0.277   0.470   6.586 -3.0760  3.7051 -0.5742
   77MOL   H38340055   0.170   0.655   6.701  0.1279  0.1877  0.8453
   77MOL   H38440056   8.189   0.651   7.260  1.6216  0.2148  0.3534
   77MOL   H38540057   8.020   0.780   7.162  1.5668  0.4598  1.3027
   77MOL   H38640058   8.020   0.836   6.914 -0.3298  0.2093  1.9510
   77MOL   H38740059   8.226   0.771   6.781 -0.5158 -0.6870  0.1291
   77MOL   H38840060   0.461   0.454   6.920  0.4298  0.7612  0.1087
   77MOL   H38940061   0.531   0.352   7.129 -0.4567 -0.3523 -0.5552
   77MOL   H39040062   0.402   0.374   7.330 -0.9338  0.2702 -0.3317
   77MOL   H39140063   0.178   0.491   7.319 -1.6929  3.0043 -1.6801
   77MOL   C39240064   0.365   0.706   6.739  0.5064 -0.0141  0.0990
   77MOL   C39340065   0.418   0.728   6.589 -0.1853  0.1404 -0.5039
   77MOL   N39440066   0.318   0.715   6.481 -0.3675  0.0898  0.2347
   77MOL   C39540067   0.327   0.627   6.371  0.4381 -0.0906 -0.5218
   77MOL   C39640068   0.220   0.662   6.280 -0.8789  0.6358 -0.1946
   77MOL   C39740069   0.207   0.582   6.163 -0.3609 -0.4599  0.5360
   77MOL   C39840070   0.304   0.478   6.133 -0.1959 -0.8835  0.3527
   77MOL   C39940071   0.416   0.457   6.217 -0.1162  0.9472  0.6512
   77MOL   C40040072   0.424   0.527   6.339  0.2751 -0.4202  0.6548
   77MOL   C40140073   0.142   0.762   6.343  1.0265  0.0368 -0.3139
   77MOL   C40240074   0.201   0.790   6.467 -0.2788 -0.9023  0.3777
   77MOL   C40340075   0.137   0.883   6.552 -0.2494  0.4362  0.3573
   77MOL   C40440076   0.026   0.954   6.511  0.6624  0.5240  0.0871
   77MOL   C40540077   8.198   0.922   6.392 -0.2998  0.8193  0.0595
   77MOL   C40640078   0.024   0.821   6.309  0.1898 -0.4457  0.3018
   77MOL   H40740079   0.323   0.798   6.782  0.5098 -0.1169  0.3212
   77MOL   H40840080   0.444   0.668   6.804 -0.0958 -1.2941  0.0890
   77MOL   H40940081   0.478   0.640   6.565  0.2957 -0.1465  1.6188
   77MOL   H41040082   0.125   0.609   6.098 -1.3295 -2.9839  0.6477
   77MOL   H41140083   0.294   0.423   6.040  0.2175  0.8516 -0.7590
   77MOL   H41240084   0.484   0.378   6.189 -0.9589  0.1117  0.9465
   77MOL   H41340085   0.514   0.511   6.397  1.2494  1.0688 -0.4033
   77MOL   H41440086   0.172   0.903   6.653 -0.0566  2.0806 -0.0130
   77MOL   H41540087   8.200   1.020   6.577  0.9884  0.0328  0.8447
   77MOL   H41640088   8.101   0.963   6.366 -0.3658  0.4062 -0.3514
   77MOL   H41740089   8.205   0.801   6.213  0.4785 -1.9278  0.4520
   77MOL   C41840090   0.505   0.855   6.574 -0.5289  0.1190 -1.3150
   77MOL   C41940091   0.648   0.842   6.642  0.7025  0.2121 -0.5196
   77MOL   N42040092   0.730   0.744   6.570  0.2426  0.5622 -0.0561
   77MOL   C42140093   0.731   0.608   6.604  0.2175 -0.0963 -0.1664
   77MOL   C42240094   0.766   0.530   6.491 -0.0653  0.3583 -0.8358
   77MOL   C42340095   0.751   0.388   6.501  0.8023  1.1063 -0.0328
   77MOL   C42440096   0.713   0.329   6.621  0.2061  0.2792 -0.1417
   77MOL   C42540097   0.677   0.411   6.734  0.9167 -0.0229 -0.0721
   77MOL   C42640098   0.694   0.544   6.723  0.2819 -0.1733 -0.2420
   77MOL   C42740099   0.805   0.622   6.393  0.1262  0.2811 -0.5582
   77MOL   C42840100   0.787   0.757   6.440  0.2990 -0.3157 -0.2964
   77MOL   C42940101   0.815   0.864   6.354 -0.4543  0.4537  0.7471
   77MOL   C43040102   0.848   0.843   6.221 -0.1240 -0.2561  0.1315
   77MOL   C43140103   0.861   0.708   6.176  0.2255 -0.9474  0.2788
   77MOL   C43240104   0.851   0.602   6.266 -0.8380  0.8386  0.0067
   77MOL   H43340105   0.533   0.866   6.469  1.0845  0.1492 -0.8966
   77MOL   H43440106   0.445   0.936   6.615 -1.3206 -0.2244 -1.7858
   77MOL   H43540107   0.635   0.797   6.740 -0.0130  0.9835 -0.2523
   77MOL   H43640108   0.775   0.323   6.418  1.0176  0.6950  0.3502
   77MOL   H43740109   0.711   0.223   6.641 -0.6899  0.2298 -0.4789
   77MOL   H43840110   0.633   0.367   6.822  0.7375  0.6712  0.1852
   77MOL   H43940111   0.655   0.605   6.804  1.1884 -0.9734  0.8096
   77MOL   H44040112   0.806   0.963   6.396  1.8897  2.2556 -2.8027
   77MOL   H44140113   0.874   0.931   6.164  3.8626 -2.6032 -1.9157
   77MOL   H44240114   0.878   0.697   6.070  0.7602 -2.8025  0.5306
   77MOL   H44340115   0.870   0.498   6.245  0.1894  0.4144  2.8214
   77MOL   C44440116   0.716   0.972   6.679 -0.8627 -0.3281 -0.5700
   77MOL   C44540117   0.640   1.066   6.782 -0.1705 -0.2928 -0.0402
   77MOL   N44640118   0.577   1.000   6.900 -0.0599  1.3129 -0.3524
   77MOL   C44740119   0.444   0.992   6.930 -0.6798  0.1597 -0.4035
   77MOL   C44840120   0.416   0.905   7.040 -0.0494 -0.0704  0.2960
   77MOL   C44940121   0.285   0.896   7.083  0.4256  0.4636 -0.2028
   77MOL   C45040122   0.178   0.965   7.026  0.0996  0.2223  0.3496
   77MOL   C45140123   0.207   1.045   6.912  0.4979  0.8855 -0.5991
   77MOL   C45240124   0.333   1.057   6.862 -0.2857  0.3858 -1.0773
   77MOL   C45340125   0.545   0.855   7.078 -0.1465 -0.6228  0.2250
   77MOL   C45440126   0.642   0.907   6.989  0.3663 -0.3243 -0.0062
   77MOL   C45540127   0.778   0.872   7.005 -0.0785  0.4752 -0.2763
   77MOL   C45640128   0.812   0.784   7.107  0.0584  0.5460 -0.6335
   77MOL   C45740129   0.719   0.731   7.197  0.0060  0.5851  0.1939
   77MOL   C45840130   0.584   0.772   7.188 -0.0618  0.2479  0.0043
   77MOL   H45940131   0.819   0.949   6.705 -0.4954 -1.4079 -2.7954
   77MOL   H46040132   0.729   1.027   6.586  1.9638 -1.3389 -0.8209
   77MOL   H46140133   0.564   1.113   6.720 -1.2279 -2.3952 -0.4104
   77MOL   H46240134   0.266   0.835   7.170 -0.4504  0.9940 -0.0131
   77MOL   H46340135   0.079   0.970   7.069  0.0187  0.8237  0.1039
   77MOL   H46440136   0.127   1.096   6.861  0.2048 -1.9930 -3.1483
   77MOL   H46540137   0.364   1.114   6.775  0.9648  0.0274 -0.8707
   77MOL   H46640138   0.864   0.904   6.948  2.2621 -1.7368  1.8763
   77MOL   H46740139   0.916   0.759   7.119  0.0770  0.8430 -0.1692
   77MOL   H46840140   0.766   0.661   7.265  1.0071  0.5487 -0.5209
   77MOL   H46940141   0.506   0.730   7.250 -0.4049 -0.9052 -1.1835
   77MOL   C47040142   0.737   1.178   6.838 -0.4040  0.1238  0.0264
   77MOL   C47140143   0.681   1.286   6.947  1.1702 -0.1849 -0.1846
   77MOL   N47240144   0.762   1.285   7.072  0.2908 -0.8527  0.2855
   77MOL   C47340145   0.703   1.270   7.202  0.0179  0.4444  0.6952
   77MOL   C47440146   0.806   1.287   7.294 -0.7967  0.1487  0.2443
   77MOL   C47540147   0.767   1.288   7.431  0.0872  0.2164  0.4338
   77MOL   C47640148   0.633   1.260   7.465  0.1492 -0.1228 -0.1666
   77MOL   C47740149   0.535   1.231   7.368 -0.4846 -0.8310 -0.4409
   77MOL   C47840150   0.574   1.243   7.233  0.3310  0.5285 -0.0176
   77MOL   C47940151   0.924   1.299   7.224 -0.1966  0.3928  0.3719
   77MOL   C48040152   0.893   1.302   7.087 -0.0493  0.5407 -0.2033
   77MOL   C48140153   0.990   1.332   6.984  0.0975 -0.5888 -0.1897
   77MOL   C48240154   1.119   1.356   7.021 -0.1548  0.4467 -0.3595
   77MOL   C48340155   1.158   1.363   7.156  0.2646  0.0111  0.0593
   77MOL   C48440156   1.058   1.333   7.255  0.6575  0.1460 -0.0308
   77MOL   H48540157   0.810   1.123   6.898 -0.4745 -1.8476 -1.6678
   77MOL   H48640158   0.786   1.237   6.761  0.6621 -0.2674  0.3899
   77MOL   H48740159   0.580   1.252   6.969  1.3713 -1.0894 -0.6429
   77MOL   H48840160   0.840   1.297   7.510 -0.2227 -2.0891  1.0270
   77MOL   H48940161   0.604   1.243   7.568 -0.7650  1.2689 -0.1827
   77MOL   H49040162   0.431   1.211   7.389 -0.2039 -3.0863 -1.1220
   77MOL   H49140163   0.502   1.224   7.154  0.4996 -1.2794  0.2446
   77MOL   H49240164   0.950   1.339   6.884  1.2633 -1.0082 -0.6951
   77MOL   H49340165   1.184   1.392   6.943 -0.0991  2.3037  0.5059
   77MOL   H49440166   1.261   1.388   7.175  0.0752 -0.1282  1.3453
   77MOL   H49540167   1.082   1.333   7.361 -0.9273 -2.0323  0.3717
   77MOL   C49640168   0.659   1.428   6.892 -0.1899  0.4608  0.9609
   77MOL   C49740169   0.600   1.520   6.996 -0.3714  0.0236  0.5385
   77MOL   N49840170   0.620   1.651   6.936  0.3184 -0.4221  0.6732
   77MOL   C49940171   0.533   1.711   6.847  0.1061 -0.0029 -0.7695
   77MOL   C50040172   0.580   1.845   6.817 -0.2262 -0.2060 -0.5249
   77MOL   C50140173   0.515   1.921   6.718  0.0036  0.3561  0.2799
   77MOL   C50240174   0.399   1.873   6.662  0.1346 -0.1024  0.1421
   77MOL   C50340175   0.341   1.752   6.704 -0.1314  0.4678  0.1640
   77MOL   C50440176   0.406   1.669   6.793 -0.2344 -0.3985  0.0040
   77MOL   C50540177   0.704   1.855   6.881 -0.5942  0.4095 -0.0742
   77MOL   C50640178   0.727   1.739   6.965  0.5084  0.5319  0.5964
   77MOL   C50740179   0.837   1.734   7.053  0.3724 -0.7199 -0.3119
   77MOL   C50840180   0.938   1.836   7.048  0.5824  0.2750 -0.4367
   77MOL   C50940181   0.913   1.940   6.957 -0.0309  0.1091  0.6044
   77MOL   C51040182   0.800   1.956   6.884 -0.0385  0.5285  0.5599
   77MOL   H51140183   0.750   1.466   6.846  0.1419  0.0912  1.3070
   77MOL   H51240184   0.589   1.423   6.809 -0.8888  0.7819  1.5271
   77MOL   H51340185   0.656   1.518   7.089 -0.6806 -0.8733  0.7129
   77MOL   H51440186   0.555   2.014   6.680 -2.2561  0.4914 -1.9615
   77MOL   H51540187   0.348   1.927   6.583  0.0567 -0.0747  0.2112
   77MOL   H51640188   0.246   1.715   6.667 -0.8807  2.1198  0.4233
   77MOL   H51740189   0.362   1.574   6.822  0.6378 -1.1148 -0.9680
   77MOL   H51840190   0.848   1.651   7.121 -0.3207 -0.3279  0.2790
   77MOL   H51940191   1.027   1.839   7.111  0.2656  2.2038 -0.0423
   77MOL   H52040192   0.990   2.015   6.940  0.9341 -1.1307 -0.5731
   77MOL   H52140193   0.785   2.043   6.821 -1.1283  0.7683  1.1396
   77MOL   H52240194   0.493   1.508   7.017 -0.4625 -3.6438 -1.5639
   78MOL     C140195   2.852   0.052   2.617  0.0741  0.3989 -0.2674
   78MOL     C240196   2.869   0.204   2.591  0.7094  0.4218  0.2226
   78MOL     N340197   2.819   0.287   2.702 -0.2084  0.4702 -0.0337
   78MOL     C440198   2.704   0.369   2.693 -0.3237  0.7367 -0.5423
   78MOL     C540199   2.688   0.436   2.818  0.0934  0.6414  0.1735
   78MOL     C640200   2.584   0.528   2.823  0.3886 -0.3235  0.3171
   78MOL     C740201   2.512   0.559   2.712  0.2448 -0.5396  0.5389
   78MOL     C840202   2.534   0.502   2.582  0.0034 -0.0785 -0.7557
   78MOL     C940203   2.634   0.407   2.575  0.1702  0.5007 -1.0916
   78MOL    C1040204   2.792   0.392   2.905  0.1148 -0.2794  0.2503
   78MOL    C1140205   2.876   0.305   2.830 -0.7202 -0.2298 -0.0594
   78MOL    C1240206   2.990   0.243   2.897 -0.2482  0.1960  0.8919
   78MOL    C1340207   3.014   0.269   3.032  0.0713 -0.6993 -0.2270
   78MOL    C1440208   2.931   0.359   3.103  0.1864 -0.4331  0.0242
   78MOL    C1540209   2.827   0.422   3.040 -0.2776  0.6636  0.0768
   78MOL    H1640210   2.746   0.029   2.627  0.2416 -0.0851  0.4591
   78MOL    H1740211   2.901   0.031   2.713 -1.1850  0.7912  0.4728
   78MOL    H1840212   2.809   0.227   2.503 -1.9774 -1.3743  1.5406
   78MOL    H1940213   2.555   0.566   2.919  0.2354 -0.5534  0.3632
   78MOL    H2040214   2.424   0.618   2.730 -0.4308 -0.8295 -1.6810
   78MOL    H2140215   2.472   0.524   2.496 -1.5736 -0.9178  0.1279
   78MOL    H2240216   2.648   0.356   2.481  0.7906  0.2544 -0.8703
   78MOL    H2340217   3.057   0.170   2.854 -1.0893  0.4093 -0.7937
   78MOL    H2440218   3.084   0.210   3.090 -0.6030 -1.0403  0.2447
   78MOL    H2540219   2.950   0.385   3.206  0.8718 -1.0469  0.0530
   78MOL    H2640220   2.764   0.486   3.100 -0.8784  0.8708 -0.7671
   78MOL    H2740221   2.889   8.220   2.534  2.8172  0.7074  0.6711
   78MOL    C2840222   3.015   0.231   2.558 -0.2875  0.1353 -0.7045
   78MOL    C2940223   3.055   0.368   2.511  0.4786  0.0826 -0.2077
   78MOL    N3040224   3.202   0.385   2.516 -0.6256  0.1003 -0.3973
   78MOL    C3140225   3.269   0.456   2.616 -0.5180 -0.5423 -0.1788
   78MOL    C3240226   3.408   0.466   2.583 -0.1106 -0.2370  0.8933
   78MOL    C3340227   3.497   0.541   2.667  0.2265 -0.1343  0.5724
   78MOL    C3440228   3.444   0.603   2.786 -0.4865  0.2199 -0.0086
   78MOL    C3540229   3.306   0.583   2.827  0.2999 -0.0178 -0.3642
   78MOL    C3640230   3.221   0.519   2.738 -0.0801  0.0419 -0.2979
   78MOL    C3740231   3.430   0.391   2.459  0.6754 -0.0249 -0.2537
   78MOL    C3840232   3.302   0.334   2.428  0.1393 -0.4181  0.4419
   78MOL    C3940233   3.290   0.242   2.321  0.1417  0.0222 -0.1170
   78MOL    C4040234   3.397   0.220   2.233  0.4782  0.2287 -0.1594
   78MOL    C4140235   3.516   0.286   2.260 -0.1330 -0.0485  0.4624
   78MOL    C4240236   3.537   0.364   2.377 -0.4067 -0.9721  0.3213
   78MOL    H4340237   3.079   0.209   2.644 -1.9203  0.2722  0.5563
   78MOL    H4440238   3.060   0.157   2.491 -0.9597 -0.6707 -0.2822
   78MOL    H4540239   3.016   0.442   2.582 -1.3479  1.1134 -2.2507
   78MOL    H4640240   3.603   0.551   2.649 -0.3147  2.4006 -1.4847
   78MOL    H4740241   3.502   0.656   2.861 -0.7966 -0.2401  0.5529
   78MOL    H4840242   3.270   0.624   2.920  0.4112  0.3907 -0.4988
   78MOL    H4940243   3.115   0.510   2.759  0.1838  0.1149  1.1144
   78MOL    H5040244   3.198   0.186   2.309  0.2742 -0.4981  1.1405
   78MOL    H5140245   3.388   0.153   2.149  2.1740  1.1329 -1.0866
   78MOL    H5240246   3.596   0.279   2.188 -1.1572 -0.6035 -0.6370
   78MOL    H5340247   3.626   0.417   2.409  1.2475 -1.5640 -3.0015
   78MOL    C5440248   2.992   0.413   2.374 -0.2876 -0.1684 -0.0449
   78MOL    C5540249   3.041   0.541   2.298 -0.0164  0.5237  0.1147
   78MOL    N5640250   3.109   0.507   2.172 -0.2528  0.1971 -0.0038
   78MOL    C5740251   3.244   0.544   2.142  0.6034 -0.1775  0.9813
   78MOL    C5840252   3.271   0.491   2.007 -0.1175  0.2777  0.0557
   78MOL    C5940253   3.396   0.517   1.953 -0.4077 -0.1183 -0.4729
   78MOL    C6040254   3.490   0.590   2.033  0.1544  0.7435  0.3484
   78MOL    C6140255   3.469   0.635   2.164 -0.4073 -0.3169  0.6107
   78MOL    C6240256   3.344   0.614   2.216 -0.2670 -0.1228 -0.3525
   78MOL    C6340257   3.152   0.438   1.954  0.1251 -0.7502  0.3297
   78MOL    C6440258   3.056   0.449   2.060 -0.0034  0.9221  0.6159
   78MOL    C6540259   2.924   0.391   2.036  0.0177 -0.5356  0.1973
   78MOL    C6640260   2.892   0.338   1.908 -0.1173 -0.3345 -0.3812
   78MOL    C6740261   2.987   0.330   1.811 -0.0262  0.6302  0.2835
   78MOL    C6840262   3.113   0.383   1.831  0.3764 -0.1962  0.0167
   78MOL    H6940263   3.032   0.332   2.313 -0.8350  1.3901 -2.4915
   78MOL    H7040264   2.883   0.402   2.375 -0.1700 -1.4512 -0.3712
   78MOL    H7140265   3.119   0.581   2.363 -0.2288 -0.3535  0.9289
   78MOL    H7240266   3.425   0.474   1.859 -0.4380 -0.3262 -0.3879
   78MOL    H7340267   3.592   0.598   1.999 -0.0231  0.9078 -0.1518
   78MOL    H7440268   3.541   0.695   2.219 -0.7775  0.3421  0.3741
   78MOL    H7540269   3.324   0.651   2.315 -1.4719  0.8628 -0.9467
   78MOL    H7640270   2.847   0.390   2.112 -0.5105  0.4141 -0.3278
   78MOL    H7740271   2.791   0.298   1.900 -0.1772 -0.0726 -0.9728
   78MOL    H7840272   2.962   0.287   1.715  1.2037 -1.0861  0.6971
   78MOL    H7940273   3.180   0.373   1.747 -0.8137  0.7524 -1.0866
   78MOL    C8040274   2.929   0.642   2.271  0.1250  1.0006 -0.1111
   78MOL    C8140275   2.880   0.735   2.387 -0.4393  0.8509 -0.1629
   78MOL    N8240276   2.992   0.780   2.471  0.1434  0.1702  0.3975
   78MOL    C8340277   2.988   0.768   2.613  0.8746 -0.6652  0.0154
   78MOL    C8440278   3.101   0.845   2.664  1.2534  0.1651 -0.7465
   78MOL    C8540279   3.109   0.863   2.803 -0.3924 -0.1649 -0.0741
   78MOL    C8640280   3.007   0.805   2.885  0.0980 -0.2459  0.4266
   78MOL    C8740281   2.901   0.730   2.836 -0.1227  0.5495 -0.3283
   78MOL    C8840282   2.891   0.716   2.699  0.1842  0.2529  0.2400
   78MOL    C8940283   3.186   0.876   2.553  0.0886 -0.0021 -0.1182
   78MOL    C9040284   3.111   0.843   2.436  0.0470  0.0565  0.3261
   78MOL    C9140285   3.154   0.876   2.307  0.4954 -0.7027 -0.3021
   78MOL    C9240286   3.280   0.949   2.292  0.2292 -0.4668  0.7147
   78MOL    C9340287   3.363   0.976   2.405  0.1723  0.4010 -0.3378
   78MOL    C9440288   3.316   0.939   2.537 -0.2116 -0.3162 -0.3507
   78MOL    H9540289   2.965   0.708   2.193 -1.1494 -0.1803 -1.7184
   78MOL    H9640290   2.850   0.576   2.234  1.5835 -1.5275  1.0789
   78MOL    H9740291   2.809   0.670   2.438  0.0392 -0.1836 -0.7991
   78MOL    H9840292   3.187   0.924   2.847 -0.3060 -1.7542  2.0589
   78MOL    H9940293   3.010   0.824   2.991 -1.1489 -1.6762  0.7448
   78MOL   H10040294   2.825   0.683   2.896  0.0531  0.6115 -0.0580
   78MOL   H10140295   2.808   0.661   2.659  1.1108 -1.7728  1.0463
   78MOL   H10240296   3.095   0.866   2.217  0.5059 -1.7869 -0.1897
   78MOL   H10340297   3.309   0.985   2.194  0.2590  0.8414  1.1907
   78MOL   H10440298   3.456   1.031   2.397  0.3359  0.9145  4.0504
   78MOL   H10540299   3.363   0.968   2.630 -0.1884  0.6892 -0.6670
   78MOL   C10640300   2.801   0.853   2.325 -0.1636 -0.3266  0.3603
   78MOL   C10740301   2.690   0.920   2.406 -0.1964  0.1375  0.3920
   78MOL   N10840302   2.741   0.987   2.520 -0.4322 -0.1368  0.2513
   78MOL   C10940303   2.689   0.973   2.652 -0.6014  0.6073  0.7715
   78MOL   C11040304   2.766   1.048   2.741 -0.3863  0.1345  0.1976
   78MOL   C11140305   2.739   1.050   2.879 -0.4073  0.2813  0.0659
   78MOL   C11240306   2.630   0.973   2.922 -0.4536 -0.3191  0.1000
   78MOL   C11340307   2.559   0.892   2.836 -0.1213  0.3726 -0.2874
   78MOL   C11440308   2.578   0.903   2.697 -0.9233 -0.0821 -0.6427
   78MOL   C11540309   2.858   1.126   2.659 -0.3998  0.2252  0.2350
   78MOL   C11640310   2.837   1.093   2.524  1.4933  0.0801  0.1066
   78MOL   C11740311   2.900   1.163   2.417 -0.2868  0.1390  1.0411
   78MOL   C11840312   2.985   1.270   2.457 -0.4119  0.0202  0.3739
   78MOL   C11940313   3.017   1.300   2.589 -0.1575 -0.5043 -0.2838
   78MOL   C12040314   2.948   1.228   2.690 -0.1164  0.1586  0.3882
   78MOL   H12140315   2.876   0.927   2.299  2.0938 -1.8626  2.3212
   78MOL   H12240316   2.768   0.810   2.230  0.6643  0.4176 -0.2735
   78MOL   H12340317   2.634   0.835   2.446  1.1503 -0.7045  0.5253
   78MOL   H12440318   2.804   1.103   2.947 -1.2608  1.4807 -0.0297
   78MOL   H12540319   2.608   0.963   3.028  1.9591 -2.2818  0.4791
   78MOL   H12640320   2.480   0.826   2.869  1.2597 -0.1701  2.0139
   78MOL   H12740321   2.517   0.844   2.630 -0.6004  0.1708 -1.1584
   78MOL   H12840322   2.894   1.138   2.313 -0.0444  0.1445  1.0256
   78MOL   H12940323   3.042   1.317   2.378  0.6269 -2.0575 -0.1754
   78MOL   H13040324   3.082   1.377   2.627  0.2596 -1.0552  0.1423
   78MOL   H13140325   2.964   1.250   2.795  0.4636  2.8076 -0.2157
   78MOL   C13240326   2.609   1.007   2.323 -0.0146 -0.0553 -0.3175
   78MOL   C13340327   2.523   0.936   2.207 -0.4956 -0.4416  0.4220
   78MOL   N13440328   2.462   0.807   2.251 -0.6230  0.7972  0.1158
   78MOL   C13540329   2.480   0.678   2.195  0.9651 -0.3314 -0.1781
   78MOL   C13640330   2.382   0.586   2.248 -0.2428 -0.1639 -0.4555
   78MOL   C13740331   2.392   0.455   2.202  0.4132  0.0562 -0.5446
   78MOL   C13840332   2.494   0.408   2.113 -0.0154 -0.7206  0.1276
   78MOL   C13940333   2.587   0.507   2.062 -0.7744 -0.0196 -0.7103
   78MOL   C14040334   2.574   0.640   2.107 -0.1717  0.5722  0.0033
   78MOL   C14140335   2.294   0.669   2.332 -1.1472 -0.4836 -0.3242
   78MOL   C14240336   2.347   0.802   2.335 -0.3809 -0.4562 -0.4366
   78MOL   C14340337   2.283   0.898   2.418  0.8544  0.6097 -0.0496
   78MOL   C14440338   2.165   0.860   2.484  0.4938 -0.1883 -0.3901
   78MOL   C14540339   2.115   0.727   2.487 -0.4758  0.4206  0.1511
   78MOL   C14640340   2.190   0.633   2.411  0.2471 -0.1082 -0.0708
   78MOL   H14740341   2.537   1.060   2.385 -0.4396 -2.9275  1.6975
   78MOL   H14840342   2.667   1.090   2.281  2.0182 -0.6096  1.3135
   78MOL   H14940343   2.610   0.916   2.145  0.1707  1.1373  0.8393
   78MOL   H15040344   2.321   0.380   2.234  1.0392  0.0842  0.9625
   78MOL   H15140345   2.497   0.309   2.071  0.2120 -1.2860  1.4692
   78MOL   H15240346   2.658   0.480   1.985 -0.4081 -1.4445  0.0967
   78MOL   H15340347   2.632   0.719   2.063  1.6409 -1.2497 -0.9355
   78MOL   H15440348   2.309   1.002   2.433 -0.5353  0.7630  1.4245
   78MOL   H15540349   2.104   0.939   2.524 -0.0435  0.1401 -1.8367
   78MOL   H15640350   2.022   0.694   2.532 -2.4871  2.8234 -2.0907
   78MOL   H15740351   2.147   0.534   2.402  0.3344 -0.0165 -1.6152
   78MOL   C15840352   2.424   1.026   2.135 -0.7309  0.1535  0.7305
   78MOL   C15940353   2.374   0.954   1.999  0.2848 -0.3986  0.6056
   78MOL   N16040354   2.230   0.925   2.003 -0.2808 -0.0815 -0.1324
   78MOL   C16140355   2.169   0.807   1.975 -0.3649  0.0514  0.9325
   78MOL   C16240356   2.030   0.817   1.980  0.5022  0.1929  0.9757
   78MOL   C16340357   1.957   0.698   1.951  0.0449  0.0805  0.0462
   78MOL   C16440358   2.022   0.576   1.925 -0.3541 -0.2354 -0.3666
   78MOL   C16540359   2.161   0.569   1.921 -0.1223  1.0727  0.5798
   78MOL   C16640360   2.234   0.686   1.942  0.9651  0.1954  0.1432
   78MOL   C16740361   1.988   0.952   1.999  0.1165 -0.8102  0.0055
   78MOL   C16840362   2.119   1.015   2.019  0.9734  0.1589 -0.3975
   78MOL   C16940363   2.121   1.143   2.058  0.1092 -0.3650  0.5920
   78MOL   C17040364   2.004   1.220   2.063  0.6195  0.4114  0.5696
   78MOL   C17140365   1.876   1.163   2.053 -0.3880 -0.7486 -0.6164
   78MOL   C17240366   1.873   1.027   2.013  0.4606 -0.2669  0.1648
   78MOL   H17340367   2.340   1.052   2.200 -2.0700 -0.8838 -0.5221
   78MOL   H17440368   2.479   1.116   2.107 -1.6601  0.1479 -1.2069
   78MOL   H17540369   2.435   0.866   1.977  0.9439  0.1400  0.2642
   78MOL   H17640370   1.850   0.710   1.942  0.3643  2.5152 -0.8651
   78MOL   H17740371   1.962   0.487   1.915 -2.4930  1.3094 -1.8146
   78MOL   H17840372   2.220   0.481   1.902 -1.4731  0.5669 -1.4047
   78MOL   H17940373   2.342   0.681   1.947  0.8263 -3.6055  1.2650
   78MOL   H18040374   2.211   1.203   2.066  0.4450 -0.6122 -1.1436
   78MOL   H18140375   2.020   1.325   2.080  2.9703  0.2321 -0.3729
   78MOL   H18240376   1.785   1.220   2.065  0.9582  1.8384 -2.2893
   78MOL   H18340377   1.775   0.992   1.988 -0.3893  1.2668  1.2192
   78MOL   C18440378   2.397   1.035   1.862  0.1839 -0.3701  0.4573
   78MOL   C18540379   2.532   1.093   1.815  0.3393 -0.5697 -0.4719
   78MOL   N18640380   2.641   1.001   1.838  0.3288  0.0711  0.0927
   78MOL   C18740381   2.768   1.040   1.894  0.0237  0.8081  0.9967
   78MOL   C18840382   2.856   0.927   1.896  0.0775 -0.7586 -0.5471
   78MOL   C18940383   2.979   0.938   1.965 -0.5475  0.4860 -0.3802
   78MOL   C19040384   3.020   1.065   2.019  0.3340  0.5981  0.5727
   78MOL   C19140385   2.940   1.176   2.003  0.2512  0.0805 -0.2189
   78MOL   C19240386   2.813   1.168   1.942  0.3115  0.5081  0.3536
   78MOL   C19340387   2.784   0.822   1.828 -0.4945 -0.5552 -0.4790
   78MOL   C19440388   2.655   0.870   1.793 -0.0391  1.0354 -0.8010
   78MOL   C19540389   2.566   0.791   1.714 -0.2946  0.0401  0.3548
   78MOL   C19640390   2.602   0.658   1.676 -0.3202 -0.4087  0.7404
   78MOL   C19740391   2.724   0.608   1.729 -0.5804  0.2820  0.0824
   78MOL   C19840392   2.808   0.689   1.810  0.3989  0.1745 -0.2168
   78MOL   H19940393   2.360   0.978   1.777  0.8242 -0.6765  0.3873
   78MOL   H20040394   2.328   1.120   1.866  1.4738  0.7122  0.0217
   78MOL   H20140395   2.552   1.171   1.889  0.7594 -0.8551 -0.2807
   78MOL   H20240396   3.044   0.852   1.963  0.3660  1.1759 -0.7936
   78MOL   H20340397   3.120   1.069   2.058  0.3268 -0.3018  0.6870
   78MOL   H20440398   2.967   1.268   2.052 -3.5529  3.1120 -3.3922
   78MOL   H20540399   2.747   1.253   1.931 -2.1367 -1.7790 -3.5292
   78MOL   H20640400   2.478   0.833   1.669 -0.7441 -0.4253  0.7822
   78MOL   H20740401   2.527   0.610   1.616 -1.3727  0.9163  0.9496
   78MOL   H20840402   2.739   0.503   1.709  1.7064  0.9745 -2.1874
   78MOL   H20940403   2.903   0.645   1.835 -0.6270 -1.4564  0.9393
   78MOL   C21040404   2.527   1.144   1.670  0.4573 -0.0670 -0.4465
   78MOL   C21140405   2.449   1.271   1.641 -0.0925  0.7427  0.3077
   78MOL   N21240406   2.494   1.379   1.729  0.0658 -0.4208  0.1741
   78MOL   C21340407   2.426   1.440   1.835 -0.6367 -0.1644  0.1161
   78MOL   C21440408   2.512   1.531   1.907 -0.3555 -0.1699 -0.7222
   78MOL   C21540409   2.460   1.619   2.008  0.1752  0.7310  0.3967
   78MOL   C21640410   2.323   1.617   2.037  0.3490 -0.4572 -0.0895
   78MOL   C21740411   2.241   1.526   1.965 -0.1376  0.2860  0.5588
   78MOL   C21840412   2.293   1.433   1.873 -0.1353 -1.0199 -0.9307
   78MOL   C21940413   2.645   1.513   1.855 -0.0233 -0.8986 -0.2241
   78MOL   C22040414   2.626   1.428   1.738 -0.0063 -0.2588 -0.1065
   78MOL   C22140415   2.744   1.395   1.660 -0.8780  0.0871  0.2385
   78MOL   C22240416   2.873   1.437   1.700 -0.2290  0.6527  0.3181
   78MOL   C22340417   2.885   1.522   1.819 -0.0804 -0.8339  0.3841
   78MOL   C22440418   2.769   1.565   1.887  0.1735 -1.0236  0.1572
   78MOL   H22540419   2.632   1.152   1.640  0.9279  1.3352  1.4665
   78MOL   H22640420   2.484   1.063   1.612  1.0914 -0.3028 -0.5936
   78MOL   H22740421   2.348   1.252   1.678  0.4659  1.6579  2.3488
   78MOL   H22840422   2.518   1.692   2.063 -0.5177  0.3684  1.6266
   78MOL   H22940423   2.286   1.692   2.106 -0.4651  0.3102 -1.3352
   78MOL   H23040424   2.135   1.520   1.986 -0.1661 -0.6496  0.1779
   78MOL   H23140425   2.230   1.367   1.815 -0.5769 -1.0826 -0.3845
   78MOL   H23240426   2.733   1.340   1.568  0.8797  0.9369 -0.4899
   78MOL   H23340427   2.964   1.414   1.647  0.3466 -0.0438  1.5803
   78MOL   H23440428   2.985   1.538   1.854  0.4319 -0.5616 -1.1466
   78MOL   H23540429   2.768   1.630   1.973 -0.6554 -0.0860 -0.5380
   78MOL   C23640430   2.439   1.308   1.491 -0.6801 -0.0363  0.0537
   78MOL   C23740431   2.365   1.213   1.398  0.4766  0.8626  0.2511
   78MOL   N23840432   2.233   1.185   1.447  0.2152  0.3795  0.1169
   78MOL   C23940433   2.194   1.060   1.500 -0.0027  0.0006  0.0325
   78MOL   C24040434   2.060   1.078   1.559  0.2431  0.1487 -0.4278
   78MOL   C24140435   1.996   0.968   1.623  0.4809  0.3408 -0.2946
   78MOL   C24240436   2.060   0.837   1.627 -0.1476 -0.0736 -0.5761
   78MOL   C24340437   2.188   0.820   1.562 -0.4671 -0.2184 -0.6614
   78MOL   C24440438   2.252   0.929   1.501 -0.1027  0.0678  0.3231
   78MOL   C24540439   2.024   1.214   1.533  0.0176 -0.2917 -0.2794
   78MOL   C24640440   2.125   1.276   1.459  0.0986 -0.0796 -0.6144
   78MOL   C24740441   2.114   1.406   1.421  0.0321  0.0140  0.2346
   78MOL   C24840442   2.007   1.491   1.464 -0.5567  0.1277  0.1368
   78MOL   C24940443   1.900   1.432   1.525  0.0122  0.4763 -0.2071
   78MOL   C25040444   1.912   1.296   1.564 -0.6341 -0.3891 -0.9025
   78MOL   H25140445   2.390   1.405   1.486 -0.6478 -0.1012 -2.4714
   78MOL   H25240446   2.534   1.318   1.440 -2.0629  1.0739 -2.4318
   78MOL   H25340447   2.425   1.122   1.406 -0.3268  0.3698  0.7380
   78MOL   H25440448   1.897   0.983   1.665 -0.4426  0.7376 -2.5409
   78MOL   H25540449   2.011   0.758   1.680 -0.9839  0.4242 -0.5987
   78MOL   H25640450   2.226   0.719   1.569 -2.4375 -0.9799 -0.5876
   78MOL   H25740451   2.356   0.924   1.472 -0.0518 -2.7095  0.8746
   78MOL   H25840452   2.193   1.450   1.363  0.5562 -1.9358 -0.5548
   78MOL   H25940453   2.010   1.598   1.447 -2.2681 -0.2607 -2.9095
   78MOL   H26040454   1.817   1.498   1.546  1.7615  2.1597  1.7206
   78MOL   H26140455   1.831   1.256   1.624  0.8522 -0.2577  1.2619
   78MOL   C26240456   2.368   1.252   1.249 -0.1361 -0.4164  0.6048
   78MOL   C26340457   2.499   1.258   1.164  0.5170 -0.0636 -0.0588
   78MOL   N26440458   2.598   1.159   1.219 -0.1838 -0.4529 -0.2279
   78MOL   C26540459   2.724   1.189   1.275  0.0698 -0.7981 -0.1739
   78MOL   C26640460   2.781   1.075   1.330  0.3879 -0.2690  0.6032
   78MOL   C26740461   2.908   1.078   1.383  0.0663 -0.8417  0.3590
   78MOL   C26840462   2.975   1.199   1.402  0.3237 -0.2037 -0.7106
   78MOL   C26940463   2.923   1.316   1.347 -1.3274 -0.3051 -0.5151
   78MOL   C27040464   2.803   1.307   1.277  0.3505  0.0188 -0.1324
   78MOL   C27140465   2.690   0.961   1.301 -0.2666  0.1142 -0.0520
   78MOL   C27240466   2.579   1.023   1.237 -0.0218  0.0230  0.4860
   78MOL   C27340467   2.470   0.942   1.203 -0.7890 -0.6451  0.2205
   78MOL   C27440468   2.469   0.805   1.231 -0.2154 -0.3244  0.0956
   78MOL   C27540469   2.582   0.739   1.273  0.4525  0.3235 -0.1121
   78MOL   C27640470   2.690   0.817   1.321 -0.1047 -0.1252  0.0538
   78MOL   H27740471   2.290   1.195   1.199  0.1826  0.2318 -0.6727
   78MOL   H27840472   2.331   1.353   1.231  1.1493  0.2632  1.6903
   78MOL   H27940473   2.544   1.356   1.181 -1.1942  0.5337  1.1811
   78MOL   H28040474   2.951   0.986   1.421 -2.3540 -1.1104  2.5513
   78MOL   H28140475   3.063   1.197   1.464 -0.1930 -1.3596  0.0159
   78MOL   H28240476   2.970   1.413   1.356 -1.7627 -0.1663  0.3927
   78MOL   H28340477   2.770   1.401   1.236 -0.4521  0.4436  1.4876
   78MOL   H28440478   2.389   0.999   1.159 -0.3101  0.2550  0.4819
   78MOL   H28540479   2.374   0.754   1.220  0.0947 -0.6177 -1.3490
   78MOL   H28640480   2.585   0.633   1.291  0.7721  0.2617 -0.5206
   78MOL   H28740481   2.777   0.764   1.356 -0.5344 -0.8148  0.0854
   78MOL   C28840482   2.487   1.237   1.015  0.3077  0.1308 -0.2168
   78MOL   C28940483   2.398   1.344   0.952  0.1315  0.1076  0.2372
   78MOL   N29040484   2.448   1.480   0.970  0.2261 -0.4157  0.2215
   78MOL   C29140485   2.378   1.581   1.041  0.3478  0.2557  0.5409
   78MOL   C29240486   2.460   1.699   1.045 -0.4624  0.1013 -0.0999
   78MOL   C29340487   2.409   1.812   1.112 -0.4656 -0.0214  0.4651
   78MOL   C29440488   2.276   1.811   1.171 -0.0640  0.2589 -0.2817
   78MOL   C29540489   2.206   1.689   1.169 -0.3134  0.4231 -0.1551
   78MOL   C29640490   2.258   1.570   1.111  0.3138 -0.3221 -0.9035
   78MOL   C29740491   2.577   1.669   0.972  0.3261 -0.5929  0.5164
   78MOL   C29840492   2.569   1.538   0.923 -0.2917 -0.6868 -0.5718
   78MOL   C29940493   2.677   1.482   0.853  0.6187 -0.5957  0.4984
   78MOL   C30040494   2.784   1.563   0.811 -0.1073  0.2799  0.0200
   78MOL   C30140495   2.790   1.696   0.850 -0.2300 -0.4026 -0.1010
   78MOL   C30240496   2.687   1.751   0.932 -0.2869 -0.4638  0.3055
   78MOL   H30340497   2.585   1.218   0.972 -0.7023 -4.4864 -0.6919
   78MOL   H30440498   2.429   1.146   1.000  1.1735 -0.2065 -1.5934
   78MOL   H30540499   2.306   1.345   1.010 -0.0239 -0.4110  0.0009
   78MOL   H30640500   2.465   1.904   1.117 -0.5579  0.0230  0.6386
   78MOL   H30740501   2.234   1.906   1.199  1.2983  0.7171  0.2565
   78MOL   H30840502   2.109   1.682   1.216 -0.8693  1.1414 -1.1772
   78MOL   H30940503   2.196   1.481   1.107  0.5728 -0.5966  0.6764
   78MOL   H31040504   2.669   1.378   0.828  2.5788 -0.5738 -0.2608
   78MOL   H31140505   2.860   1.519   0.749  0.9264 -0.6568  1.8886
   78MOL   H31240506   2.875   1.760   0.833 -1.6283  2.2476  2.4427
   78MOL   H31340507   2.691   1.854   0.964 -1.0812 -0.4139  0.2654
   78MOL   C31440508   2.360   1.324   0.807  0.0849 -0.5793 -0.3896
   78MOL   C31540509   2.241   1.219   0.782 -0.5466 -0.0515  0.3054
   78MOL   N31640510   2.137   1.239   0.886  0.0974  0.5300  0.2292
   78MOL   C31740511   2.113   1.148   0.993  0.4196  0.5945 -0.0116
   78MOL   C31840512   2.003   1.202   1.071  0.3933  0.4385  0.3925
   78MOL   C31940513   1.964   1.140   1.185  0.3386  0.0155  0.8271
   78MOL   C32040514   2.012   1.014   1.217 -0.3933  0.2768 -0.1483
   78MOL   C32140515   2.113   0.957   1.139  0.3246 -0.0756  0.6523
   78MOL   C32240516   2.164   1.020   1.025 -0.3304  0.7091 -0.0805
   78MOL   C32340517   1.972   1.331   1.018  0.1345 -0.5010  1.1669
   78MOL   C32440518   2.054   1.349   0.905 -0.6586  0.1332 -0.7264
   78MOL   C32540519   2.048   1.465   0.828  0.0292 -0.5521 -0.4914
   78MOL   C32640520   1.961   1.568   0.863  0.7335  0.0762 -0.7353
   78MOL   C32740521   1.874   1.547   0.977 -1.1788 -0.6813 -0.8019
   78MOL   C32840522   1.875   1.429   1.050  0.4083  0.7142 -0.4365
   78MOL   H32940523   2.327   1.419   0.765  0.5548  0.7512  2.1531
   78MOL   H33040524   2.452   1.308   0.752 -0.7476 -0.9096 -1.7161
   78MOL   H33140525   2.285   1.122   0.804  0.4619 -0.1787 -2.1244
   78MOL   H33240526   1.899   1.196   1.251  1.5627  0.5032  1.6362
   78MOL   H33340527   1.977   0.967   1.308  0.4327 -1.5201 -0.7280
   78MOL   H33440528   2.151   0.859   1.166 -2.3095 -1.3816 -0.2333
   78MOL   H33540529   2.241   0.970   0.969 -2.7047 -0.2936 -2.5325
   78MOL   H33640530   2.105   1.477   0.737  0.8100  1.7810  0.2686
   78MOL   H33740531   1.957   1.651   0.795  2.3304  0.0824 -0.8415
   78MOL   H33840532   1.792   1.612   1.003 -1.3762 -1.3217  0.1756
   78MOL   H33940533   1.809   1.417   1.135  0.7485 -1.4728 -0.4524
   78MOL   C34040534   2.184   1.192   0.642  0.3891 -0.4236 -0.1049
   78MOL   C34140535   2.283   1.156   0.520  0.1934  0.3522 -0.4945
   78MOL   N34240536   2.429   1.143   0.551 -0.2460 -0.8980  0.6175
   78MOL   C34340537   2.537   1.222   0.512  0.1354  0.0032  0.5636
   78MOL   C34440538   2.658   1.171   0.560 -0.0616 -0.4517  0.0281
   78MOL   C34540539   2.785   1.232   0.522  0.1341  0.2893 -0.1779
   78MOL   C34640540   2.783   1.345   0.441  0.4281 -0.4522  0.2261
   78MOL   C34740541   2.662   1.398   0.398  0.5159 -0.1872 -0.5102
   78MOL   C34840542   2.540   1.339   0.430  0.1437 -0.3716 -0.6009
   78MOL   C34940543   2.624   1.063   0.650 -0.0338  0.5388  0.1312
   78MOL   C35040544   2.483   1.048   0.640  0.5125  0.0576  0.2040
   78MOL   C35140545   2.421   0.944   0.717 -0.3004 -0.0725 -0.3293
   78MOL   C35240546   2.493   0.856   0.798 -0.8539  0.4547  0.4057
   78MOL   C35340547   2.632   0.866   0.797 -0.2347 -0.1131 -0.3195
   78MOL   C35440548   2.698   0.970   0.723 -0.8536 -0.3411 -0.1416
   78MOL   H35540549   2.094   1.131   0.648 -0.0605  0.4204  2.5995
   78MOL   H35640550   2.128   1.280   0.612 -0.7672 -1.9598 -2.5764
   78MOL   H35740551   2.270   1.238   0.449  0.0741 -0.2885 -1.2168
   78MOL   H35840552   2.878   1.196   0.562  0.8157  0.7392 -1.3552
   78MOL   H35940553   2.869   1.408   0.422 -0.4089  0.4139 -0.8232
   78MOL   H36040554   2.657   1.495   0.350 -0.3738 -0.3151 -0.6920
   78MOL   H36140555   2.438   1.365   0.407 -0.2616 -1.8975 -0.6155
   78MOL   H36240556   2.315   0.927   0.724 -0.2095  0.1689  2.0302
   78MOL   H36340557   2.454   0.770   0.851  2.0071 -0.6078  0.8569
   78MOL   H36440558   2.681   0.790   0.855 -0.5638 -1.3489 -1.6270
   78MOL   H36540559   2.806   0.978   0.717 -0.8485 -0.6347 -0.4185
   78MOL   C36640560   2.226   1.029   0.457  0.1872 -0.0904  1.0548
   78MOL   C36740561   2.322   0.946   0.361  0.4752 -0.2077 -0.2631
   78MOL   N36840562   2.275   0.800   0.363 -0.6095 -0.1170 -0.7963
   78MOL   C36940563   2.351   0.699   0.420 -0.5276  0.0925  0.1643
   78MOL   C37040564   2.275   0.583   0.423 -0.0790  0.3804 -0.2906
   78MOL   C37140565   2.329   0.464   0.483  0.7243  0.4476  0.2099
   78MOL   C37240566   2.454   0.466   0.540 -0.1897  0.0656 -0.0801
   78MOL   C37340567   2.532   0.584   0.535  0.0800 -0.4340  0.2024
   78MOL   C37440568   2.477   0.700   0.479 -0.0256 -0.0484  0.0206
   78MOL   C37540569   2.150   0.607   0.372 -0.0215 -0.0866 -0.0962
   78MOL   C37640570   2.149   0.747   0.336  0.1540  0.2074  0.5531
   78MOL   C37740571   2.027   0.807   0.290 -0.2811  0.0321 -0.4082
   78MOL   C37840572   1.918   0.724   0.263  0.5243  0.1641 -0.1185
   78MOL   C37940573   1.923   0.585   0.292 -1.1333  0.6212 -0.0409
   78MOL   C38040574   2.038   0.532   0.351 -0.1271 -0.6362  0.4194
   78MOL   H38140575   2.193   0.961   0.536 -2.1677 -0.0025  0.1922
   78MOL   H38240576   2.133   1.050   0.404  0.2090  0.0687  1.0802
   78MOL   H38340577   2.426   0.943   0.393 -0.2734 -2.3574  2.1003
   78MOL   H38440578   2.261   0.380   0.494 -0.3493  0.6196 -4.3440
   78MOL   H38540579   2.489   0.375   0.586 -0.4168 -0.6072 -1.2069
   78MOL   H38640580   2.629   0.579   0.582  0.5772 -0.4735 -0.8039
   78MOL   H38740581   2.538   0.789   0.471  1.7662 -1.4280 -2.0238
   78MOL   H38840582   2.021   0.908   0.252 -2.3115  0.8861  1.9895
   78MOL   H38940583   1.822   0.753   0.224  0.2922 -0.2100  0.1727
   78MOL   H39040584   1.832   0.529   0.280  0.2820 -1.7363 -0.1326
   78MOL   H39140585   2.037   0.427   0.380 -0.7998 -0.7809 -0.1187
   78MOL   C39240586   2.317   0.997   0.216  0.0211  0.3796  0.8820
   78MOL   C39340587   2.445   0.980   0.122  0.4368  0.0401 -0.0557
   78MOL   N39440588   2.483   0.842   0.121 -0.2142 -0.5555 -0.0550
   78MOL   C39540589   2.610   0.792   0.163  0.0088 -0.2148  0.2656
   78MOL   C39640590   2.608   0.649   0.150 -0.7258 -0.1957 -0.0654
   78MOL   C39740591   2.721   0.578   0.198  0.2956 -0.1181  0.4623
   78MOL   C39840592   2.835   0.645   0.254  0.4163  0.1143 -0.3397
   78MOL   C39940593   2.830   0.782   0.271  0.0174 -0.8579  0.5456
   78MOL   C40040594   2.722   0.852   0.222 -0.8458 -0.8440  0.3878
   78MOL   C40140595   2.492   0.612   0.086 -0.3001 -0.5845 -0.2869
   78MOL   C40240596   2.415   0.728   0.067 -0.1839  0.2929 -0.2971
   78MOL   C40340597   2.283   0.722   0.012  0.7027 -0.0168  0.1400
   78MOL   C40440598   2.226   0.597   8.214  0.9911  0.1467 -0.1016
   78MOL   C40540599   2.302   0.484   0.010 -0.1188 -0.2027  0.4442
   78MOL   C40640600   2.436   0.495   0.044 -0.2051  0.0908 -0.1894
   78MOL   H40740601   2.226   0.955   0.173  0.9757 -0.4861 -0.3378
   78MOL   H40840602   2.308   1.105   0.210  2.1682  0.6139  1.2860
   78MOL   H40940603   2.517   1.036   0.182  0.9994 -2.6497  1.9202
   78MOL   H41040604   2.735   0.471   0.203  0.5034 -0.2822 -2.6578
   78MOL   H41140605   2.927   0.596   0.282  0.2328  0.5218  1.0103
   78MOL   H41240606   2.916   0.836   0.308  0.6572 -0.9993 -0.6905
   78MOL   H41340607   2.728   0.959   0.241  0.8985 -0.9241  0.3586
   78MOL   H41440608   2.220   0.808   8.222  0.5419 -0.0449  0.5962
   78MOL   H41540609   2.124   0.593   8.179  0.9374  0.5206  0.0129
   78MOL   H41640610   2.257   0.387   8.227  0.4528 -0.3729 -0.5593
   78MOL   H41740611   2.496   0.405   0.043 -2.3457 -1.3642 -0.6463
   78MOL   C41840612   2.436   1.044   8.202 -0.2225  0.0443 -0.8548
   78MOL   C41940613   2.520   0.980   8.094 -0.4243  0.2284 -0.5722
   78MOL   N42040614   2.462   1.008   7.967  0.0202 -0.4380  0.7654
   78MOL   C42140615   2.409   0.912   7.871 -0.3365 -0.0871 -0.1602
   78MOL   C42240616   2.375   0.983   7.750  0.3144 -0.1851 -0.2095
   78MOL   C42340617   2.320   0.913   7.638  0.6866  0.1084 -0.7588
   78MOL   C42440618   2.300   0.775   7.658  0.5041 -0.1026 -0.0785
   78MOL   C42540619   2.328   0.696   7.773 -0.8178 -0.2194  0.0272
   78MOL   C42640620   2.375   0.775   7.884  0.2831 -0.1023  0.2370
   78MOL   C42740621   2.410   1.116   7.765  0.7741  0.3323 -0.1942
   78MOL   C42840622   2.449   1.134   7.903 -0.0330  0.0176  0.7969
   78MOL   C42940623   2.468   1.266   7.951 -0.5930  0.0984  0.1274
   78MOL   C43040624   2.456   1.379   7.868  0.0884 -0.0816  0.2105
   78MOL   C43140625   2.417   1.362   7.732 -1.2178 -0.4099  0.7905
   78MOL   C43240626   2.396   1.229   7.682 -0.1783  0.4186  0.4165
   78MOL   H43340627   2.334   1.034   8.166  0.4110 -1.1504 -2.3928
   78MOL   H43440628   2.461   1.150   8.205  1.8324 -0.4482  0.5122
   78MOL   H43540629   2.516   0.872   8.108 -0.1989  0.5950  2.7193
   78MOL   H43640630   2.319   0.954   7.539 -2.1272 -0.9517 -1.2050
   78MOL   H43740631   2.265   0.729   7.567 -1.0027  0.3171  0.2720
   78MOL   H43840632   2.314   0.589   7.764  0.9412 -0.3977 -0.5898
   78MOL   H43940633   2.385   0.727   7.980 -2.9782  1.2001  1.2758
   78MOL   H44040634   2.515   1.293   8.045 -0.4719  0.2927  0.0120
   78MOL   H44140635   2.472   1.474   7.916 -2.2971  1.1468 -1.3600
   78MOL   H44240636   2.411   1.437   7.655  0.6699 -0.2632  0.7512
   78MOL   H44340637   2.368   1.208   7.579  1.9970  1.4255 -0.4136
   78MOL   C44440638   2.676   1.015   8.104  0.0384 -0.3415 -0.0017
   78MOL   C44540639   2.774   0.908   8.050 -0.3595 -0.3254 -0.8615
   78MOL   N44640640   2.740   0.855   7.919  0.2567  0.5899  0.5368
   78MOL   C44740641   2.706   0.720   7.897  0.1139 -0.0789 -0.0392
   78MOL   C44840642   2.680   0.705   7.759  0.3245 -0.1347  0.4209
   78MOL   C44940643   2.640   0.575   7.714 -0.0624 -0.2074 -0.3265
   78MOL   C45040644   2.627   0.463   7.800  0.2660 -0.0351  0.7874
   78MOL   C45140645   2.654   0.481   7.939 -0.6195  0.4446  0.4253
   78MOL   C45240646   2.692   0.612   7.982 -0.9472 -0.2724  0.2699
   78MOL   C45340647   2.706   0.832   7.698 -0.3402  0.0078  0.8678
   78MOL   C45440648   2.750   0.922   7.801  0.2321  0.1830 -0.3405
   78MOL   C45540649   2.792   1.053   7.761 -0.0378  0.3118  0.0309
   78MOL   C45640650   2.796   1.095   7.631  0.2302  0.0192 -0.1881
   78MOL   C45740651   2.756   1.006   7.534  0.2555 -0.0497  0.3861
   78MOL   C45840652   2.702   0.879   7.561  0.1146  0.1099  0.2428
   78MOL   H45940653   2.690   1.110   8.053  0.5140 -0.5912 -0.3405
   78MOL   H46040654   2.704   1.028   8.208 -0.4912 -2.7202  0.4588
   78MOL   H46140655   2.769   0.826   8.121 -2.7634 -1.6754 -2.5168
   78MOL   H46240656   2.615   0.560   7.610 -0.0756 -0.4109 -0.2935
   78MOL   H46340657   2.575   0.378   7.759 -0.1088 -0.2188  1.6309
   78MOL   H46440658   2.635   0.402   8.009 -1.2443 -0.2959 -0.5738
   78MOL   H46540659   2.699   0.629   8.088 -0.5824  1.8583 -0.0825
   78MOL   H46640660   2.812   1.136   7.827 -0.5136 -0.8605  1.7022
   78MOL   H46740661   2.829   1.191   7.595 -2.4338  0.5841 -1.2361
   78MOL   H46840662   2.774   1.043   7.434  0.3778 -0.6387  0.1847
   78MOL   H46940663   2.677   0.808   7.484 -1.0052  1.8299 -1.0279
   78MOL   C47040664   2.924   0.955   8.066  0.5610 -0.0734  0.1742
   78MOL   C47140665   3.025   0.851   8.009 -0.7679 -0.3651 -0.0924
   78MOL   N47240666   3.138   0.912   7.931  0.2872 -0.3670  0.4043
   78MOL   C47340667   3.151   0.908   7.793  0.0621  0.0713  0.2883
   78MOL   C47440668   3.263   0.988   7.749  0.1650 -0.3708  0.2878
   78MOL   C47540669   3.287   1.002   7.612 -0.4284 -0.9184  0.7869
   78MOL   C47640670   3.211   0.935   7.521  0.8889  0.1591  0.0795
   78MOL   C47740671   3.104   0.848   7.565  0.2248 -0.3831  0.0062
   78MOL   C47840672   3.072   0.838   7.696 -0.1453 -0.3368 -0.3934
   78MOL   C47940673   3.328   1.031   7.868 -0.7968 -0.0863 -0.0475
   78MOL   C48040674   3.251   0.985   7.980  0.1826 -0.1593 -0.4384
   78MOL   C48140675   3.303   1.011   8.113  0.5093  0.3692  0.0610
   78MOL   C48240676   3.412   1.094   8.127  0.7206 -0.0683 -0.5280
   78MOL   C48340677   3.482   1.147   8.021  0.1519  0.0888  0.2303
   78MOL   C48440678   3.440   1.115   7.887 -0.4163 -0.2943 -0.4325
   78MOL   H48540679   2.942   1.047   8.010  0.4782  0.0120  0.2889
   78MOL   H48640680   2.942   0.966   8.173  2.5445  1.4527 -0.2958
   78MOL   H48740681   2.980   0.789   7.931  1.1750 -1.4595 -0.3886
   78MOL   H48840682   3.362   1.072   7.578 -1.8702  0.8004  1.0807
   78MOL   H48940683   3.227   0.933   7.414  0.3932 -2.2646  0.0366
   78MOL   H49040684   3.041   0.793   7.497 -3.2934  0.4440  2.4698
   78MOL   H49140685   2.986   0.779   7.723 -1.4821  2.1633  1.0658
   78MOL   H49240686   3.241   0.973   8.193 -0.6018  0.7513 -0.6027
   78MOL   H49340687   3.447   1.113   8.227 -1.7865  0.6575  0.2439
   78MOL   H49440688   3.560   1.221   8.030 -0.8771  1.1881  0.2408
   78MOL   H49540689   3.492   1.166   7.807  1.0007  0.5278  0.9941
   78MOL   C49640690   3.060   0.739   8.115 -0.4229  0.4370 -0.7755
   78MOL   C49740691   3.087   0.601   8.057  0.0552 -0.2175  0.0091
   78MOL   N49840692   3.161   0.523   8.147  0.0899  0.0781 -0.2887
   78MOL   C49940693   3.106   0.411   8.220  0.6832 -0.6149  1.1266
   78MOL   C50040694   3.215   0.350   0.062 -1.1075  0.4470  0.5716
   78MOL   C50140695   3.189   0.233   0.134  0.2931  0.0822 -0.2318
   78MOL   C50240696   3.064   0.179   0.144  0.3650 -0.0483  0.2501
   78MOL   C50340697   2.957   0.243   0.083  0.0715  0.0597  0.4946
   78MOL   C50440698   2.976   0.361   0.010 -0.5921 -1.2956  0.5422
   78MOL   C50540699   3.332   0.425   0.036  0.0320  0.1962 -0.1087
   78MOL   C50640700   3.292   0.531   8.178  0.2974  0.2506  0.5096
   78MOL   C50740701   3.376   0.627   8.122  0.2319  0.1506  0.5602
   78MOL   C50840702   3.509   0.630   8.159  1.0579  0.1812 -0.1259
   78MOL   C50940703   3.559   0.519   0.010  0.8040  0.0811 -0.0851
   78MOL   C51040704   3.471   0.427   0.062  0.4117  0.3315  0.0613
   78MOL   H51140705   3.134   0.764   8.190 -1.8350 -0.4472  0.9670
   78MOL   H51240706   2.967   0.727   8.171  0.9450  0.8784  1.6430
   78MOL   H51340707   3.160   0.617   7.977 -0.2622 -0.4364 -0.3269
   78MOL   H51440708   3.279   0.191   0.178  2.2043 -0.1939 -4.1604
   78MOL   H51540709   3.046   0.086   0.195  0.0544  1.2734  2.6268
   78MOL   H51640710   2.857   0.210   0.103 -0.6791  2.8621  1.6643
   78MOL   H51740711   2.886   0.401   8.192 -1.5194 -3.9460 -0.0240
   78MOL   H51840712   3.332   0.704   8.060 -0.9136 -2.1496 -1.5907
   78MOL   H51940713   3.578   0.700   8.115 -0.4805  3.4992  2.5319
   78MOL   H52040714   3.664   0.521   0.037  0.6983 -0.1328  0.3506
   78MOL   H52140715   3.516   0.367   0.139  1.0243  0.1589 -0.4318
   78MOL   H52240716   3.004   0.543   8.017 -1.0112  0.7563  0.7700
   79MOL     C140717   6.858   0.528   5.863  0.2176 -0.5460  0.3943
   79MOL     C240718   6.979   0.617   5.866  0.4868  0.3612  0.4205
   79MOL     N340719   7.020   0.665   5.992  0.3085  0.7623 -0.2699
   79MOL     C440720   7.032   0.799   6.027 -0.2249  0.2464 -0.0966
   79MOL     C540721   7.084   0.807   6.160  0.2616 -0.3327  0.5802
   79MOL     C640722   7.109   0.929   6.212  0.4986  0.2695 -0.6914
   79MOL     C740723   7.110   1.044   6.130  0.2639 -0.2214 -0.3957
   79MOL     C840724   7.057   1.042   6.003  0.0519  0.4400 -0.0304
   79MOL     C940725   7.022   0.916   5.949 -0.1970 -0.1364  0.4537
   79MOL    C1040726   7.094   0.671   6.210 -0.9302  0.6242  0.3136
   79MOL    C1140727   7.059   0.591   6.100  0.0840  0.0680  0.0156
   79MOL    C1240728   7.067   0.450   6.114  0.1432 -0.3464  0.3699
   79MOL    C1340729   7.111   0.393   6.237  0.2067  0.4947  0.9441
   79MOL    C1440730   7.149   0.473   6.344  0.7019 -0.5622 -0.7010
   79MOL    C1540731   7.131   0.614   6.332  0.0965 -0.9388  0.0552
   79MOL    H1640732   6.770   0.578   5.904  0.2684 -0.5681  0.5298
   79MOL    H1740733   6.871   0.443   5.930  3.6049 -0.0529  0.4292
   79MOL    H1840734   6.963   0.706   5.804  2.3642  1.5630  1.6014
   79MOL    H1940735   7.139   0.932   6.316  1.7430  0.0095 -1.0405
   79MOL    H2040736   7.143   1.136   6.176 -1.0594  0.3769 -0.6074
   79MOL    H2140737   7.057   1.128   5.938  0.0449  0.6637  0.2682
   79MOL    H2240738   6.991   0.918   5.846 -0.1812  2.3531  0.4649
   79MOL    H2340739   7.037   0.393   6.028 -0.1702 -2.1471  1.6467
   79MOL    H2440740   7.119   0.285   6.236  0.4266  0.5143 -0.9359
   79MOL    H2540741   7.193   0.443   6.438 -0.1101  0.5647  0.0675
   79MOL    H2640742   7.149   0.679   6.416  2.8963 -1.0065 -0.4655
   79MOL    H2740743   6.829   0.508   5.759  0.1664  0.0562  0.2933
   79MOL    C2840744   7.102   0.545   5.803  0.2534  0.3173 -0.7796
   79MOL    C2940745   7.094   0.495   5.659  0.5261 -0.2539 -0.5374
   79MOL    N3040746   7.028   0.581   5.560  0.0774  0.4387 -0.3442
   79MOL    C3140747   6.944   0.534   5.459  0.4655 -0.6319 -0.2465
   79MOL    C3240748   6.910   0.651   5.376  1.3575  1.2390 -0.8832
   79MOL    C3340749   6.836   0.632   5.254 -0.0803  0.4072 -0.6563
   79MOL    C3440750   6.797   0.501   5.223  0.6900 -0.6124  0.1022
   79MOL    C3540751   6.834   0.394   5.300 -0.4836  0.0104 -0.3807
   79MOL    C3640752   6.905   0.406   5.423 -0.4585 -0.1265 -0.2707
   79MOL    C3740753   6.970   0.769   5.438 -0.0309 -0.5291  0.3592
   79MOL    C3840754   7.056   0.720   5.539  0.0433  0.0094 -0.3171
   79MOL    C3940755   7.145   0.809   5.604  0.6166  0.3245 -0.1164
   79MOL    C4040756   7.155   0.942   5.565 -0.0954  0.6657  0.4073
   79MOL    C4140757   7.062   0.989   5.468  0.2458 -0.4530  0.0417
   79MOL    C4240758   6.977   0.904   5.402 -0.1697  0.0580 -0.7368
   79MOL    H4340759   7.188   0.613   5.812 -0.1993  1.0374 -1.7470
   79MOL    H4440760   7.124   0.456   5.861  2.0091  0.7763 -0.7044
   79MOL    H4540761   7.032   0.406   5.676 -0.4602  0.4820 -0.2275
   79MOL    H4640762   6.806   0.712   5.189 -2.4689  4.0164  4.5721
   79MOL    H4740763   6.746   0.474   5.132  1.4442  0.5042 -0.6629
   79MOL    H4840764   6.806   0.295   5.266 -0.1253  0.2966 -1.5304
   79MOL    H4940765   6.932   0.319   5.481 -0.0520 -0.4866 -1.0052
   79MOL    H5040766   7.209   0.777   5.684  0.8795  0.8039 -0.1314
   79MOL    H5140767   7.220   1.008   5.620 -0.5148  3.0208 -1.8395
   79MOL    H5240768   7.072   1.090   5.430  1.4496  0.2340  2.1155
   79MOL    H5340769   6.916   0.937   5.319  1.5154  1.6881 -1.3475
   79MOL    C5440770   7.236   0.451   5.608 -0.7694 -0.1412  0.1564
   79MOL    C5540771   7.293   0.315   5.667  0.0519 -0.4312 -0.2260
   79MOL    N5640772   7.202   0.204   5.646 -0.4086  0.4660 -0.0207
   79MOL    C5740773   7.144   0.135   5.756 -0.8022 -0.3159 -0.0327
   79MOL    C5840774   7.069   0.024   5.705 -0.3370 -0.6156  0.4126
   79MOL    C5940775   7.003   8.171   5.795  0.4234  0.8019 -0.3754
   79MOL    C6040776   7.006   8.193   5.934  0.3703  0.8195  0.3212
   79MOL    C6140777   7.071   0.077   5.980  0.1208  0.0202  0.6168
   79MOL    C6240778   7.147   0.159   5.895  1.0408 -0.0526  0.2393
   79MOL    C6340779   7.080   0.027   5.563 -0.6263 -0.8469  0.0290
   79MOL    C6440780   7.158   0.138   5.531  0.6669 -0.3060  0.6952
   79MOL    C6540781   7.195   0.164   5.399 -0.6442 -0.0672  0.7358
   79MOL    C6640782   7.144   0.087   5.293 -0.1021  0.4370 -0.5632
   79MOL    C6740783   7.061   8.210   5.328 -0.0345  1.4889  0.2326
   79MOL    C6840784   7.029   8.174   5.459 -0.2611  0.2717 -0.0654
   79MOL    H6940785   7.228   0.438   5.500 -1.4519 -1.9381  0.4075
   79MOL    H7040786   7.304   0.533   5.631  0.7942 -1.4256  0.1975
   79MOL    H7140787   7.302   0.336   5.774 -0.4369  0.5225 -0.3698
   79MOL    H7240788   6.954   8.087   5.750 -0.0954 -0.0983  1.8063
   79MOL    H7340789   6.941   8.133   5.996 -0.2389 -0.2633 -1.3227
   79MOL    H7440790   7.069   0.099   6.086 -2.4494  0.7313  0.4668
   79MOL    H7540791   7.200   0.245   5.934 -1.2081  1.1134  0.7926
   79MOL    H7640792   7.258   0.248   5.376  1.6061 -2.1467 -1.0156
   79MOL    H7740793   7.149   0.114   5.189  0.7834 -0.6338 -0.8040
   79MOL    H7840794   7.016   8.145   5.254  1.2185 -1.3763  1.9038
   79MOL    H7940795   6.963   8.091   5.482 -2.5892  1.7040 -1.3413
   79MOL    C8040796   7.441   0.283   5.637  0.1827  0.1345  0.0178
   79MOL    C8140797   7.551   0.381   5.680  0.4616 -0.6209 -0.2994
   79MOL    N8240798   7.520   0.442   5.805 -0.7530 -0.1047  0.2720
   79MOL    C8340799   7.497   0.577   5.830 -0.0501  0.2117  0.2175
   79MOL    C8440800   7.468   0.601   5.967 -0.5252 -0.3518  0.2236
   79MOL    C8540801   7.411   0.732   5.994 -0.9792  0.6095  0.7052
   79MOL    C8640802   7.400   0.831   5.898  0.4145  0.3131 -0.8261
   79MOL    C8740803   7.455   0.813   5.769 -0.3272 -0.2430 -0.0849
   79MOL    C8840804   7.499   0.685   5.733  0.4905  0.2991  0.2390
   79MOL    C8940805   7.496   0.478   6.031  0.7335  0.2178  0.2991
   79MOL    C9040806   7.524   0.383   5.929 -0.2224 -0.4976  0.1358
   79MOL    C9140807   7.542   0.247   5.973  0.9653 -0.2244 -0.0535
   79MOL    C9240808   7.533   0.213   6.109 -0.3940  0.2981 -0.0667
   79MOL    C9340809   7.521   0.310   6.207 -0.0739  0.8557 -0.2327
   79MOL    C9440810   7.488   0.442   6.170 -0.6340 -0.2543 -0.2714
   79MOL    H9540811   7.464   0.184   5.676  0.1993 -0.5664 -1.7277
   79MOL    H9640812   7.441   0.254   5.532 -1.3534  1.8290 -0.4759
   79MOL    H9740813   7.547   0.461   5.605 -0.2953  0.0131  0.4063
   79MOL    H9840814   7.390   0.749   6.099  2.2367  1.4812  1.2551
   79MOL    H9940815   7.362   0.930   5.921 -0.5542 -0.2219 -0.1082
   79MOL   H10040816   7.452   0.888   5.692  1.1255  0.1927  0.2695
   79MOL   H10140817   7.522   0.658   5.631  0.4387  0.0523  0.2931
   79MOL   H10240818   7.549   0.170   5.898  0.5829  0.2751 -0.6103
   79MOL   H10340819   7.538   0.106   6.124 -2.9937  0.2991  1.0708
   79MOL   H10440820   7.529   0.287   6.313  1.8461  1.1082 -0.3067
   79MOL   H10540821   7.480   0.516   6.248 -1.3351 -0.8720  0.2533
   79MOL   C10640822   7.701   0.342   5.667 -0.0036  0.4615  0.5928
   79MOL   C10740823   7.749   0.270   5.541 -0.9322  0.0875 -0.0236
   79MOL   N10840824   7.696   0.336   5.429  1.2891  0.2961 -0.1710
   79MOL   C10940825   7.616   0.286   5.324 -1.0888 -0.2678  0.3460
   79MOL   C11040826   7.585   0.393   5.233 -1.2680 -0.3775  0.7318
   79MOL   C11140827   7.520   0.359   5.110 -0.4863  0.2348  0.4425
   79MOL   C11240828   7.466   0.233   5.097 -0.0161 -0.1508  0.5049
   79MOL   C11340829   7.488   0.129   5.193 -0.7310 -0.1728  0.9458
   79MOL   C11440830   7.573   0.155   5.305  0.3939 -0.1397  0.2602
   79MOL   C11540831   7.646   0.509   5.277  0.4447 -0.0464  0.5617
   79MOL   C11640832   7.724   0.470   5.397 -0.2736  0.1337  0.2987
   79MOL   C11740833   7.803   0.570   5.463  0.2500  0.2107 -0.2879
   79MOL   C11840834   7.815   0.697   5.411 -0.5964  0.9798  0.9164
   79MOL   C11940835   7.751   0.731   5.289  0.5981  0.5336 -1.0029
   79MOL   C12040836   7.670   0.640   5.222 -0.1764  0.5169 -0.0151
   79MOL   H12140837   7.759   0.430   5.695  0.0471  0.3490  0.8491
   79MOL   H12240838   7.723   0.270   5.747 -0.2122 -0.5165 -0.2176
   79MOL   H12340839   7.706   0.170   5.541 -2.0970  0.5872  0.8042
   79MOL   H12440840   7.512   0.438   5.037 -1.2871 -0.9499 -0.7670
   79MOL   H12540841   7.403   0.213   5.011 -0.2253  0.2403  0.5706
   79MOL   H12640842   7.449   0.029   5.186 -1.8097 -0.1335  4.7802
   79MOL   H12740843   7.593   0.084   5.384 -2.6536 -0.2318  1.0085
   79MOL   H12840844   7.847   0.563   5.561 -0.4802  0.2464  0.0470
   79MOL   H12940845   7.856   0.777   5.470  2.0086 -0.5430  1.2422
   79MOL   H13040846   7.764   0.829   5.246 -0.8654  0.7364 -0.9807
   79MOL   H13140847   7.616   0.674   5.135 -1.6639 -2.6384 -0.4114
   79MOL   C13240848   7.900   0.259   5.525 -0.1181 -0.3626 -0.1916
   79MOL   C13340849   7.980   0.155   5.605  0.2003  0.0907 -0.3261
   79MOL   N13440850   7.923   0.018   5.602 -0.0945  0.5435 -0.2388
   79MOL   C13540851   7.905   8.160   5.715  0.2458 -0.0098  0.0666
   79MOL   C13640852   7.830   8.046   5.677  1.0675  0.0900 -0.2031
   79MOL   C13740853   7.794   7.959   5.781  0.4674 -0.8370 -0.0638
   79MOL   C13840854   7.840   7.976   5.912 -0.5444  0.8383  0.2112
   79MOL   C13940855   7.907   8.090   5.950 -0.4649  0.3072  0.0685
   79MOL   C14040856   7.945   8.183   5.850 -0.4159  0.1184 -0.0273
   79MOL   C14140857   7.807   8.048   5.536  0.1883  0.1681 -0.5524
   79MOL   C14240858   7.871   8.172   5.489  0.2819 -0.3082 -0.8402
   79MOL   C14340859   7.869   8.205   5.352 -0.3793  0.4294 -0.0776
   79MOL   C14440860   7.811   8.117   5.261  0.3473 -0.1193 -0.0334
   79MOL   C14540861   7.750   8.000   5.299  0.4828 -0.2519  0.3218
   79MOL   C14640862   7.752   7.966   5.434  0.5885  0.1320 -0.1926
   79MOL   H14740863   7.919   0.252   5.418  1.0537  0.6150 -0.0566
   79MOL   H14840864   7.940   0.351   5.567  1.5023 -1.9754  1.9167
   79MOL   H14940865   7.978   0.187   5.709 -0.6158  2.1367 -0.9378
   79MOL   H15040866   7.726   7.878   5.761  0.6207 -0.8487 -0.5376
   79MOL   H15140867   7.806   7.905   5.986 -1.8900  1.0992 -0.1362
   79MOL   H15240868   7.933   8.098   6.054 -0.2829 -0.7249  0.1131
   79MOL   H15340869   8.009   0.037   5.881  1.5752 -1.3217 -0.2617
   79MOL   H15440870   7.906   0.068   5.305  1.1251  0.6731  1.5373
   79MOL   H15540871   7.811   8.133   5.154 -1.1925 -2.5909 -0.4539
   79MOL   H15640872   7.707   7.936   5.223  2.6582 -0.1866 -0.9959
   79MOL   H15740873   7.711   7.871   5.465  1.8641  0.6506  3.2415
   79MOL   C15840874   8.132   0.154   5.577  0.5664 -0.5412 -0.4846
   79MOL   C15940875   8.196   0.294   5.587 -0.0388 -0.1696  0.3340
   79MOL   N16040876   8.166   0.367   5.715  1.1353 -0.2326  0.2051
   79MOL   C16140877   8.118   0.499   5.722  0.2032 -0.1251 -0.1972
   79MOL   C16240878   8.085   0.526   5.857 -0.5912  0.2096 -0.0159
   79MOL   C16340879   8.028   0.649   5.893  0.4680 -0.4089 -0.2673
   79MOL   C16440880   7.990   0.746   5.796 -0.5180 -0.4168 -0.0364
   79MOL   C16540881   8.032   0.723   5.661  0.1061  0.0785  0.4031
   79MOL   C16640882   8.090   0.599   5.621  0.2762  0.0385 -1.0433
   79MOL   C16740883   8.131   0.414   5.936 -0.0723 -0.5128  0.4449
   79MOL   C16840884   8.184   0.325   5.847 -0.0099  0.8761  0.7590
   79MOL   C16940885   0.030   0.213   5.901  0.1610  0.1728  0.3226
   79MOL   C17040886   0.029   0.188   6.040  0.2831  0.7076  0.1786
   79MOL   C17140887   8.203   0.283   6.130  0.5880  0.5963 -0.0694
   79MOL   C17240888   8.138   0.399   6.077 -0.0215  0.2661 -0.1665
   79MOL   H17340889   8.180   0.099   5.658  1.0166 -1.9223 -1.6728
   79MOL   H17440890   8.147   0.107   5.480 -1.2801  1.5242 -1.8247
   79MOL   H17540891   8.138   0.346   5.510 -0.1299  0.6877  0.9768
   79MOL   H17640892   8.003   0.664   5.997  0.0604 -1.0427 -0.2750
   79MOL   H17740893   7.946   0.843   5.817  0.1399 -0.0996 -0.0838
   79MOL   H17840894   8.010   0.795   5.584 -0.4132 -1.8859 -1.3279
   79MOL   H17940895   8.118   0.581   5.518  2.1619 -0.1804 -0.5008
   79MOL   H18040896   0.067   0.147   5.824  0.9097 -1.9328  2.4294
   79MOL   H18140897   0.083   0.105   6.082 -4.3201 -2.9640 -0.7333
   79MOL   H18240898   8.206   0.276   6.238 -0.3660 -0.5936 -0.1121
   79MOL   H18340899   8.105   0.478   6.142 -0.5789 -0.2974  0.2361
   79MOL   C18440900   0.124   0.297   5.559  0.6892  0.0553 -0.2964
   79MOL   C18540901   0.166   0.240   5.423 -0.1429  0.2216 -0.2367
   79MOL   N18640902   0.078   0.270   5.307 -0.0860 -0.2667  0.0991
   79MOL   C18740903   0.017   0.174   5.223 -0.0281  0.3845 -0.8095
   79MOL   C18840904   8.166   0.238   5.124  0.2911  0.2155  0.1982
   79MOL   C18940905   8.100   0.154   5.028 -0.3463 -0.8299  0.1044
   79MOL   C19040906   8.096   0.012   5.043  0.7514 -0.4253 -0.2534
   79MOL   C19140907   8.182   8.179   5.140  0.0308 -0.2421 -0.3847
   79MOL   C19240908   0.026   0.034   5.229 -0.1097  0.7116  0.4497
   79MOL   C19340909   8.179   0.382   5.144 -0.3625 -0.2726  0.4248
   79MOL   C19440910   0.031   0.396   5.262 -0.0941 -0.0538 -0.2106
   79MOL   C19540911   0.058   0.526   5.304 -0.0237  0.8100 -0.6767
   79MOL   C19640912   0.021   0.640   5.237 -0.3158  0.0166  0.9223
   79MOL   C19740913   8.170   0.624   5.123 -0.2752 -0.0713 -0.0575
   79MOL   C19840914   8.132   0.497   5.080  0.2521 -0.2335 -0.1175
   79MOL   H19940915   0.169   0.395   5.578 -0.7005  0.4053  1.3414
   79MOL   H20040916   0.174   0.240   5.637  2.7717 -0.3804 -1.8893
   79MOL   H20140917   0.164   0.132   5.434 -1.5848  0.2927  0.1963
   79MOL   H20240918   8.039   0.189   4.945  1.5717  0.5679 -0.7356
   79MOL   H20340919   8.045   8.173   4.976  0.5389 -1.7462  1.1907
   79MOL   H20440920   8.197   8.072   5.141 -2.0858 -0.5849 -1.7104
   79MOL   H20540921   0.096   8.217   5.299  1.4328  0.4886 -1.2032
   79MOL   H20640922   0.123   0.545   5.388 -0.4207 -1.8603  0.2604
   79MOL   H20740923   0.054   0.738   5.268  1.4260 -0.5680  1.0155
   79MOL   H20840924   8.134   0.709   5.067 -0.6273  1.0465  1.7956
   79MOL   H20940925   8.087   0.493   4.982 -0.6729 -0.3783  0.3015
   79MOL   C21040926   0.305   0.279   5.387 -0.9631  0.6166 -0.7884
   79MOL   C21140927   0.424   0.261   5.484 -0.8063  0.0416 -0.3635
   79MOL   N21240928   0.454   0.125   5.525 -0.8524  0.3232 -0.1854
   79MOL   C21340929   0.429   0.068   5.653 -0.8541 -0.1864  0.1940
   79MOL   C21440930   0.456   8.160   5.651  0.4652 -0.1462 -0.2913
   79MOL   C21540931   0.429   8.085   5.768 -0.6944 -0.9504  0.1614
   79MOL   C21640932   0.355   8.140   5.879 -0.9641 -0.3627 -0.3388
   79MOL   C21740933   0.337   0.054   5.881  0.7162  0.4504 -0.2515
   79MOL   C21840934   0.387   0.134   5.776  0.3734 -0.4403 -0.4454
   79MOL   C21940935   0.499   8.129   5.518  0.6638  0.7533 -0.0027
   79MOL   C22040936   0.497   0.021   5.442  0.1180  0.1551 -0.0026
   79MOL   C22140937   0.526   0.016   5.305  0.5515 -0.1130 -0.3934
   79MOL   C22240938   0.550   8.122   5.232 -0.0603 -0.3303  0.4585
   79MOL   C22340939   0.554   8.001   5.311  0.4699  0.1676  0.2239
   79MOL   C22440940   0.540   8.011   5.453 -0.5960  0.0805  0.4910
   79MOL   H22540941   0.335   0.213   5.306  1.2260 -2.0540  2.0808
   79MOL   H22640942   0.313   0.378   5.341  1.1936  2.0916  2.5531
   79MOL   H22740943   0.393   0.306   5.579 -0.4097 -0.3263 -0.0555
   79MOL   H22840944   0.453   7.980   5.773  2.0888 -0.3101  0.6406
   79MOL   H22940945   0.317   8.074   5.955  3.4447 -1.9694  0.6253
   79MOL   H23040946   0.289   0.096   5.968 -0.6413 -0.5943 -0.4669
   79MOL   H23140947   0.386   0.241   5.793  2.9581 -0.2490 -1.3016
   79MOL   H23240948   0.531   0.112   5.255 -2.1562 -0.5950 -1.6732
   79MOL   H23340949   0.586   8.118   5.130  1.2326  3.3378  0.7280
   79MOL   H23440950   0.580   7.904   5.272  0.8357 -0.1460  1.2340
   79MOL   H23540951   0.561   7.930   5.521  0.8782  1.4818  1.7471
   79MOL   C23640952   0.557   0.329   5.445 -0.6387 -0.1575 -0.3485
   79MOL   C23740953   0.558   0.484   5.457 -0.1329 -0.5787  0.1266
   79MOL   N23840954   0.510   0.530   5.589  0.5822  0.0332  0.2288
   79MOL   C23940955   0.401   0.618   5.610 -0.0051  0.2721  0.5056
   79MOL   C24040956   0.383   0.644   5.752  0.6256  0.8065  0.8070
   79MOL   C24140957   0.269   0.714   5.796  0.1404 -0.1417  0.1152
   79MOL   C24240958   0.182   0.773   5.709  0.2344  0.0476  0.2466
   79MOL   C24340959   0.207   0.755   5.571 -0.0212  0.0751  0.1461
   79MOL   C24440960   0.310   0.677   5.518  0.0152  0.2776  0.2320
   79MOL   C24540961   0.493   0.578   5.813  0.4178  0.4575  0.3771
   79MOL   C24640962   0.563   0.498   5.714 -0.1879 -0.0411  0.2454
   79MOL   C24740963   0.670   0.411   5.742 -0.6363 -0.0585  0.2867
   79MOL   C24840964   0.716   0.412   5.880  0.1785  0.7747  0.3100
   79MOL   C24940965   0.659   0.500   5.974 -0.2099 -0.5088  0.2824
   79MOL   C25040966   0.544   0.576   5.943 -0.0084  0.1949 -0.0316
   79MOL   H25140967   0.634   0.277   5.503  2.0084  1.4359 -2.3638
   79MOL   H25240968   0.586   0.304   5.343 -0.8662  1.3298 -0.7826
   79MOL   H25340969   0.479   0.509   5.386 -0.3085 -1.8715 -0.1454
   79MOL   H25440970   0.257   0.720   5.903 -0.2906 -0.0834  0.0652
   79MOL   H25540971   0.092   0.824   5.741 -1.1125 -1.1799 -1.5159
   79MOL   H25640972   0.144   0.802   5.497 -1.2200 -1.3933  0.2073
   79MOL   H25740973   0.312   0.649   5.414  1.6826  0.0008  0.3176
   79MOL   H25840974   0.715   0.352   5.663  1.1523 -0.7546  1.7928
   79MOL   H25940975   0.798   0.347   5.907  0.2293 -0.3041 -2.3122
   79MOL   H26040976   0.701   0.505   6.073  0.1050 -2.9110  0.2990
   79MOL   H26140977   0.495   0.631   6.022 -1.6429 -1.0795 -0.1383
   79MOL   C26240978   0.691   0.548   5.400  0.6986  0.9219 -0.2976
   79MOL   C26340979   0.731   0.539   5.252 -0.7771 -0.0637  0.4163
   79MOL   N26440980   0.620   0.573   5.174 -0.0662 -0.6133  0.2036
   79MOL   C26540981   0.539   0.483   5.113 -0.1269 -0.2440 -0.2152
   79MOL   C26640982   0.415   0.538   5.090  0.2173  0.4470 -0.1215
   79MOL   C26740983   0.309   0.461   5.048 -0.5424  0.3392  0.5509
   79MOL   C26840984   0.328   0.320   5.036  0.3305 -0.4707  1.0092
   79MOL   C26940985   0.452   0.263   5.050 -0.1414  0.0377  0.4710
   79MOL   C27040986   0.559   0.342   5.093 -0.5341  0.4201  0.3918
   79MOL   C27140987   0.432   0.679   5.105  0.7124 -0.2435  0.3352
   79MOL   C27240988   0.562   0.701   5.150  0.6535  0.8946  0.3041
   79MOL   C27340989   0.611   0.830   5.184 -0.3034  0.6191 -0.3153
   79MOL   C27440990   0.531   0.942   5.169  0.1264 -0.0375 -0.3019
   79MOL   C27540991   0.397   0.917   5.122 -0.3429  0.2632  0.1362
   79MOL   C27640992   0.345   0.791   5.088  0.4079 -0.0999 -0.1046
   79MOL   H27740993   0.691   0.655   5.423  2.3230  1.1060 -1.0434
   79MOL   H27840994   0.766   0.520   5.474 -0.2371  2.2423  1.1943
   79MOL   H27940995   0.761   0.434   5.246 -0.2511  0.1501 -0.8295
   79MOL   H28040996   0.212   0.497   5.016 -0.0987  1.5057  0.5000
   79MOL   H28140997   0.253   0.256   4.991 -0.1428  1.2407 -0.6855
   79MOL   H28240998   0.460   0.157   5.029 -0.6246  0.1473 -0.2808
   79MOL   H28340999   0.656   0.300   5.115 -0.8334  0.0254  0.9656
   79MOL   H28441000   0.718   0.834   5.203 -0.5344  1.1703  0.9150
   79MOL   H28541001   0.564   1.045   5.174  1.3502 -0.3249 -1.9782
   79MOL   H28641002   0.327   0.999   5.109 -2.4905 -1.8965 -2.5047
   79MOL   H28741003   0.260   0.766   5.026  0.2738 -0.5234  0.2424
   79MOL   C28841004   0.867   0.616   5.211 -0.0813  0.1803  0.9295
   79MOL   C28941005   0.992   0.522   5.234 -0.5069 -0.2749 -0.4193
   79MOL   N29041006   1.006   0.420   5.130  0.2612  0.4451  0.3873
   79MOL   C29141007   0.969   0.286   5.141 -0.2046 -0.5121 -0.0662
   79MOL   C29241008   0.968   0.222   5.012 -0.0713  0.0564  0.0296
   79MOL   C29341009   0.921   0.089   4.998  0.5055 -0.5446 -0.7734
   79MOL   C29441010   0.871   0.019   5.110  0.5354 -0.2435 -0.1656
   79MOL   C29541011   0.864   0.083   5.237  0.7759  0.6228  0.0231
   79MOL   C29641012   0.918   0.212   5.248 -0.7734  0.0995 -0.4110
   79MOL   C29741013   1.025   0.311   4.924 -0.7575 -0.0842  0.3813
   79MOL   C29841014   1.049   0.432   4.999 -0.1919 -0.4883  0.1456
   79MOL   C29941015   1.104   0.543   4.931  0.0420 -0.5848 -0.1223
   79MOL   C30041016   1.161   0.528   4.803  0.1195 -0.2961 -0.2420
   79MOL   C30141017   1.142   0.410   4.737 -0.3224 -0.2573  0.0327
   79MOL   C30241018   1.062   0.308   4.789  0.2528  0.6255  0.0571
   79MOL   H30341019   0.869   0.651   5.108 -1.0871  1.7614  1.4230
   79MOL   H30441020   0.878   0.709   5.267 -1.7296 -0.4390  2.3355
   79MOL   H30541021   0.962   0.467   5.323  1.2828  1.7798  1.5339
   79MOL   H30641022   0.918   0.024   4.912 -0.1309 -2.9558  1.0343
   79MOL   H30741023   0.821   8.154   5.086 -0.1367  0.5811 -2.0689
   79MOL   H30841024   0.818   0.030   5.319 -2.4627  2.0003 -0.8072
   79MOL   H30941025   0.925   0.266   5.342  1.3580 -2.3898  0.9391
   79MOL   H31041026   1.096   0.638   4.983  0.1073 -1.4813  1.5399
   79MOL   H31141027   1.209   0.605   4.744 -2.8930  0.8343 -1.3111
   79MOL   H31241028   1.185   0.399   4.639  0.0871 -2.1828  0.4115
   79MOL   H31341029   1.048   0.219   4.730 -1.3239 -0.1226  1.5326
   79MOL   C31441030   1.123   0.595   5.261 -0.7849 -0.7121 -0.0115
   79MOL   C31541031   1.178   0.556   5.402 -0.3340 -0.1456  0.1599
   79MOL   N31641032   1.183   0.415   5.431 -0.2741 -0.5544 -0.5820
   79MOL   C31741033   1.144   0.357   5.551 -0.1260 -0.9335 -0.2294
   79MOL   C31841034   1.161   0.215   5.554  0.2622  0.2658 -0.1951
   79MOL   C31941035   1.123   0.143   5.669 -0.0367  0.1925 -0.5533
   79MOL   C32041036   1.077   0.211   5.787  0.2665  0.0809  0.8628
   79MOL   C32141037   1.068   0.357   5.787  0.5447 -0.2770  0.3724
   79MOL   C32241038   1.102   0.425   5.671 -0.0887 -0.4779  0.3784
   79MOL   C32341039   1.220   0.186   5.433 -1.4319  0.2446  0.1248
   79MOL   C32441040   1.243   0.312   5.365  0.7696  0.3699  0.0447
   79MOL   C32541041   1.312   0.319   5.240  0.2005  0.3215  0.1311
   79MOL   C32641042   1.342   0.197   5.178 -0.2723  0.2634  0.4315
   79MOL   C32741043   1.319   0.074   5.237 -0.7932  0.1495  0.4075
   79MOL   C32841044   1.261   0.070   5.364 -0.3671 -0.4052 -1.3535
   79MOL   H32941045   1.196   0.568   5.185  2.6510  1.7182  2.2715
   79MOL   H33041046   1.095   0.700   5.253  0.6971 -0.0346  2.9403
   79MOL   H33141047   1.101   0.598   5.466  1.6137  3.3168  0.3795
   79MOL   H33241048   1.140   0.038   5.691  1.0500  0.1161 -1.7080
   79MOL   H33341049   1.053   0.160   5.879  1.7506  0.8058  1.6719
   79MOL   H33441050   1.028   0.412   5.871  0.7813  0.9619 -0.3222
   79MOL   H33541051   1.077   0.530   5.666  1.4426 -0.0971  0.5859
   79MOL   H33641052   1.339   0.413   5.195  0.3861  0.2027 -0.0055
   79MOL   H33741053   1.395   0.197   5.084 -1.1732 -2.6415 -0.1352
   79MOL   H33841054   1.340   8.211   5.182  0.7213  0.5492  0.3089
   79MOL   H33941055   1.249   8.204   5.417  0.6366  0.9144  1.2881
   79MOL   C34041056   1.315   0.629   5.435 -0.6459  0.5839  0.3799
   79MOL   C34141057   1.336   0.786   5.427 -0.7802 -0.2962 -0.1821
   79MOL   N34241058   1.215   0.867   5.461  0.2374 -0.4026 -0.4923
   79MOL   C34341059   1.159   0.960   5.379 -0.8872 -0.4455  0.3504
   79MOL   C34441060   1.037   1.004   5.437 -0.0120 -0.6667  0.3001
   79MOL   C34541061   0.965   1.103   5.354 -0.4154  0.3106 -0.7645
   79MOL   C34641062   1.012   1.156   5.234 -0.4325  0.6914 -0.1097
   79MOL   C34741063   1.137   1.109   5.188 -0.4673  0.8488 -0.0489
   79MOL   C34841064   1.202   1.001   5.251 -0.1627  0.5530 -0.4442
   79MOL   C34941065   1.024   0.943   5.563  0.4139  0.5314  0.3137
   79MOL   C35041066   1.138   0.859   5.578 -1.0565 -0.3944  0.0351
   79MOL   C35141067   1.162   0.797   5.696 -0.7037  0.0109 -0.4261
   79MOL   C35241068   1.069   0.810   5.799  0.0923  0.1603 -0.0114
   79MOL   C35341069   0.954   0.892   5.787  0.1882 -0.1773 -0.0164
   79MOL   C35441070   0.933   0.955   5.667 -0.0855 -0.0595  0.1994
   79MOL   H35541071   1.345   0.614   5.538  0.5510  0.7959  0.0771
   79MOL   H35641072   1.395   0.587   5.375  1.0839  1.7677  1.8125
   79MOL   H35741073   1.359   0.797   5.321  0.0036 -2.5223 -0.2597
   79MOL   H35841074   0.881   1.152   5.400 -1.8982 -0.6573 -2.3959
   79MOL   H35941075   0.969   1.243   5.186 -2.7653  0.9828  2.3802
   79MOL   H36041076   1.177   1.135   5.091 -1.2506 -2.9146 -1.4586
   79MOL   H36141077   1.288   0.961   5.199 -0.4413  1.5068 -1.6806
   79MOL   H36241078   1.248   0.733   5.705 -1.2608 -0.8017 -0.7884
   79MOL   H36341079   1.084   0.755   5.891 -1.4401 -0.0105  0.1602
   79MOL   H36441080   0.879   0.895   5.864 -0.2999 -0.2426 -0.4852
   79MOL   H36541081   0.842   1.011   5.647  1.2118  2.2253  0.4642
   79MOL   C36641082   1.458   0.838   5.497  0.0976 -0.4267  0.1977
   79MOL   C36741083   1.592   0.814   5.418 -0.0054 -0.1812 -0.0995
   79MOL   N36841084   1.610   0.891   5.297 -0.5544  0.3645  0.3031
   79MOL   C36941085   1.629   0.832   5.166  0.1551 -0.1920 -0.6423
   79MOL   C37041086   1.650   0.940   5.071 -0.3081  0.1314 -0.0354
   79MOL   C37141087   1.682   0.913   4.937  0.3850 -0.3565 -0.1585
   79MOL   C37241088   1.712   0.783   4.901 -0.2708 -0.0357 -0.2852
   79MOL   C37341089   1.699   0.676   4.994 -0.4062  0.0786 -0.3035
   79MOL   C37441090   1.645   0.696   5.122 -0.9876 -1.1849  1.0974
   79MOL   C37541091   1.635   1.063   5.146  0.2752 -0.3101  0.9495
   79MOL   C37641092   1.614   1.029   5.287  0.1354 -0.5954  0.3139
   79MOL   C37741093   1.601   1.134   5.382  0.0199  0.3042  0.2949
   79MOL   C37841094   1.608   1.263   5.347  0.1658 -0.3646 -0.7438
   79MOL   C37941095   1.623   1.302   5.209 -0.0162 -0.7798  0.6588
   79MOL   C38041096   1.633   1.199   5.111  0.0365 -0.1704  0.0892
   79MOL   H38141097   1.436   0.941   5.525 -1.4901  0.0945 -2.7701
   79MOL   H38241098   1.464   0.778   5.588 -0.7355 -0.6991  0.0754
   79MOL   H38341099   1.594   0.708   5.392 -0.6022 -0.1836 -0.1336
   79MOL   H38441100   1.702   0.988   4.861  1.7229 -0.3035  0.2445
   79MOL   H38541101   1.753   0.754   4.806 -0.8425  0.3280 -0.6455
   79MOL   H38641102   1.712   0.575   4.959 -2.5873 -0.0010 -0.9786
   79MOL   H38741103   1.629   0.616   5.193 -0.8499 -0.8624  1.4926
   79MOL   H38841104   1.578   1.113   5.485 -0.8236  0.6737  0.1819
   79MOL   H38941105   1.601   1.336   5.427  0.3509  0.5774 -1.5673
   79MOL   H39041106   1.619   1.407   5.185 -0.4213 -0.1255  3.4662
   79MOL   H39141107   1.640   1.223   5.006 -2.2719  1.6412  0.3090
   79MOL   C39241108   1.715   0.829   5.508 -0.7060  0.2392 -0.3190
   79MOL   C39341109   1.735   0.727   5.627 -0.7457  0.8576 -0.0013
   79MOL   N39441110   1.698   0.589   5.593 -0.5955 -0.3167  0.4783
   79MOL   C39541111   1.621   0.507   5.674  0.1468  0.2589 -0.1543
   79MOL   C39641112   1.602   0.381   5.620  1.0387  0.1957 -0.1329
   79MOL   C39741113   1.524   0.289   5.691 -0.6002 -0.5576  0.0688
   79MOL   C39841114   1.475   0.320   5.819 -0.6086  0.5435  0.1992
   79MOL   C39941115   1.495   0.450   5.873  0.0439  0.4205  0.2848
   79MOL   C40041116   1.575   0.541   5.803 -0.0222  0.2853 -0.8300
   79MOL   C40141117   1.666   0.381   5.497  0.2839  1.5134  0.1187
   79MOL   C40241118   1.731   0.510   5.482  0.0358 -0.1152  0.1744
   79MOL   C40341119   1.816   0.533   5.372  0.1151 -0.3512 -0.0794
   79MOL   C40441120   1.820   0.428   5.271 -0.6727  0.2513  0.3217
   79MOL   C40541121   1.740   0.316   5.278 -0.1467 -0.1916  0.3600
   79MOL   C40641122   1.664   0.290   5.389  0.5657  0.6369  0.0357
   79MOL   H40741123   1.809   0.836   5.452  0.6878  1.5137  2.0913
   79MOL   H40841124   1.722   0.927   5.555  0.5588 -0.9533  2.0420
   79MOL   H40941125   1.668   0.762   5.706 -2.7810  1.1403 -1.7840
   79MOL   H41041126   1.515   0.191   5.645 -0.1148 -1.2607  1.4532
   79MOL   H41141127   1.411   0.254   5.875 -0.4550  1.6536  1.7132
   79MOL   H41241128   1.457   0.475   5.971 -0.9619 -1.0245  0.2793
   79MOL   H41341129   1.596   0.636   5.851 -1.4595  0.4663 -0.5594
   79MOL   H41441130   1.873   0.624   5.363  2.6059 -2.0855 -2.6668
   79MOL   H41541131   1.878   0.458   5.184  1.1883  2.3590  2.2057
   79MOL   H41641132   1.734   0.245   5.197 -0.0057  0.6242 -0.3733
   79MOL   H41741133   1.607   0.198   5.390  1.4247  0.0640 -1.8223
   79MOL   C41841134   1.886   0.730   5.672  0.2202  0.3866  0.5270
   79MOL   C41941135   1.940   0.860   5.742  0.3975 -0.3753  0.0580
   79MOL   N42041136   1.863   0.895   5.864  0.2261 -0.3158 -0.2076
   79MOL   C42141137   1.768   0.997   5.874  0.0639 -0.2701  0.2257
   79MOL   C42241138   1.728   1.012   6.015  0.3978  0.1560  0.4953
   79MOL   C42341139   1.638   1.118   6.045  0.4940  1.2271  0.1202
   79MOL   C42441140   1.576   1.196   5.951 -1.2829 -0.2227  0.3317
   79MOL   C42541141   1.630   1.198   5.820  0.3012  0.1649 -0.2537
   79MOL   C42641142   1.718   1.094   5.782  0.8094  0.2310  0.4193
   79MOL   C42741143   1.784   0.900   6.082 -0.0619 -0.2508 -0.7305
   79MOL   C42841144   1.866   0.830   5.988  0.5619 -0.2508 -0.0766
   79MOL   C42941145   1.934   0.714   6.032 -0.4834  0.5447  0.1157
   79MOL   C43041146   1.905   0.656   6.155  0.1844  0.8575 -0.5096
   79MOL   C43141147   1.824   0.729   6.246 -0.6824  0.2795 -0.2728
   79MOL   C43241148   1.758   0.844   6.210  0.3594 -0.0615  1.0995
   79MOL   H43341149   1.914   0.654   5.745 -1.6748 -1.5765 -0.7283
   79MOL   H43441150   1.944   0.704   5.583 -4.2830  0.8074 -2.7669
   79MOL   H43541151   1.931   0.941   5.670  2.4243 -1.8773 -1.9655
   79MOL   H43641152   1.605   1.128   6.148  3.8517  1.4312  1.2280
   79MOL   H43741153   1.497   1.267   5.971 -0.1720  1.6477 -1.6747
   79MOL   H43841154   1.591   1.270   5.750 -1.2035 -1.2875 -0.9378
   79MOL   H43941155   1.754   1.092   5.680  0.8514 -0.1948  0.4385
   79MOL   H44041156   1.998   0.664   5.960  0.2174 -1.5477  2.1331
   79MOL   H44141157   1.953   0.562   6.176  0.4368  0.5965 -2.1362
   79MOL   H44241158   1.798   0.684   6.341  2.8444 -1.8871 -0.2235
   79MOL   H44341159   1.676   0.897   6.256  1.2089  1.0763  1.3393
   79MOL   C44441160   2.088   0.860   5.778  0.0562  0.1149  0.0700
   79MOL   C44541161   2.180   0.892   5.659 -0.0587 -0.4083  0.9856
   79MOL   N44641162   2.145   1.010   5.580  0.2862  0.5221  0.4377
   79MOL   C44741163   2.133   1.008   5.441  0.3254  0.2648  0.1850
   79MOL   C44841164   2.121   1.143   5.395  0.1124 -0.3958  0.2702
   79MOL   C44941165   2.108   1.173   5.260 -0.4345 -0.2033  0.4891
   79MOL   C45041166   2.112   1.070   5.169 -0.2591  0.3485 -0.1748
   79MOL   C45141167   2.126   0.938   5.211  0.5579 -0.0611  0.4576
   79MOL   C45241168   2.136   0.904   5.349 -0.3379 -0.2349  0.8598
   79MOL   C45341169   2.107   1.221   5.512  0.2459 -0.2191 -0.2180
   79MOL   C45441170   2.128   1.142   5.626 -0.0243  0.0804 -0.6525
   79MOL   C45541171   2.119   1.203   5.752  0.2873  0.2386 -0.3147
   79MOL   C45641172   2.090   1.340   5.773 -0.0809  0.4472  0.1710
   79MOL   C45741173   2.082   1.420   5.659  0.2414 -1.0594  0.0046
   79MOL   C45841174   2.081   1.360   5.534  0.9003  0.1987 -0.0953
   79MOL   H45941175   2.096   0.930   5.862 -2.7461  0.5751  0.0036
   79MOL   H46041176   2.124   0.766   5.821  1.4765  0.5229 -0.2011
   79MOL   H46141177   2.170   0.808   5.591 -0.1290 -0.0536  0.5509
   79MOL   H46241178   2.093   1.276   5.229 -0.8610 -0.2445  0.5525
   79MOL   H46341179   2.105   1.088   5.063 -1.0949 -1.7839 -0.5046
   79MOL   H46441180   2.143   0.863   5.135 -0.9850  1.8103 -1.8146
   79MOL   H46541181   2.144   0.802   5.384  1.7311  0.8592  3.7275
   79MOL   H46641182   2.140   1.140   5.838 -0.5346 -1.5137 -1.3591
   79MOL   H46741183   2.079   1.381   5.872 -0.7581 -0.6979  0.5746
   79MOL   H46841184   2.064   1.526   5.656 -0.4700 -1.1723  0.2616
   79MOL   H46941185   2.065   1.417   5.444 -1.2572  0.4305  0.3986
   79MOL   C47041186   2.329   0.893   5.702 -0.2683 -0.0512 -0.0750
   79MOL   C47141187   2.400   0.758   5.704 -0.2762  0.5237 -0.8799
   79MOL   N47241188   2.371   0.672   5.591  0.3801  0.4768 -0.0715
   79MOL   C47341189   2.297   0.552   5.586 -0.2727  0.2500  0.8341
   79MOL   C47441190   2.296   0.492   5.460  0.5223  0.2234 -0.1349
   79MOL   C47541191   2.236   0.364   5.445 -0.0556 -0.0017 -0.3157
   79MOL   C47641192   2.160   0.307   5.548 -0.4795  0.0967  0.2387
   79MOL   C47741193   2.157   0.369   5.671  0.0283 -0.2584 -0.3305
   79MOL   C47841194   2.230   0.489   5.694  0.0377 -0.6192 -0.1048
   79MOL   C47941195   2.356   0.580   5.379 -0.2989 -0.2654  0.5960
   79MOL   C48041196   2.398   0.692   5.460 -0.2892  1.1871  0.4179
   79MOL   C48141197   2.459   0.805   5.406  0.0289 -0.4467 -0.0816
   79MOL   C48241198   2.483   0.809   5.271 -0.1242  0.1327  0.0596
   79MOL   C48341199   2.453   0.698   5.189  0.3049  0.1036  0.0044
   79MOL   C48441200   2.388   0.581   5.243 -0.0017 -0.2272 -1.2981
   79MOL   H48541201   2.375   0.960   5.629 -0.2934  0.6754  0.5615
   79MOL   H48641202   2.337   0.938   5.801  1.0306 -0.5910  0.0780
   79MOL   H48741203   2.362   0.706   5.792 -0.3021  2.6135  0.3923
   79MOL   H48841204   2.240   0.314   5.349 -0.8151 -1.4373  0.3838
   79MOL   H48941205   2.111   0.213   5.527  1.0106 -0.4134 -1.1628
   79MOL   H49041206   2.096   0.318   5.745  0.0086 -0.5143 -0.5189
   79MOL   H49141207   2.237   0.520   5.797 -0.1049 -0.6594 -0.0830
   79MOL   H49241208   2.494   0.888   5.466  0.9647 -1.1884  0.4100
   79MOL   H49341209   2.542   0.888   5.229  1.6872 -0.4298  1.4924
   79MOL   H49441210   2.476   0.701   5.083  0.7314  1.2132  0.1295
   79MOL   H49541211   2.342   0.503   5.184 -0.4062 -0.2407 -0.9628
   79MOL   C49641212   2.550   0.772   5.716  0.6875  0.7086 -0.5901
   79MOL   C49741213   2.605   0.762   5.860  0.3952 -0.0846 -0.3516
   79MOL   N49841214   2.550   0.857   5.947  0.4689 -0.3547 -0.0747
   79MOL   C49941215   2.442   0.833   6.030 -0.1951 -0.4140 -0.8368
   79MOL   C50041216   2.402   0.953   6.092 -0.1590 -0.3457 -0.1763
   79MOL   C50141217   2.290   0.949   6.184  0.2654  0.4844  0.1915
   79MOL   C50241218   2.223   0.831   6.214  0.4542 -0.0973 -0.1718
   79MOL   C50341219   2.268   0.715   6.156  0.4325  0.5557 -0.8971
   79MOL   C50441220   2.375   0.712   6.061 -0.6012 -0.1457 -0.5159
   79MOL   C50541221   2.480   1.061   6.028 -0.0650 -0.0547  0.0154
   79MOL   C50641222   2.572   0.995   5.942 -0.1411  0.7863 -0.0382
   79MOL   C50741223   2.669   1.063   5.864  0.8103 -0.5434 -0.5612
   79MOL   C50841224   2.669   1.203   5.871  0.2051 -0.2281  0.7002
   79MOL   C50941225   2.576   1.276   5.949  0.7607 -0.2352  0.1615
   79MOL   C51041226   2.490   1.208   6.031  0.2906  0.6541 -0.1472
   79MOL   H51141227   2.604   0.699   5.656  0.0364 -0.1981 -0.0957
   79MOL   H51241228   2.584   0.866   5.673  0.8048  0.7554 -0.3965
   79MOL   H51341229   2.709   0.796   5.855  1.0438 -2.1228 -1.0420
   79MOL   H51441230   2.249   1.045   6.211  1.0092  1.3858 -1.7500
   79MOL   H51541231   2.148   0.824   6.291  0.5180  1.8606  0.0921
   79MOL   H51641232   2.216   0.624   6.184 -0.8379  1.5643  0.1320
   79MOL   H51741233   2.413   0.614   6.036 -2.2626 -0.7838 -0.6332
   79MOL   H51841234   2.733   1.005   5.800  1.0820 -3.7323  2.4388
   79MOL   H51941235   2.725   1.265   5.803  2.5872 -1.5164  1.4288
   79MOL   H52041236   2.575   1.384   5.946  1.2301 -0.2029  1.0571
   79MOL   H52141237   2.414   1.254   6.092 -0.5433 -0.9758  0.0813
   79MOL   H52241238   2.590   0.661   5.898  2.7704 -0.3196  0.0305
   80MOL     C141239   6.838   2.640   4.308 -0.7738  0.0686  0.1219
   80MOL     C241240   6.874   2.585   4.167 -0.4501  0.2475  0.2647
   80MOL     N341241   6.769   2.563   4.066 -0.6973 -0.1115 -0.5075
   80MOL     C441242   6.769   2.462   3.972  0.5097 -0.0802  0.0069
   80MOL     C541243   6.652   2.473   3.888 -0.0885 -0.0937 -0.3565
   80MOL     C641244   6.635   2.378   3.786  1.0161  0.5729 -0.2875
   80MOL     C741245   6.734   2.276   3.763  0.5584 -0.6152 -0.3666
   80MOL     C841246   6.851   2.272   3.840 -0.2155  0.1012  0.0336
   80MOL     C941247   6.863   2.361   3.948 -0.2399 -0.2897  0.3248
   80MOL    C1041248   6.575   2.580   3.941  0.1208 -0.0793 -0.1385
   80MOL    C1141249   6.659   2.644   4.036 -0.3627 -0.1059 -0.4683
   80MOL    C1241250   6.618   2.772   4.090  0.4378 -0.2376  0.2101
   80MOL    C1341251   6.490   2.826   4.043 -0.8501 -0.3100  0.3905
   80MOL    C1441252   6.415   2.764   3.950  0.4008  0.5811 -0.5522
   80MOL    C1541253   6.455   2.641   3.899  0.4654  0.4458 -0.7971
   80MOL    H1641254   6.921   2.650   4.377 -0.0090 -1.8420 -0.5023
   80MOL    H1741255   6.764   2.577   4.358  1.3881 -1.1369  1.8489
   80MOL    H1841256   6.918   2.487   4.188 -0.2339  0.2498 -0.1673
   80MOL    H1941257   6.545   2.377   3.727  1.6168  1.1344 -1.2289
   80MOL    H2041258   6.716   2.203   3.685  0.3971 -1.2326  0.2421
   80MOL    H2141259   6.927   2.196   3.831  1.6004  1.8853 -0.1838
   80MOL    H2241260   6.950   2.352   4.011  1.4857 -3.4192 -2.2924
   80MOL    H2341261   6.668   2.826   4.169 -0.2302  0.4197  0.1821
   80MOL    H2441262   6.441   2.916   4.078 -1.6667 -0.3639 -0.5846
   80MOL    H2541263   6.330   2.810   3.903 -0.8912 -0.2254  0.9722
   80MOL    H2641264   6.389   2.590   3.831  1.1702  0.9088 -1.8379
   80MOL    H2741265   6.793   2.739   4.305  1.1408  1.0731  2.8129
   80MOL    C2841266   6.982   2.666   4.092  1.0535  0.7651 -0.2832
   80MOL    C2941267   7.129   2.647   4.149  0.9402  0.2268  0.3033
   80MOL    N3041268   7.190   2.510   4.146 -0.5312 -0.3265 -0.7318
   80MOL    C3141269   7.270   2.457   4.244 -0.7570 -0.5645 -0.1126
   80MOL    C3241270   7.329   2.333   4.199  0.6274 -0.4164 -0.0070
   80MOL    C3341271   7.412   2.257   4.282  0.7521  0.0810  0.0042
   80MOL    C3441272   7.445   2.304   4.409 -0.5409 -0.7671  0.1820
   80MOL    C3541273   7.390   2.433   4.449 -0.2267 -0.6601 -0.0202
   80MOL    C3641274   7.296   2.502   4.369  0.1115 -0.2683 -0.1610
   80MOL    C3741275   7.289   2.315   4.065  0.2508  0.6052 -1.3080
   80MOL    C3841276   7.213   2.425   4.033  0.1977  0.0803 -0.6486
   80MOL    C3941277   7.160   2.436   3.897 -0.1424  0.4089 -0.1769
   80MOL    C4041278   7.188   2.342   3.802 -0.6221  0.3565  0.0597
   80MOL    C4141279   7.259   2.226   3.840  0.1382  0.2639 -0.1626
   80MOL    C4241280   7.307   2.206   3.972  0.5929  0.4154 -0.5835
   80MOL    H4341281   6.986   2.644   3.985  2.2115 -1.2762  0.1607
   80MOL    H4441282   6.946   2.768   4.101  1.8894  0.9726  0.8162
   80MOL    H4541283   7.112   2.656   4.256 -0.2364 -3.9731  0.5575
   80MOL    H4641284   7.446   2.164   4.239 -0.3395 -0.5761  0.5438
   80MOL    H4741285   7.521   2.254   4.466 -0.1719 -2.5372 -1.7799
   80MOL    H4841286   7.430   2.476   4.540 -0.2396 -3.7544  1.5026
   80MOL    H4941287   7.250   2.592   4.408 -0.6266 -0.8201  0.2456
   80MOL    H5041288   7.107   2.524   3.863  1.1726  0.5242 -2.0142
   80MOL    H5141289   7.151   2.350   3.701  0.4870 -2.2710 -0.5977
   80MOL    H5241290   7.266   2.143   3.772  1.0594  0.4809 -0.3372
   80MOL    H5341291   7.352   2.115   4.008  0.3073 -0.4406 -2.3427
   80MOL    C5441292   7.218   2.755   4.100  0.0744 -0.5990 -0.3845
   80MOL    C5541293   7.189   2.900   4.148 -0.4519 -0.1928  0.2608
   80MOL    N5641294   7.166   2.908   4.293  0.2957  0.1045 -0.1554
   80MOL    C5741295   7.050   2.964   4.353  1.0038 -0.1573  0.1585
   80MOL    C5841296   7.049   2.953   4.494 -0.2574  0.3495 -0.2704
   80MOL    C5941297   6.938   3.002   4.565 -0.0357 -0.6406  0.0654
   80MOL    C6041298   6.838   3.077   4.502  0.8375  0.5814 -0.3644
   80MOL    C6141299   6.835   3.081   4.361  0.3778  0.3470  0.2000
   80MOL    C6241300   6.935   3.020   4.288 -0.0765  0.8723  0.0721
   80MOL    C6341301   7.181   2.898   4.523  0.6120  0.7269 -0.6757
   80MOL    C6441302   7.245   2.873   4.399 -0.1124 -0.5903  0.5280
   80MOL    C6541303   7.374   2.813   4.403 -0.6272  0.4765 -0.4038
   80MOL    C6641304   7.443   2.785   4.524 -0.3384  0.2060  0.0074
   80MOL    C6741305   7.378   2.810   4.646 -0.8859  0.0334 -0.2844
   80MOL    C6841306   7.247   2.867   4.640 -0.0999  0.2274  0.0664
   80MOL    H6941307   7.309   2.731   4.156 -0.1683  0.8586  0.6700
   80MOL    H7041308   7.237   2.752   3.993  1.1602  1.3007 -0.2575
   80MOL    H7141309   7.102   2.938   4.095  0.1063  1.1833  0.3036
   80MOL    H7241310   6.937   3.004   4.673  3.0664 -2.0013  0.1626
   80MOL    H7341311   6.750   3.114   4.552  0.3356 -0.7645 -0.2399
   80MOL    H7441312   6.751   3.134   4.320  0.9996  2.4498  1.5304
   80MOL    H7541313   6.938   3.037   4.181  0.5235 -2.3131 -0.4797
   80MOL    H7641314   7.433   2.799   4.314 -0.2538 -0.2702 -0.0471
   80MOL    H7741315   7.545   2.752   4.531 -0.1898  0.8171  0.6958
   80MOL    H7841316   7.426   2.794   4.742 -1.1172  0.6046 -0.0677
   80MOL    H7941317   7.188   2.879   4.730 -0.4999 -0.9589 -0.0266
   80MOL    C8041318   7.304   2.997   4.100  0.4174 -0.9848 -0.4039
   80MOL    C8141319   7.290   3.050   3.951  0.6009  0.3455  0.2090
   80MOL    N8241320   7.174   3.146   3.952 -0.4627  0.3451  0.0726
   80MOL    C8341321   7.041   3.114   3.916  0.3266  0.7531 -0.0086
   80MOL    C8441322   6.960   3.230   3.927 -0.5603  0.5037  0.1378
   80MOL    C8541323   6.823   3.215   3.897  0.6217  0.1831 -0.0498
   80MOL    C8641324   6.759   3.090   3.861  1.2074  0.3878  0.2247
   80MOL    C8741325   6.848   2.985   3.833 -0.2375  0.5468  0.7040
   80MOL    C8841326   6.983   2.996   3.868 -0.3920  0.0730 -0.3164
   80MOL    C8941327   7.045   3.337   3.975  0.2720 -0.1969  0.2406
   80MOL    C9041328   7.171   3.277   4.006  0.4154 -0.2833 -0.4770
   80MOL    C9141329   7.269   3.356   4.069  0.4298  0.4435 -0.3969
   80MOL    C9241330   7.241   3.486   4.105 -0.7682  0.7639  0.3670
   80MOL    C9341331   7.122   3.547   4.081 -0.1445 -0.3659  0.0223
   80MOL    C9441332   7.024   3.474   4.014 -0.4393 -0.0120  0.4007
   80MOL    H9541333   7.298   3.086   4.163  2.0256 -1.5762  0.6096
   80MOL    H9641334   7.401   2.951   4.117  0.5848 -0.2721  0.5954
   80MOL    H9741335   7.260   2.962   3.894 -0.1876  1.2006 -0.7256
   80MOL    H9841336   6.756   3.299   3.910  0.3287 -0.5455  3.8271
   80MOL    H9941337   6.652   3.087   3.855  1.2604 -0.6307 -0.2182
   80MOL   H10041338   6.808   2.895   3.790  0.1720  0.1697  1.1100
   80MOL   H10141339   7.050   2.912   3.857  2.2588  1.5926  3.3804
   80MOL   H10241340   7.368   3.322   4.096 -1.4443 -2.7949  2.8844
   80MOL   H10341341   7.317   3.536   4.164  0.6020 -1.4367  0.5157
   80MOL   H10441342   7.117   3.651   4.110 -2.3039 -0.4815  0.1527
   80MOL   H10541343   6.936   3.531   3.988  1.3880  1.9554 -1.6459
   80MOL   C10641344   7.413   3.116   3.871 -0.4371 -0.6548 -0.9759
   80MOL   C10741345   7.412   3.089   3.723 -0.5507 -0.5683 -0.2792
   80MOL   N10841346   7.312   3.173   3.646 -0.5782  0.4595 -0.0683
   80MOL   C10941347   7.203   3.120   3.577  0.1091  0.0895  0.3609
   80MOL   C11041348   7.143   3.223   3.501  0.3386 -0.0623 -0.1019
   80MOL   C11141349   7.036   3.192   3.415 -0.2264 -0.6640  0.6088
   80MOL   C11241350   6.974   3.063   3.415  0.1803  0.4241  0.1637
   80MOL   C11341351   7.032   2.958   3.493 -0.1247 -0.3348  0.0394
   80MOL   C11441352   7.146   2.987   3.570  0.4745 -0.7969  0.0068
   80MOL   C11541353   7.212   3.348   3.535 -0.1099  0.4141 -0.2920
   80MOL   C11641354   7.311   3.311   3.625 -0.3270  0.5066 -0.4704
   80MOL   C11741355   7.396   3.408   3.679  0.0292 -0.2682 -0.1957
   80MOL   C11841356   7.373   3.546   3.658  0.6908 -0.4828 -0.4698
   80MOL   C11941357   7.276   3.581   3.562  0.4180  0.6215 -0.0063
   80MOL   C12041358   7.202   3.484   3.491 -0.8558  0.0899 -0.7870
   80MOL   H12141359   7.423   3.222   3.892 -0.5672 -0.7597 -0.3717
   80MOL   H12241360   7.501   3.065   3.911 -2.8021 -3.1490  1.2901
   80MOL   H12341361   7.380   2.986   3.713 -2.3352 -0.0171 -0.4859
   80MOL   H12441362   6.993   3.270   3.354  0.8194 -0.5182  0.0512
   80MOL   H12541363   6.887   3.040   3.356 -0.0275  0.5632  0.4154
   80MOL   H12641364   6.987   2.860   3.499  0.9838 -0.8162  0.4849
   80MOL   H12741365   7.181   2.903   3.629  1.1340  0.7396  1.8432
   80MOL   H12841366   7.466   3.380   3.757 -1.6550  0.0488  1.4872
   80MOL   H12941367   7.432   3.622   3.706 -1.1814  1.2526 -0.8436
   80MOL   H13041368   7.264   3.684   3.532 -0.5009  0.6856  0.5593
   80MOL   H13141369   7.135   3.518   3.414  0.1104  1.2670 -1.1193
   80MOL   C13241370   7.556   3.105   3.663  0.2665 -0.2718  0.5020
   80MOL   C13341371   7.665   3.009   3.711  0.2597  0.1518 -0.2590
   80MOL   N13441372   7.602   2.875   3.740 -0.1664  0.5086  0.2847
   80MOL   C13541373   7.604   2.813   3.863  0.1569 -0.4460  0.1944
   80MOL   C13641374   7.525   2.693   3.852  0.8083  0.0779 -0.5640
   80MOL   C13741375   7.519   2.606   3.968 -0.8858 -0.2374 -0.0180
   80MOL   C13841376   7.573   2.654   4.091 -0.1362 -0.4753 -0.2965
   80MOL   C13941377   7.645   2.776   4.099  0.1806  0.6297 -0.2457
   80MOL   C14041378   7.664   2.849   3.984 -0.2403 -0.1903 -0.0922
   80MOL   C14141379   7.466   2.690   3.722 -0.4652 -0.1032  0.1513
   80MOL   C14241380   7.520   2.799   3.649 -0.2098 -0.0752 -0.5109
   80MOL   C14341381   7.480   2.812   3.516  0.2900  0.1365  0.2410
   80MOL   C14441382   7.376   2.731   3.462 -0.0385 -0.0272  0.0319
   80MOL   C14541383   7.325   2.628   3.537  0.1686  0.0962 -0.1225
   80MOL   C14641384   7.374   2.601   3.661 -0.3157  0.0913  0.1437
   80MOL   H14741385   7.535   3.091   3.557  1.5331 -1.6047  0.4151
   80MOL   H14841386   7.579   3.211   3.677 -0.7442  0.0594 -0.2987
   80MOL   H14941387   7.694   3.045   3.810 -0.8592  0.1532  0.0720
   80MOL   H15041388   7.468   2.511   3.967 -0.8204 -0.3181  2.1483
   80MOL   H15141389   7.560   2.595   4.181  0.3480  2.0521  1.4956
   80MOL   H15241390   7.690   2.809   4.191 -2.1705  1.0536  0.7957
   80MOL   H15341391   7.709   2.947   3.985  2.3853 -1.3462  0.1706
   80MOL   H15441392   7.521   2.897   3.465 -3.3271  1.0856 -1.2543
   80MOL   H15541393   7.343   2.740   3.360  1.6873 -1.2378 -0.6704
   80MOL   H15641394   7.248   2.564   3.496 -0.4018  1.6429 -1.5575
   80MOL   H15741395   7.338   2.513   3.713  1.3281 -0.9016 -0.3482
   80MOL   C15841396   7.774   2.991   3.612  0.4678  0.5136  0.3011
   80MOL   C15941397   7.865   3.115   3.579  0.3875  0.0671  0.5062
   80MOL   N16041398   7.891   3.196   3.694 -0.1098 -0.1038 -0.5015
   80MOL   C16141399   7.878   3.331   3.713  0.2824  0.4200 -0.1909
   80MOL   C16241400   7.947   3.375   3.829  0.5820  0.2777  0.2774
   80MOL   C16341401   7.954   3.512   3.865 -0.7015  0.3716 -0.9291
   80MOL   C16441402   7.905   3.608   3.765  0.0396 -0.0016 -0.0202
   80MOL   C16541403   7.833   3.563   3.652  0.2033 -0.3912  0.3392
   80MOL   C16641404   7.818   3.425   3.628 -0.9323 -0.1586 -0.8569
   80MOL   C16741405   8.001   3.261   3.892  0.4163 -0.7889  0.6748
   80MOL   C16841406   7.978   3.155   3.796 -0.3389 -0.2203 -1.1188
   80MOL   C16941407   8.035   3.023   3.821 -0.1294 -0.2049  0.2580
   80MOL   C17041408   8.119   3.012   3.940  0.0471 -0.1978  0.7998
   80MOL   C17141409   8.129   3.113   4.035  0.8957 -0.0323 -0.0803
   80MOL   C17241410   8.071   3.238   4.010  0.4900  0.4629 -0.4362
   80MOL   H17341411   7.840   2.910   3.642 -0.4355 -0.3640 -0.0432
   80MOL   H17441412   7.743   2.961   3.512 -0.8833 -0.4879  1.0098
   80MOL   H17541413   7.803   3.183   3.520  0.0313 -0.1872  0.5831
   80MOL   H17641414   8.004   3.531   3.959 -0.1145 -0.6944 -1.0202
   80MOL   H17741415   7.910   3.715   3.780 -2.4794 -0.0499  1.4133
   80MOL   H17841416   7.795   3.632   3.579  0.7613 -0.6751 -0.2252
   80MOL   H17941417   7.762   3.402   3.538 -0.9713 -0.3520 -0.7836
   80MOL   H18041418   8.018   2.935   3.760 -3.0418  0.6807 -0.2892
   80MOL   H18141419   8.157   2.914   3.963 -2.1776 -1.5164 -0.9265
   80MOL   H18241420   8.173   3.098   4.133  1.0844 -3.3283 -0.6206
   80MOL   H18341421   8.082   3.317   4.083 -0.5413 -0.3652  0.6380
   80MOL   C18441422   7.994   3.085   3.489  0.2303 -0.0369  0.0078
   80MOL   C18541423   7.968   3.000   3.360  0.6645  0.0172  0.0870
   80MOL   N18641424   7.850   3.038   3.286 -0.1855 -0.1532  0.0842
   80MOL   C18741425   7.753   2.951   3.236 -0.1437 -0.4353  0.1395
   80MOL   C18841426   7.643   3.032   3.182 -0.5370  0.4427  0.3485
   80MOL   C18941427   7.529   2.967   3.132 -0.1894  0.4485  0.0555
   80MOL   C19041428   7.515   2.831   3.149  0.3149  0.2974 -0.0450
   80MOL   C19141429   7.617   2.752   3.209  0.5320  0.3239  0.1915
   80MOL   C19241430   7.735   2.817   3.247 -0.7451 -0.1405 -0.3345
   80MOL   C19341431   7.689   3.174   3.181  0.3843  0.6411 -0.8070
   80MOL   C19441432   7.815   3.175   3.245 -0.3791  0.0312  0.1225
   80MOL   C19541433   7.883   3.294   3.258 -0.6635 -0.2000  0.3846
   80MOL   C19641434   7.819   3.417   3.229 -0.6467  0.1667  0.6905
   80MOL   C19741435   7.689   3.420   3.179  0.4723  0.3999 -0.2117
   80MOL   C19841436   7.624   3.297   3.152 -0.3531 -0.2175 -0.5286
   80MOL   H19941437   8.032   3.186   3.472  2.1665 -0.2847  2.5459
   80MOL   H20041438   8.064   3.031   3.553  0.7084  0.2055 -0.3039
   80MOL   H20141439   7.962   2.896   3.393  0.2404 -0.1651 -0.5604
   80MOL   H20241440   7.455   3.025   3.078 -0.2540 -0.7006 -1.0952
   80MOL   H20341441   7.436   2.777   3.100  1.4903 -1.5115 -0.0033
   80MOL   H20441442   7.608   2.644   3.208 -0.9439  0.4409 -0.1219
   80MOL   H20541443   7.819   2.758   3.282  0.4703  0.8289 -1.5633
   80MOL   H20641444   7.985   3.293   3.295  0.1804  1.4872 -1.7843
   80MOL   H20741445   7.871   3.510   3.246 -0.8820  0.3598  0.3583
   80MOL   H20841446   7.635   3.514   3.178 -0.2006  0.0187  0.5408
   80MOL   H20941447   7.528   3.290   3.103  1.1432  0.0769 -3.6377
   80MOL   C21041448   8.078   3.006   3.252  0.0363  0.2841 -0.6634
   80MOL   C21141449   8.222   2.975   3.296 -0.0473  0.1517 -0.7647
   80MOL   N21241450   0.010   2.858   3.379  0.9252  0.3084  0.0528
   80MOL   C21341451   0.070   2.860   3.502 -0.9528 -0.0389  0.2311
   80MOL   C21441452   0.047   2.737   3.563  0.7035 -0.0367  0.3496
   80MOL   C21541453   0.088   2.712   3.700  0.2173 -0.8115 -0.8261
   80MOL   C21641454   0.169   2.807   3.777  0.7755 -0.3282 -0.1889
   80MOL   C21741455   0.185   2.932   3.711 -0.1743 -0.4781  0.6368
   80MOL   C21841456   0.131   2.957   3.582  0.1860  0.1129  0.3845
   80MOL   C21941457   8.208   2.646   3.464  0.1217  0.5227 -0.5455
   80MOL   C22041458   8.185   2.728   3.352 -0.2119  0.8516  0.2664
   80MOL   C22141459   8.118   2.678   3.239  0.4514 -0.3270  0.3807
   80MOL   C22241460   8.085   2.543   3.234  0.1133  0.2622  0.4438
   80MOL   C22341461   8.111   2.459   3.339  0.1737 -0.3315 -0.1171
   80MOL   C22441462   8.160   2.511   3.459  0.0527 -0.3857  0.4526
   80MOL   H22541463   8.059   2.945   3.164  1.8064  0.2868 -1.0541
   80MOL   H22641464   8.083   3.108   3.216 -2.3909  0.1007 -1.6172
   80MOL   H22741465   0.010   3.064   3.357  0.9335 -2.1277  2.4382
   80MOL   H22841466   0.066   2.623   3.758  1.0861  0.1053  0.9683
   80MOL   H22941467   0.203   2.790   3.878  3.0028  0.4076 -0.7754
   80MOL   H23041468   0.244   3.011   3.757  1.8517 -2.0999  0.8840
   80MOL   H23141469   0.140   3.052   3.531 -1.0712  0.0022 -0.0442
   80MOL   H23241470   8.097   2.742   3.155 -0.3021 -0.6985  0.2844
   80MOL   H23341471   8.052   2.504   3.139 -1.9583 -1.7450  1.9294
   80MOL   H23441472   8.076   2.357   3.334 -0.5331 -0.0709 -0.5701
   80MOL   H23541473   8.187   2.447   3.542  0.9644 -0.0586  0.4059
   80MOL   C23641474   0.083   2.974   3.170 -0.3253 -0.1927 -0.3967
   80MOL   C23741475   0.096   3.111   3.097 -0.1893 -0.0798 -0.4722
   80MOL   N23841476   0.138   3.226   3.178 -0.3066 -0.2717 -0.0042
   80MOL   C23941477   0.085   3.356   3.186 -0.2364 -0.8164 -0.2527
   80MOL   C24041478   0.170   3.435   3.269  0.3184  0.9340 -0.8979
   80MOL   C24141479   0.145   3.574   3.282 -0.4930 -0.3769 -0.8222
   80MOL   C24241480   0.027   3.629   3.225  0.4418  0.0955  0.0401
   80MOL   C24341481   8.167   3.552   3.152  0.3440  0.8631 -0.6753
   80MOL   C24441482   8.195   3.410   3.129 -0.0307  0.1909 -0.0913
   80MOL   C24541483   0.275   3.353   3.316  0.3495  0.4225  0.5311
   80MOL   C24641484   0.252   3.224   3.258 -0.0633  0.2878  0.2218
   80MOL   C24741485   0.358   3.129   3.270 -0.1225 -0.3959 -0.8806
   80MOL   C24841486   0.472   3.152   3.349 -0.2834  0.1496 -0.4425
   80MOL   C24941487   0.478   3.271   3.424  0.1004 -0.9949 -0.0284
   80MOL   C25041488   0.384   3.373   3.407 -1.3835  0.1024  0.6032
   80MOL   H25141489   0.182   2.939   3.199 -0.2789 -1.2063 -1.7398
   80MOL   H25241490   0.052   2.892   3.105 -0.2343 -0.4607 -0.1036
   80MOL   H25341491   0.002   3.149   3.058 -0.0530 -0.4796 -1.1966
   80MOL   H25441492   0.216   3.615   3.352 -0.8143 -0.6285 -0.3476
   80MOL   H25541493   0.007   3.735   3.233  0.2626 -0.0343  1.4088
   80MOL   H25641494   8.081   3.586   3.096  0.9279  0.1536 -2.0168
   80MOL   H25741495   8.132   3.351   3.063  0.8851  0.4912 -1.2422
   80MOL   H25841496   0.351   3.032   3.223 -0.5528 -0.9865  0.3946
   80MOL   H25941497   0.551   3.079   3.358 -0.9190 -0.5186 -0.1864
   80MOL   H26041498   0.561   3.290   3.489 -0.3102 -0.5378  0.3622
   80MOL   H26141499   0.401   3.473   3.444  2.0249 -0.2651  0.1672
   80MOL   C26241500   0.175   3.097   2.963  0.1885  0.6239  0.0159
   80MOL   C26341501   0.084   3.022   2.856  0.4335  0.1213  0.2699
   80MOL   N26441502   8.182   3.081   2.826 -0.3929 -0.0390 -0.9407
   80MOL   C26541503   8.057   3.024   2.842 -0.7806  0.1534  0.2254
   80MOL   C26641504   7.953   3.116   2.835 -0.0988  0.4608 -0.5716
   80MOL   C26741505   7.822   3.067   2.851 -0.5706 -0.4219 -0.3334
   80MOL   C26841506   7.795   2.939   2.893  0.4279  0.3415  0.0720
   80MOL   C26941507   7.897   2.839   2.898 -0.1115 -0.1639  0.0331
   80MOL   C27041508   8.028   2.885   2.874 -0.0935 -0.0127 -0.4899
   80MOL   C27141509   8.019   3.244   2.805 -0.0727  0.0762  0.6433
   80MOL   C27241510   8.161   3.220   2.795 -0.0560 -0.1413  0.0313
   80MOL   C27341511   0.024   3.324   2.752  0.4844  0.3591  0.0254
   80MOL   C27441512   8.197   3.452   2.723  0.0734  0.3355  0.0506
   80MOL   C27541513   8.061   3.483   2.746 -0.1604  0.2240 -0.1099
   80MOL   C27641514   7.978   3.379   2.796  0.3322 -0.1249 -0.4316
   80MOL   H27741515   0.207   3.198   2.936  1.3755  0.1534 -0.3260
   80MOL   H27841516   0.264   3.037   2.977 -0.4319 -0.3150  0.0160
   80MOL   H27941517   0.058   2.929   2.907 -0.6155  0.1362 -0.2287
   80MOL   H28041518   7.735   3.132   2.845  0.0864  0.9600  3.5024
   80MOL   H28141519   7.694   2.905   2.909 -0.5913  1.4083 -3.5453
   80MOL   H28241520   7.888   2.736   2.929 -0.7599 -0.0168  0.3252
   80MOL   H28341521   8.107   2.812   2.888  1.4434  1.7977  0.5272
   80MOL   H28441522   0.126   3.289   2.750  0.7287  1.1378 -1.6878
   80MOL   H28541523   0.032   3.536   2.698  1.0845 -0.4740 -0.1899
   80MOL   H28641524   8.021   3.583   2.737 -0.6703  0.0780  0.4809
   80MOL   H28741525   7.878   3.404   2.827  0.4485  0.4875 -0.5433
   80MOL   C28841526   0.157   2.975   2.731  0.3428  0.0909 -1.1141
   80MOL   C28941527   0.260   2.861   2.751  1.0719  0.0099 -0.2271
   80MOL   N29041528   0.213   2.745   2.837 -0.5209  0.0803 -0.5531
   80MOL   C29141529   0.255   2.721   2.972 -0.6024 -0.1998  0.0263
   80MOL   C29241530   0.178   2.618   3.028  0.3069  0.4541 -0.1935
   80MOL   C29341531   0.191   2.582   3.162  0.6954 -0.2719  0.1829
   80MOL   C29441532   0.270   2.659   3.244 -0.6548  0.3660 -0.2441
   80MOL   C29541533   0.354   2.754   3.190 -0.5091  0.7141  0.2551
   80MOL   C29641534   0.344   2.789   3.051  0.0794 -0.3251  0.3405
   80MOL   C29741535   0.092   2.565   2.922 -0.1017 -0.6860  0.3051
   80MOL   C29841536   0.112   2.655   2.812 -0.3682 -0.1650 -0.2857
   80MOL   C29941537   0.030   2.632   2.695 -0.0451  0.0161  0.0126
   80MOL   C30041538   8.170   2.522   2.684 -0.5726  0.1957  0.2340
   80MOL   C30141539   8.155   2.435   2.793 -0.4468 -0.2473 -0.0654
   80MOL   C30241540   0.005   2.455   2.908  0.8062 -0.0287 -0.8666
   80MOL   H30341541   0.076   2.932   2.671 -1.4701 -0.7077  1.7753
   80MOL   H30441542   0.195   3.053   2.665  1.5346  0.8413  0.4458
   80MOL   H30541543   0.336   2.914   2.808 -0.4265  1.4451  0.4813
   80MOL   H30641544   0.130   2.503   3.204 -0.5896  0.2666 -0.6056
   80MOL   H30741545   0.273   2.627   3.347 -3.4984 -2.1143 -0.9001
   80MOL   H30841546   0.427   2.811   3.245 -1.0999  0.2840  1.4798
   80MOL   H30941547   0.404   2.865   3.002 -0.7163 -0.7928 -1.4245
   80MOL   H31041548   0.051   2.692   2.608 -0.0887 -1.4352 -1.0260
   80MOL   H31141549   8.108   2.507   2.597 -0.6990  3.8107 -0.3997
   80MOL   H31241550   8.081   2.356   2.798  0.7744 -1.4307 -0.4041
   80MOL   H31341551   8.215   2.392   2.994 -0.6560  1.2383 -0.2088
   80MOL   C31441552   0.326   2.819   2.615  0.1015 -1.0451 -0.3267
   80MOL   C31541553   0.431   2.919   2.559 -0.0240  1.0260 -0.1125
   80MOL   N31641554   0.544   2.946   2.651 -0.3113 -0.1600 -0.3332
   80MOL   C31741555   0.580   3.063   2.719  0.0190  0.0496 -0.7121
   80MOL   C31841556   0.700   3.046   2.793  0.0243 -0.3013  0.3652
   80MOL   C31941557   0.757   3.149   2.868  0.0711 -0.2918  0.4928
   80MOL   C32041558   0.694   3.273   2.871 -0.8051 -0.0418  0.1973
   80MOL   C32141559   0.574   3.293   2.805  0.2293  0.4109  1.0593
   80MOL   C32241560   0.510   3.188   2.727 -0.0048 -0.8930 -0.8667
   80MOL   C32341561   0.743   2.911   2.774  0.7683  0.1380  0.2907
   80MOL   C32441562   0.640   2.849   2.690  0.3481  0.2491 -0.0591
   80MOL   C32541563   0.647   2.716   2.646  0.5858 -0.4873 -0.8409
   80MOL   C32641564   0.758   2.640   2.694 -0.8002 -0.4629 -0.7662
   80MOL   C32741565   0.852   2.696   2.787  0.5580  0.3035  0.3261
   80MOL   C32841566   0.843   2.831   2.823 -0.5297  0.0695 -0.6773
   80MOL   H32941567   0.383   2.727   2.628 -0.5818 -1.2145  1.5346
   80MOL   H33041568   0.252   2.792   2.539 -2.1684  0.0812  1.4200
   80MOL   H33141569   0.402   3.022   2.538 -0.3995  1.0175  0.3485
   80MOL   H33241570   0.851   3.125   2.917  1.0018 -0.0994 -1.1590
   80MOL   H33341571   0.742   3.352   2.927  0.0851 -0.2413 -0.2625
   80MOL   H33441572   0.522   3.387   2.815 -0.4615 -0.1634  3.1870
   80MOL   H33541573   0.409   3.204   2.691 -0.5656  1.4062  1.5558
   80MOL   H33641574   0.577   2.669   2.578 -0.3671  0.7540 -0.7292
   80MOL   H33741575   0.765   2.542   2.651 -1.7848 -0.2601 -1.4215
   80MOL   H33841576   0.935   2.631   2.811  0.0842 -0.7518 -0.8082
   80MOL   H33941577   0.924   2.878   2.877  0.3465  0.5175 -2.3307
   80MOL   C34041578   0.474   2.894   2.412 -0.3264 -0.6237  0.1866
   80MOL   C34141579   0.370   2.928   2.303  0.2734 -0.1989 -0.3375
   80MOL   N34241580   0.281   3.042   2.327 -0.3223 -1.0718 -0.3552
   80MOL   C34341581   0.152   3.038   2.378  0.4900  0.9024 -0.1828
   80MOL   C34441582   0.099   3.171   2.394 -0.5447  0.5797 -0.1702
   80MOL   C34541583   8.197   3.189   2.448  0.7350  0.5701  1.1419
   80MOL   C34641584   8.117   3.079   2.476  0.1882 -0.0786 -0.3353
   80MOL   C34741585   8.165   2.947   2.453 -0.3615 -0.3267  0.5435
   80MOL   C34841586   0.072   2.924   2.412 -0.7276 -0.4837  0.0251
   80MOL   C34941587   0.199   3.259   2.350  0.2936 -0.2740  0.4970
   80MOL   C35041588   0.319   3.180   2.322  0.1596  0.1626  0.2017
   80MOL   C35141589   0.441   3.236   2.279  0.5229 -0.1330  0.0883
   80MOL   C35241590   0.439   3.371   2.248 -0.0293 -0.2678 -0.4043
   80MOL   C35341591   0.334   3.459   2.280 -0.2603 -0.2748  0.3253
   80MOL   C35441592   0.213   3.399   2.332 -0.2667 -0.1538 -0.3228
   80MOL   H35541593   0.571   2.944   2.401  0.4678 -2.0383  0.5946
   80MOL   H35641594   0.501   2.793   2.384  0.4394 -0.0530 -1.1709
   80MOL   H35741595   0.308   2.839   2.308  0.1851 -0.1511 -0.6120
   80MOL   H35841596   8.154   3.288   2.458  1.4334  0.8110  1.8339
   80MOL   H35941597   8.011   3.084   2.494 -0.5081 -1.2832 -3.7791
   80MOL   H36041598   8.103   2.859   2.450  0.4125 -0.8249 -1.7267
   80MOL   H36141599   0.113   2.824   2.404  1.9574  0.7385 -2.2317
   80MOL   H36241600   0.512   3.164   2.244  1.5575 -0.5125  2.8455
   80MOL   H36341601   0.515   3.408   2.181 -2.1513  0.3990 -2.5500
   80MOL   H36441602   0.334   3.566   2.267  0.3335 -0.0645  1.9703
   80MOL   H36541603   0.135   3.470   2.358 -0.9671 -0.8084 -0.6257
   80MOL   C36641604   0.412   2.911   2.157  0.3901  0.6799  0.2117
   80MOL   C36741605   0.292   2.927   2.046 -0.1210 -0.1321  0.2106
   80MOL   N36841606   0.275   3.071   2.012 -0.0574  0.3491  0.0453
   80MOL   C36941607   0.156   3.144   2.024 -0.7177 -0.2845  0.5323
   80MOL   C37041608   0.181   3.278   1.979 -0.0140 -0.1688 -0.6586
   80MOL   C37141609   0.073   3.370   1.983 -0.5424  0.0187 -0.6724
   80MOL   C37241610   8.170   3.328   2.010  0.0465  0.1658  0.7389
   80MOL   C37341611   8.153   3.199   2.062  0.8044  0.0655 -0.3344
   80MOL   C37441612   0.028   3.106   2.067 -0.5888 -0.4628  0.1367
   80MOL   C37541613   0.315   3.286   1.935 -0.0540 -0.8489  0.1227
   80MOL   C37641614   0.363   3.156   1.954 -0.5181  0.3144 -0.1409
   80MOL   C37741615   0.500   3.134   1.919  0.4379 -0.4407 -0.4207
   80MOL   C37841616   0.583   3.246   1.887  0.2455  0.1486  0.0189
   80MOL   C37941617   0.531   3.373   1.870 -0.5373 -0.1388  0.1110
   80MOL   C38041618   0.395   3.395   1.896 -0.2640  0.0608  0.3300
   80MOL   H38141619   0.490   2.981   2.128  0.0158  1.3473  0.8297
   80MOL   H38241620   0.455   2.811   2.144 -1.8972 -0.3051  0.0372
   80MOL   H38341621   0.200   2.897   2.096  0.0662 -2.0338 -0.5382
   80MOL   H38441622   0.096   3.469   1.946  0.1891 -0.3737 -1.2846
   80MOL   H38541623   8.090   3.400   2.010 -0.5720 -0.5202 -0.0320
   80MOL   H38641624   8.055   3.161   2.087  0.5210  2.0175  1.5921
   80MOL   H38741625   0.005   3.002   2.085 -1.0455 -0.1181  1.6547
   80MOL   H38841626   0.536   3.033   1.926 -0.1397 -0.5069  1.6571
   80MOL   H38941627   0.688   3.224   1.876 -0.4088 -1.7846 -2.6743
   80MOL   H39041628   0.595   3.451   1.832  2.1028 -2.6771 -0.8766
   80MOL   H39141629   0.364   3.498   1.889  0.4174  0.2190 -0.4514
   80MOL   C39241630   0.309   2.836   1.917  0.6062  0.1522  0.4413
   80MOL   C39341631   0.321   2.681   1.956 -0.2390  0.5701  0.4259
   80MOL   N39441632   0.246   2.640   2.078 -0.1671  0.0878 -0.3619
   80MOL   C39541633   0.294   2.576   2.190  0.3983  0.5405 -0.2584
   80MOL   C39641634   0.189   2.557   2.284 -0.0995  0.5233 -0.2512
   80MOL   C39741635   0.224   2.500   2.408 -0.5830  0.9854  0.2650
   80MOL   C39841636   0.352   2.439   2.427  0.2267  0.1407 -0.7486
   80MOL   C39941637   0.455   2.465   2.340 -0.0631 -0.1133  0.6760
   80MOL   C40041638   0.424   2.536   2.219 -0.5096  0.0644 -0.2551
   80MOL   C40141639   0.068   2.607   2.219  0.1182 -0.0597  0.4595
   80MOL   C40241640   0.108   2.661   2.094  0.1418  1.0008 -0.2078
   80MOL   C40341641   0.010   2.714   2.013  0.0593 -0.1798 -0.5133
   80MOL   C40441642   8.099   2.708   2.049 -0.0538 -0.3680 -0.3255
   80MOL   C40541643   8.058   2.650   2.172 -0.6802  0.2714  0.7791
   80MOL   C40641644   8.159   2.603   2.257  0.3372  0.5814 -0.2854
   80MOL   H40741645   0.222   2.850   1.852  1.1821  1.5309 -0.0532
   80MOL   H40841646   0.388   2.873   1.852  0.8765  1.5182  1.5208
   80MOL   H40941647   0.427   2.672   1.981  0.1153 -0.3792 -1.3204
   80MOL   H41041648   0.140   2.490   2.475 -1.4721  0.8517 -0.8484
   80MOL   H41141649   0.372   2.390   2.521  0.3464 -1.6125 -1.6632
   80MOL   H41241650   0.549   2.416   2.361  0.2186  0.6610  1.2348
   80MOL   H41341651   0.501   2.551   2.145 -0.8264  0.7771 -0.4460
   80MOL   H41441652   0.033   2.768   1.922 -3.2805  1.5456 -0.3976
   80MOL   H41541653   8.027   2.742   1.975  0.5485 -1.5202 -1.4647
   80MOL   H41641654   7.951   2.657   2.181 -0.7670  1.0731 -0.6399
   80MOL   H41741655   8.133   2.554   2.350  1.6445 -1.9207 -1.1930
   80MOL   C41841656   0.288   2.585   1.840  0.4025 -0.4429 -0.8073
   80MOL   C41941657   0.331   2.437   1.869 -0.7135 -0.2962  0.4625
   80MOL   N42041658   0.218   2.338   1.885  0.0054 -0.3143  0.7369
   80MOL   C42141659   0.203   2.245   1.997  0.5484 -0.0920  0.2000
   80MOL   C42241660   0.097   2.154   1.974  0.0350 -0.4445  0.3362
   80MOL   C42341661   0.061   2.058   2.071  0.0543  0.0816  0.3077
   80MOL   C42441662   0.140   2.040   2.184 -0.1975 -0.3007  0.1088
   80MOL   C42541663   0.248   2.129   2.204  0.0946  0.0904  0.6667
   80MOL   C42641664   0.283   2.232   2.112 -0.0851 -0.0429  0.7104
   80MOL   C42741665   0.034   2.202   1.851 -0.1417  0.9095 -0.0240
   80MOL   C42841666   0.107   2.315   1.804 -0.0187  0.4625  0.4016
   80MOL   C42941667   0.071   2.382   1.689  0.1893  0.1495  0.4675
   80MOL   C43041668   8.183   2.338   1.616 -0.7356  0.0093  0.0561
   80MOL   C43141669   8.105   2.230   1.663  0.0777 -0.4190 -0.2760
   80MOL   C43241670   8.146   2.163   1.776  0.3987 -0.0622 -0.4088
   80MOL   H43341671   0.182   2.605   1.823  0.7977  3.2426  0.5797
   80MOL   H43441672   0.330   2.624   1.747  0.6863 -0.8348 -0.8432
   80MOL   H43541673   0.384   2.429   1.964  1.1163  2.3631 -0.2840
   80MOL   H43641674   8.210   1.985   2.055  0.0451  0.1340  0.1157
   80MOL   H43741675   0.124   1.966   2.261 -0.3274 -0.2023  0.1775
   80MOL   H43841676   0.311   2.112   2.290 -1.0887  0.4539  1.6098
   80MOL   H43941677   0.371   2.291   2.132  0.7464 -0.8439 -0.5068
   80MOL   H44041678   0.123   2.464   1.644 -1.1287  0.3588 -0.7057
   80MOL   H44141679   8.143   2.392   1.532  0.7531 -0.4626 -0.9931
   80MOL   H44241680   8.017   2.202   1.607  0.3888 -1.6784 -0.1485
   80MOL   H44341681   8.086   2.081   1.814  0.5931  0.0399  0.1264
   80MOL   C44441682   0.423   2.385   1.758  0.0717  0.1446  0.0262
   80MOL   C44541683   0.568   2.449   1.761 -0.1977  0.0586  1.0956
   80MOL   N44641684   0.651   2.425   1.885 -0.5044 -0.0484  0.1758
   80MOL   C44741685   0.691   2.517   1.978 -0.1129 -0.4829  0.2850
   80MOL   C44841686   0.763   2.460   2.089  0.0243  0.7340 -0.3568
   80MOL   C44941687   0.803   2.537   2.198  0.7112  0.5024  0.4619
   80MOL   C45041688   0.786   2.681   2.187 -0.2533 -0.3440 -0.2225
   80MOL   C45141689   0.727   2.743   2.074  0.8839  0.4480 -0.0875
   80MOL   C45241690   0.673   2.659   1.972 -0.6928 -0.5119 -0.1349
   80MOL   C45341691   0.761   2.317   2.060  0.0726 -0.4932 -0.1874
   80MOL   C45441692   0.694   2.302   1.932 -0.5666 -0.0468 -0.2309
   80MOL   C45541693   0.670   2.173   1.875 -0.6894  0.3933 -0.3344
   80MOL   C45641694   0.701   2.064   1.956 -0.0227 -0.0732 -0.4173
   80MOL   C45741695   0.776   2.074   2.069  0.2426  0.0734  0.1615
   80MOL   C45841696   0.808   2.200   2.124  0.1581 -0.0760 -0.4323
   80MOL   H45941697   0.432   2.276   1.759  0.4062  0.1825  0.9054
   80MOL   H46041698   0.372   2.410   1.664 -1.6180 -2.3201  0.2294
   80MOL   H46141699   0.555   2.558   1.762  3.0802  0.6432 -3.4890
   80MOL   H46241700   0.847   2.494   2.287  0.9450 -0.9753 -0.3603
   80MOL   H46341701   0.817   2.735   2.276 -0.2869  0.2836 -0.5860
   80MOL   H46441702   0.718   2.851   2.074 -2.3437  0.2455 -1.5872
   80MOL   H46541703   0.619   2.707   1.892 -2.5576 -0.0468  1.3637
   80MOL   H46641704   0.618   2.157   1.781 -3.1562 -0.3960  1.1051
   80MOL   H46741705   0.677   1.969   1.911  2.0979 -0.9661  0.2870
   80MOL   H46841706   0.817   1.985   2.116 -1.3476 -0.9795 -0.4030
   80MOL   H46941707   0.870   2.205   2.213  0.3174  0.1903 -0.5586
   80MOL   C47041708   0.651   2.412   1.633  0.3273  0.3617 -0.5460
   80MOL   C47141709   0.603   2.468   1.498  0.1131 -0.2662  0.4474
   80MOL   N47241710   0.551   2.606   1.517 -0.5571 -0.1510 -0.2800
   80MOL   C47341711   0.419   2.645   1.486  0.6023 -0.4209  0.5399
   80MOL   C47441712   0.408   2.785   1.520  0.2453  0.1201  0.5244
   80MOL   C47541713   0.280   2.852   1.505 -0.3439 -0.5212  0.2685
   80MOL   C47641714   0.173   2.776   1.451  0.3023  0.1878  0.4336
   80MOL   C47741715   0.190   2.642   1.422 -0.3404 -0.0964  0.0940
   80MOL   C47841716   0.312   2.573   1.442  0.6962  0.7054  0.2375
   80MOL   C47941717   0.528   2.826   1.584 -1.0801  0.0744  0.3893
   80MOL   C48041718   0.621   2.713   1.573 -0.2886 -0.0511  0.6883
   80MOL   C48141719   0.749   2.723   1.622 -0.2940  0.0354 -0.5876
   80MOL   C48241720   0.792   2.837   1.692 -0.0839  0.4589  0.0953
   80MOL   C48341721   0.703   2.944   1.713  0.4981  0.3988 -1.5712
   80MOL   C48441722   0.575   2.936   1.658 -0.3773 -1.4351  0.5152
   80MOL   H48541723   0.753   2.446   1.652  0.5995 -1.5418  1.6731
   80MOL   H48641724   0.670   2.304   1.631 -0.1400  0.2860 -1.1276
   80MOL   H48741725   0.528   2.399   1.460  0.3724 -1.1308  1.4773
   80MOL   H48841726   0.261   2.957   1.521 -0.4952 -0.4422 -0.4085
   80MOL   H48941727   0.082   2.832   1.435 -0.4510 -1.1856 -0.2573
   80MOL   H49041728   0.108   2.580   1.389 -0.5413  0.3548 -0.2627
   80MOL   H49141729   0.325   2.468   1.424  2.7165  1.3092 -2.0764
   80MOL   H49241730   0.822   2.644   1.630 -0.8327 -0.4320 -0.1593
   80MOL   H49341731   0.890   2.841   1.736 -0.7775 -1.5846  1.9142
   80MOL   H49441732   0.732   3.038   1.759 -0.1959 -1.4276  2.8703
   80MOL   H49541733   0.506   3.014   1.687  0.9818  0.4170 -1.0993
   80MOL   C49641734   0.721   2.461   1.392 -0.2828  0.1629  0.6038
   80MOL   C49741735   0.688   2.512   1.250 -0.1507 -0.1271 -0.0256
   80MOL   N49841736   0.575   2.436   1.193  0.1730  0.2550 -0.3892
   80MOL   C49941737   0.564   2.303   1.154 -0.3018 -0.2396  0.3108
   80MOL   C50041738   0.429   2.285   1.113 -0.0700  0.2144 -0.1303
   80MOL   C50141739   0.388   2.151   1.090  0.5595  0.2902  0.7425
   80MOL   C50241740   0.487   2.043   1.093  0.5255 -1.0346  0.8316
   80MOL   C50341741   0.615   2.072   1.137 -0.1567 -0.7360  0.4222
   80MOL   C50441742   0.654   2.199   1.171 -0.0832 -0.6364 -0.0252
   80MOL   C50541743   0.362   2.404   1.113  0.3640 -0.2393  0.2489
   80MOL   C50641744   0.453   2.503   1.149  0.5212  0.1970  0.1885
   80MOL   C50741745   0.413   2.639   1.149 -0.4088  0.2944  0.0550
   80MOL   C50841746   0.288   2.682   1.095 -0.8271  0.1317  0.3948
   80MOL   C50941747   0.195   2.584   1.066  0.4648  0.2426 -0.2746
   80MOL   C51041748   0.235   2.448   1.071 -0.1680  0.0450 -0.0434
   80MOL   H51141749   0.809   2.512   1.431  1.5589 -2.4346 -0.0292
   80MOL   H51241750   0.758   2.359   1.389 -2.0951 -0.5086  0.6048
   80MOL   H51341751   0.774   2.499   1.184  0.7663 -1.4241  1.3795
   80MOL   H51441752   0.290   2.128   1.050  0.0821 -0.5766  2.3727
   80MOL   H51541753   0.463   1.941   1.067  0.6306 -1.1311  1.1104
   80MOL   H51641754   0.683   1.987   1.141  1.7897  0.7268 -0.4414
   80MOL   H51741755   0.757   2.218   1.199  0.3799  0.0995 -2.1844
   80MOL   H51841756   0.489   2.712   1.173  0.0041  0.1441 -0.7654
   80MOL   H51941757   0.273   2.788   1.080 -5.9077 -0.8407 -2.4537
   80MOL   H52041758   0.101   2.609   1.019  1.9328  2.8260 -1.9636
   80MOL   H52141759   0.163   2.379   1.030 -1.4907  1.7719 -0.7077
   80MOL   H52241760   0.666   2.618   1.259  2.4217  0.4637 -0.3105
   81MOL     C141761   4.979   1.627   5.172 -0.1511  0.2385  0.0831
   81MOL     C241762   4.949   1.631   5.327 -0.3838  0.0202 -0.1060
   81MOL     N341763   4.874   1.519   5.384 -0.4000  0.0372  0.2757
   81MOL     C441764   4.772   1.527   5.476  0.4684  0.6937  0.0425
   81MOL     C541765   4.721   1.396   5.501  0.8220  0.6258  0.1148
   81MOL     C641766   4.600   1.382   5.574  0.0138  0.1029  0.7587
   81MOL     C741767   4.541   1.491   5.639  0.6447  0.6826  0.2593
   81MOL     C841768   4.606   1.614   5.639 -0.4421 -0.4132 -0.1413
   81MOL     C941769   4.720   1.634   5.555 -0.3604 -0.2886  0.1558
   81MOL    C1041770   4.802   1.305   5.424 -0.2245  1.0123 -0.6227
   81MOL    C1141771   4.903   1.381   5.363  0.1482  0.3874 -0.0343
   81MOL    C1241772   5.000   1.309   5.283 -0.4411 -0.1890 -0.0147
   81MOL    C1341773   4.997   1.170   5.270 -0.2815  0.4450 -0.7381
   81MOL    C1441774   4.890   1.092   5.329  0.3257 -0.0613  0.1123
   81MOL    C1541775   4.795   1.163   5.402 -0.0817 -0.1157  0.4328
   81MOL    H1641776   4.903   1.572   5.118  0.5364  0.3370 -1.0128
   81MOL    H1741777   5.069   1.566   5.160 -0.2546 -0.0851  0.9750
   81MOL    H1841778   4.893   1.722   5.349  0.5740  0.5263  0.3038
   81MOL    H1941779   4.558   1.283   5.584 -1.9608  1.0000  1.5203
   81MOL    H2041780   4.457   1.463   5.701  1.1727  1.9296  1.5836
   81MOL    H2141781   4.561   1.697   5.691  2.4509  1.9946 -1.3345
   81MOL    H2241782   4.768   1.731   5.551 -0.0169 -0.4154  1.0594
   81MOL    H2341783   5.073   1.370   5.233 -1.7604  0.2589 -1.4387
   81MOL    H2441784   5.076   1.118   5.219 -1.1986 -1.9385  0.1912
   81MOL    H2541785   4.887   0.984   5.326 -0.7426 -0.0677  0.9712
   81MOL    H2641786   4.708   1.109   5.435 -1.3698  0.0087 -2.5277
   81MOL    H2741787   5.010   1.724   5.132  0.3377 -0.1892 -0.6022
   81MOL    C2841788   5.083   1.650   5.409 -0.0007  0.0040  0.7321
   81MOL    C2941789   5.169   1.781   5.399  0.4849  0.4098 -0.0037
   81MOL    N3041790   5.099   1.897   5.459  0.3225  0.6080 -0.3600
   81MOL    C3141791   5.010   1.990   5.393 -0.2312  0.3858 -0.1766
   81MOL    C3241792   4.964   2.090   5.479 -0.0956  0.1522 -0.2144
   81MOL    C3341793   4.865   2.173   5.435  0.0578  0.2518 -0.1003
   81MOL    C3441794   4.814   2.169   5.306 -0.5236 -0.0335  0.2320
   81MOL    C3541795   4.869   2.073   5.221 -0.4557 -0.3741 -0.0862
   81MOL    C3641796   4.968   1.984   5.265  0.5830  0.6747  0.8730
   81MOL    C3741797   5.035   2.063   5.606  0.2547 -0.2083  0.6157
   81MOL    C3841798   5.101   1.936   5.597  0.1695  0.0084  0.7032
   81MOL    C3941799   5.163   1.882   5.712 -0.2100 -0.4731 -0.0210
   81MOL    C4041800   5.164   1.955   5.832 -0.7082 -1.2154 -0.3067
   81MOL    C4141801   5.110   2.082   5.841  0.0160  0.3525 -0.2266
   81MOL    C4241802   5.049   2.132   5.728  0.1130 -0.4667 -0.3062
   81MOL    H4341803   5.042   1.649   5.510  0.1910 -0.2718  0.8094
   81MOL    H4441804   5.153   1.566   5.411 -0.5302 -0.4283  2.1826
   81MOL    H4541805   5.174   1.812   5.295  1.3204 -0.0557 -0.1123
   81MOL    H4641806   4.814   2.235   5.507 -2.2191  1.0554 -2.3238
   81MOL    H4741807   4.748   2.250   5.278 -0.0720  0.5405  0.8282
   81MOL    H4841808   4.839   2.062   5.118 -2.0558  0.7165  0.2271
   81MOL    H4941809   5.015   1.910   5.202  0.0997  1.2338 -0.1520
   81MOL    H5041810   5.194   1.779   5.701  1.9485  0.3009 -1.4531
   81MOL    H5141811   5.212   1.907   5.917 -0.1769 -0.1624 -0.0062
   81MOL    H5241812   5.115   2.130   5.937  1.4807  1.0780 -0.6478
   81MOL    H5341813   4.997   2.227   5.733  4.0366  1.7497  1.0347
   81MOL    C5441814   5.322   1.763   5.448  0.5600  1.0419 -0.3200
   81MOL    C5541815   5.416   1.678   5.364  0.4109 -0.4433 -0.5041
   81MOL    N5641816   5.443   1.726   5.225  0.0865  0.1275 -0.5266
   81MOL    C5741817   5.412   1.653   5.107  0.5329 -0.7412  0.2215
   81MOL    C5841818   5.436   1.731   4.990 -0.2665  0.5636 -0.2010
   81MOL    C5941819   5.410   1.677   4.865  0.1684 -0.3703  0.1186
   81MOL    C6041820   5.365   1.543   4.855 -0.0735 -0.3765  0.1814
   81MOL    C6141821   5.338   1.468   4.967 -0.1071  0.2015 -0.0464
   81MOL    C6241822   5.362   1.525   5.095  0.5933  0.1352 -0.2150
   81MOL    C6341823   5.493   1.854   5.036  0.0492  0.4179  0.2613
   81MOL    C6441824   5.485   1.851   5.180  0.5326 -0.4869 -0.6445
   81MOL    C6541825   5.510   1.966   5.247 -0.2288 -0.3254  0.3876
   81MOL    C6641826   5.557   2.079   5.181 -0.2524 -0.2070  0.0179
   81MOL    C6741827   5.587   2.080   5.038  0.0235  0.1110  0.2814
   81MOL    C6841828   5.545   1.968   4.964  0.5159  0.2176 -0.2929
   81MOL    H6941829   5.363   1.860   5.475  1.3566  0.4956  0.4271
   81MOL    H7041830   5.311   1.717   5.546 -0.3144  2.0356  0.0584
   81MOL    H7141831   5.364   1.583   5.351  2.7391 -1.6038 -1.5859
   81MOL    H7241832   5.437   1.731   4.775  0.1309 -0.1146  0.2615
   81MOL    H7341833   5.348   1.501   4.757 -1.4350  2.4863 -0.8592
   81MOL    H7441834   5.316   1.363   4.953  0.4809 -0.2554  2.2539
   81MOL    H7541835   5.347   1.467   5.185  0.1434 -2.0198 -1.6324
   81MOL    H7641836   5.498   1.968   5.355  2.0294 -1.8082  0.6872
   81MOL    H7741837   5.577   2.166   5.241  2.2098  1.9058 -3.6632
   81MOL    H7841838   5.604   2.176   4.990  1.9108 -0.1813  0.3353
   81MOL    H7941839   5.550   1.979   4.856  0.5661  1.0173 -0.2155
   81MOL    C8041840   5.542   1.617   5.438  0.6989  0.0172 -0.3588
   81MOL    C8141841   5.527   1.513   5.548 -0.6161 -0.3986 -0.0216
   81MOL    N8241842   5.434   1.402   5.524  0.1200  0.1644 -0.6959
   81MOL    C8341843   5.310   1.377   5.592  0.6086 -0.3558  0.2487
   81MOL    C8441844   5.247   1.264   5.530  0.0063 -0.1364 -0.2029
   81MOL    C8541845   5.125   1.228   5.583 -0.7444  0.1306  0.2669
   81MOL    C8641846   5.066   1.304   5.690 -0.3669  0.0325  0.3208
   81MOL    C8741847   5.118   1.420   5.739 -0.7179 -0.4912 -0.2293
   81MOL    C8841848   5.244   1.456   5.687 -0.1784  0.3137  0.4261
   81MOL    C8941849   5.341   1.217   5.427  0.5977  0.1559  0.2803
   81MOL    C9041850   5.452   1.304   5.424  0.0338  0.1225  0.0730
   81MOL    C9141851   5.561   1.283   5.336 -0.7006  0.1140 -0.3504
   81MOL    C9241852   5.554   1.180   5.243  0.2259 -0.6482 -0.1233
   81MOL    C9341853   5.452   1.085   5.252  0.1059 -0.4303  0.1328
   81MOL    C9441854   5.349   1.103   5.344  1.4114  0.1923 -0.0673
   81MOL    H9541855   5.607   1.569   5.364 -0.0662 -1.0690 -0.3470
   81MOL    H9641856   5.607   1.696   5.476 -0.1870  0.8453 -0.5474
   81MOL    H9741857   5.495   1.574   5.633  0.0494  0.5857 -0.4675
   81MOL    H9841858   5.079   1.136   5.550 -0.9965  0.4894 -0.3904
   81MOL    H9941859   4.970   1.261   5.715  0.1404 -2.4325 -1.7839
   81MOL   H10041860   5.073   1.470   5.824 -1.8838  1.1071 -1.7699
   81MOL   H10141861   5.302   1.535   5.733 -0.3133  0.5987  0.1087
   81MOL   H10241862   5.648   1.348   5.342 -0.1711 -0.4767 -1.4708
   81MOL   H10341863   5.629   1.170   5.166  1.3480 -0.6821  0.9452
   81MOL   H10441864   5.439   0.998   5.189 -0.8585  0.2041 -0.5477
   81MOL   H10541865   5.265   1.035   5.340  1.0634  0.6214 -0.1612
   81MOL   C10641866   5.672   1.463   5.598  0.2565 -0.2178  0.0616
   81MOL   C10741867   5.730   1.528   5.722  0.4366  0.6946 -0.1354
   81MOL   N10841868   5.636   1.508   5.837  0.2133  0.1933 -0.2151
   81MOL   C10941869   5.558   1.599   5.900  0.5171  0.0904 -0.0527
   81MOL   C11041870   5.493   1.539   6.011 -0.2599 -0.2631  0.6639
   81MOL   C11141871   5.410   1.622   6.092 -0.1053 -0.3886 -0.7605
   81MOL   C11241872   5.377   1.755   6.060  0.3883 -0.0730  0.2292
   81MOL   C11341873   5.445   1.809   5.949 -0.3045  0.5052  0.8819
   81MOL   C11441874   5.537   1.736   5.869 -0.3028 -0.3930  0.3713
   81MOL   C11541875   5.527   1.399   6.008  0.7903  0.7946  0.7237
   81MOL   C11641876   5.610   1.383   5.895  0.0677 -0.0855 -0.1459
   81MOL   C11741877   5.650   1.253   5.859 -0.0378  0.0458  0.7929
   81MOL   C11841878   5.622   1.140   5.938 -0.1238  0.0081 -0.3329
   81MOL   C11941879   5.543   1.157   6.054  0.2944 -0.1716  0.1889
   81MOL   C12041880   5.492   1.287   6.086  0.0322 -0.4938  1.0262
   81MOL   H12141881   5.678   1.357   5.620  0.6133 -0.0566  0.7471
   81MOL   H12241882   5.740   1.470   5.513  0.7542  1.4471  0.5799
   81MOL   H12341883   5.735   1.636   5.708 -0.3792  0.9297  1.2018
   81MOL   H12441884   5.363   1.593   6.184  0.1681  1.9776  0.1800
   81MOL   H12541885   5.307   1.814   6.117  2.4121  1.6408  0.9836
   81MOL   H12641886   5.419   1.913   5.936  0.0450  0.4070 -0.7969
   81MOL   H12741887   5.591   1.782   5.787  0.1167 -0.4175  0.6290
   81MOL   H12841888   5.713   1.237   5.772 -1.6641 -0.8195 -0.2468
   81MOL   H12941889   5.647   1.041   5.905  1.0915 -0.0830  0.8020
   81MOL   H13041890   5.511   1.067   6.103 -1.0266 -0.0851 -0.4837
   81MOL   H13141891   5.429   1.292   6.174 -1.7348 -0.8465 -0.2023
   81MOL   C13241892   5.871   1.487   5.764  0.1674  0.1428 -0.0756
   81MOL   C13341893   5.988   1.530   5.673  0.3420  0.8378  0.1205
   81MOL   N13441894   5.962   1.665   5.617  0.1575  0.3900 -0.3781
   81MOL   C13541895   5.942   1.704   5.486  0.0048 -0.7437  0.7778
   81MOL   C13641896   5.898   1.840   5.479  0.1648  0.1736 -0.0407
   81MOL   C13741897   5.856   1.880   5.348  0.0761  0.1409  0.2505
   81MOL   C13841898   5.853   1.796   5.241  0.5793  0.6966  0.4018
   81MOL   C13941899   5.910   1.673   5.247 -0.1018 -0.1469 -0.1156
   81MOL   C14041900   5.942   1.624   5.374  0.4227  0.2078 -0.3301
   81MOL   C14141901   5.928   1.894   5.606 -0.0650  0.5818  0.3798
   81MOL   C14241902   5.956   1.783   5.694  0.7805  1.2689 -0.0259
   81MOL   C14341903   5.973   1.806   5.829  0.6703  0.2198  0.0423
   81MOL   C14441904   5.958   1.937   5.876  0.3280 -0.6729  0.4812
   81MOL   C14541905   5.943   2.046   5.791 -0.3922 -0.0392  0.1592
   81MOL   C14641906   5.934   2.024   5.654  0.1821  0.4094  0.9593
   81MOL   H14741907   5.888   1.537   5.859  0.1474 -0.8359  0.4466
   81MOL   H14841908   5.877   1.383   5.794 -1.0966  0.5171  1.5415
   81MOL   H14941909   5.997   1.461   5.589  0.0290 -1.5056  1.9517
   81MOL   H15041910   5.813   1.978   5.336  0.5720  0.5806  1.8580
   81MOL   H15141911   5.816   1.828   5.144 -0.0195 -1.1376  0.0009
   81MOL   H15241912   5.921   1.616   5.155  0.9140  0.4775 -0.3885
   81MOL   H15341913   5.970   1.520   5.380 -2.7333 -0.6254  0.7814
   81MOL   H15441914   5.974   1.724   5.899 -0.6291 -0.7158 -1.0135
   81MOL   H15541915   5.953   1.945   5.984 -2.4908 -1.8332  0.4764
   81MOL   H15641916   5.924   2.139   5.842 -1.2574 -1.5039  2.5790
   81MOL   H15741917   5.938   2.095   5.573  1.3088 -1.2805 -0.4843
   81MOL   C15841918   6.124   1.516   5.740  0.5951 -0.1658  0.5157
   81MOL   C15941919   6.158   1.372   5.784 -0.6210  0.1069  0.5680
   81MOL   N16041920   6.176   1.281   5.665 -0.1937  0.1863  0.2745
   81MOL   C16141921   6.103   1.161   5.646  0.6127 -0.6774 -0.0280
   81MOL   C16241922   6.141   1.106   5.523 -0.1261  0.3116 -0.5720
   81MOL   C16341923   6.078   0.982   5.480 -0.5385  0.3769 -0.0853
   81MOL   C16441924   5.992   0.912   5.564  0.5094 -0.7182 -0.1775
   81MOL   C16541925   5.948   0.970   5.686 -0.3405 -0.3739 -0.2714
   81MOL   C16641926   5.997   1.099   5.721  0.0970 -0.0388 -0.4601
   81MOL   C16741927   6.240   1.190   5.463 -0.1215 -0.3890 -0.1332
   81MOL   C16841928   6.264   1.295   5.559 -0.1410  0.2594 -0.0959
   81MOL   C16941929   6.357   1.392   5.532 -0.1939  0.5247  0.3912
   81MOL   C17041930   6.427   1.391   5.408 -0.5670  0.2090 -0.5590
   81MOL   C17141931   6.407   1.288   5.314 -0.4339  0.4209 -0.2247
   81MOL   C17241932   6.317   1.185   5.348  0.1261  0.0074  0.2363
   81MOL   H17341933   6.206   1.541   5.672  0.6825  0.8923  1.0067
   81MOL   H17441934   6.140   1.583   5.824 -1.1341 -1.3176  1.7754
   81MOL   H17541935   6.073   1.334   5.842 -0.8596 -2.0389 -1.1150
   81MOL   H17641936   6.111   0.937   5.388 -2.2473 -0.2905 -0.3786
   81MOL   H17741937   5.945   0.819   5.536 -1.7337 -0.3955  2.3175
   81MOL   H17841938   5.857   0.931   5.730 -0.5837  0.1831 -0.2754
   81MOL   H17941939   5.958   1.133   5.816 -1.2520  0.5744 -1.2311
   81MOL   H18041940   6.378   1.466   5.607  0.8945  1.3153 -0.6890
   81MOL   H18141941   6.500   1.465   5.380  0.3161 -0.6410 -0.5332
   81MOL   H18241942   6.468   1.293   5.225  1.0682  1.0713  0.8244
   81MOL   H18341943   6.306   1.111   5.271  1.1788  1.7508 -1.6439
   81MOL   C18441944   6.279   1.360   5.871 -0.1894 -0.3024 -0.3639
   81MOL   C18541945   6.260   1.410   6.019 -0.0432  0.8813 -0.0584
   81MOL   N18641946   6.129   1.382   6.079 -0.0250 -0.8257 -0.3986
   81MOL   C18741947   6.041   1.477   6.124 -0.0370  0.6454 -0.4073
   81MOL   C18841948   5.921   1.416   6.171 -0.8440  0.1221 -0.9927
   81MOL   C18941949   5.816   1.501   6.213  0.2232 -0.2140  0.0996
   81MOL   C19041950   5.826   1.644   6.218  0.5918  0.3587  0.0935
   81MOL   C19141951   5.946   1.700   6.173 -0.2357  0.2094 -0.3433
   81MOL   C19241952   6.053   1.620   6.126  0.2977 -0.3283  0.4109
   81MOL   C19341953   5.939   1.277   6.164  0.2827 -0.2478 -0.0989
   81MOL   C19441954   6.074   1.259   6.110 -0.4115  0.0975 -0.2327
   81MOL   C19541955   6.122   1.129   6.091 -0.3725  0.0816 -0.1019
   81MOL   C19641956   6.054   1.012   6.126 -0.0312 -0.4199 -0.7838
   81MOL   C19741957   5.924   1.023   6.178 -0.1877 -0.0901  0.0439
   81MOL   C19841958   5.867   1.153   6.198 -1.0769  0.6904  0.1060
   81MOL   H19941959   6.304   1.254   5.878 -2.9735 -0.9968 -0.4578
   81MOL   H20041960   6.363   1.405   5.818 -0.0367  0.5192  0.5430
   81MOL   H20141961   6.270   1.518   6.011 -2.1424  0.9842 -1.5952
   81MOL   H20241962   5.720   1.463   6.246 -0.1208  1.3070  0.8920
   81MOL   H20341963   5.743   1.700   6.258  0.3345 -1.0322  1.6161
   81MOL   H20441964   5.957   1.807   6.170 -0.5605  0.2836  0.8015
   81MOL   H20541965   6.142   1.674   6.097 -0.6259  0.1310 -1.7156
   81MOL   H20641966   6.225   1.113   6.061 -0.7947 -0.6330 -1.1925
   81MOL   H20741967   6.095   0.913   6.112  0.4936 -0.2806 -0.2818
   81MOL   H20841968   5.861   0.935   6.184 -1.4856  0.6138 -2.5691
   81MOL   H20941969   5.767   1.170   6.237 -0.9665  2.3598 -0.3261
   81MOL   C21041970   6.375   1.376   6.113 -0.6475  0.7631 -0.3475
   81MOL   C21141971   6.516   1.443   6.075 -0.2842  0.2760 -0.1984
   81MOL   N21241972   6.498   1.587   6.062 -0.2147 -0.2918  0.1526
   81MOL   C21341973   6.534   1.663   5.954 -0.1629  0.1941 -0.7398
   81MOL   C21441974   6.518   1.797   5.982 -0.8405  0.3687  0.5580
   81MOL   C21541975   6.555   1.893   5.884  0.5619 -0.8339  0.1809
   81MOL   C21641976   6.601   1.855   5.756  0.1161  0.1181  0.7542
   81MOL   C21741977   6.615   1.718   5.726  0.2059 -0.3183 -0.3218
   81MOL   C21841978   6.590   1.626   5.832  0.2858  0.7091  0.8922
   81MOL   C21941979   6.458   1.810   6.112  1.0767  0.4743 -0.2584
   81MOL   C22041980   6.459   1.681   6.158 -0.3440 -0.3848  0.0174
   81MOL   C22141981   6.425   1.652   6.289  0.0517 -0.8159  0.1173
   81MOL   C22241982   6.373   1.743   6.379 -0.7640 -0.9847  0.1239
   81MOL   C22341983   6.354   1.877   6.332 -0.1618 -0.1403 -0.0945
   81MOL   C22441984   6.412   1.910   6.202  0.1210 -1.1915  0.8329
   81MOL   H22541985   6.340   1.413   6.210  1.4041  1.1758  0.2652
   81MOL   H22641986   6.380   1.268   6.122 -0.2532  0.7085 -1.1451
   81MOL   H22741987   6.544   1.411   5.975  1.3936 -0.1091  0.3866
   81MOL   H22841988   6.545   1.998   5.907 -0.9262 -1.1192  0.8962
   81MOL   H22941989   6.607   1.931   5.679  0.0761 -2.8004 -2.2608
   81MOL   H23041990   6.638   1.686   5.626 -1.3155 -1.3859 -0.3403
   81MOL   H23141991   6.609   1.521   5.814 -1.3842  0.4242  0.7612
   81MOL   H23241992   6.443   1.552   6.325  1.7937 -0.6987 -0.3587
   81MOL   H23341993   6.358   1.714   6.482  2.6225 -1.4668  0.5631
   81MOL   H23441994   6.306   1.946   6.400 -1.8734 -1.7842  0.4243
   81MOL   H23541995   6.413   2.012   6.165 -1.3250 -0.5586  2.4495
   81MOL   C23641996   6.640   1.407   6.158  0.1254  0.2266 -0.6173
   81MOL   C23741997   6.663   1.255   6.154  0.2489 -0.5529  0.0888
   81MOL   N23841998   6.659   1.201   6.010 -0.7424 -0.1780  0.5871
   81MOL   C23941999   6.567   1.098   5.965 -0.1483  0.3289  0.1641
   81MOL   C24042000   6.590   1.066   5.831 -0.4346 -0.1882  0.4693
   81MOL   C24142001   6.504   0.974   5.765 -0.1832 -0.6373  0.4522
   81MOL   C24242002   6.403   0.909   5.837  0.2601 -0.4532  0.2235
   81MOL   C24342003   6.392   0.933   5.976 -0.2368 -0.6436  0.1254
   81MOL   C24442004   6.474   1.027   6.044  0.2297 -0.3245  0.5458
   81MOL   C24542005   6.707   1.133   5.792 -0.0315 -0.1377  0.2128
   81MOL   C24642006   6.735   1.227   5.895  0.1615  0.8267  0.2731
   81MOL   C24742007   6.837   1.325   5.877  0.3472  0.4670 -0.0349
   81MOL   C24842008   6.907   1.329   5.755 -0.3788  0.2679 -0.7204
   81MOL   C24942009   6.880   1.231   5.648  0.2522 -0.4767  0.0704
   81MOL   C25042010   6.783   1.137   5.676  0.5717  0.1604  0.0342
   81MOL   H25142011   6.728   1.458   6.121  0.3411 -0.0417 -0.4772
   81MOL   H25242012   6.624   1.441   6.260 -0.0482 -0.9681 -0.2337
   81MOL   H25342013   6.590   1.199   6.213  0.8374 -0.6855  0.6921
   81MOL   H25442014   6.513   0.941   5.663 -2.1863 -0.9269  0.3562
   81MOL   H25542015   6.332   0.839   5.795  0.7281 -2.3605  2.5067
   81MOL   H25642016   6.323   0.873   6.033 -0.0955  0.3601  1.3969
   81MOL   H25742017   6.470   1.018   6.152 -1.0117 -0.5841  0.4812
   81MOL   H25842018   6.866   1.386   5.962  0.4496 -1.3392  1.2714
   81MOL   H25942019   6.995   1.392   5.744  0.0372 -0.6372 -2.6577
   81MOL   H26042020   6.932   1.226   5.553  0.3841 -2.8882  0.2399
   81MOL   H26142021   6.764   1.069   5.594 -1.9546 -0.7278  1.3300
   81MOL   C26242022   6.802   1.218   6.205 -0.8069  0.0066 -0.1518
   81MOL   C26342023   6.842   1.285   6.340 -0.0632 -0.2274  1.1276
   81MOL   N26442024   6.753   1.247   6.452 -0.5376 -0.0222 -0.0408
   81MOL   C26542025   6.678   1.329   6.533 -0.1270 -0.0856  0.3947
   81MOL   C26642026   6.625   1.249   6.637 -0.3381 -0.1098  0.0513
   81MOL   C26742027   6.534   1.306   6.725 -0.6398 -0.0283 -0.6631
   81MOL   C26842028   6.507   1.444   6.721 -0.0614 -0.9741  0.1463
   81MOL   C26942029   6.572   1.524   6.624 -0.4307 -0.1441  0.4345
   81MOL   C27042030   6.663   1.468   6.533  0.0625  0.4949 -0.4740
   81MOL   C27142031   6.669   1.116   6.622  0.3582  0.1861 -0.0953
   81MOL   C27242032   6.745   1.114   6.504  0.0689 -0.3838  0.7924
   81MOL   C27342033   6.802   0.991   6.460  0.5437  0.3425  0.0659
   81MOL   C27442034   6.782   0.872   6.530 -0.8549  0.3928 -0.2551
   81MOL   C27542035   6.704   0.874   6.643 -0.6544  0.5803  0.1411
   81MOL   C27642036   6.650   0.992   6.693  0.2138 -0.5187  0.4703
   81MOL   H27742037   6.814   1.109   6.208 -1.8310 -0.1052  0.2495
   81MOL   H27842038   6.883   1.255   6.143 -1.3457  0.2697 -0.7029
   81MOL   H27942039   6.831   1.392   6.324  0.2145 -0.2704  0.6354
   81MOL   H28042040   6.480   1.248   6.798 -0.6087  0.5835 -0.1514
   81MOL   H28142041   6.445   1.492   6.795  1.7023  1.3732  0.1946
   81MOL   H28242042   6.570   1.632   6.620 -0.6394 -0.1814 -0.9513
   81MOL   H28342043   6.729   1.522   6.467  0.4068  2.1330  1.1853
   81MOL   H28442044   6.853   0.977   6.366 -1.7149  0.0963 -1.1439
   81MOL   H28542045   6.811   0.777   6.490  0.5083  0.5627  0.3092
   81MOL   H28642046   6.694   0.776   6.688 -1.1241  0.3004 -0.5650
   81MOL   H28742047   6.592   0.999   6.783  1.8554 -2.0136  1.6845
   81MOL   C28842048   6.998   1.268   6.367 -0.0747  0.0207  0.6343
   81MOL   C28942049   7.043   1.346   6.496  0.8614 -0.7918  1.0373
   81MOL   N29042050   7.024   1.269   6.620 -0.1822  0.3024  0.2523
   81MOL   C29142051   6.967   1.325   6.738  0.0030  0.0829 -0.0526
   81MOL   C29242052   6.977   1.228   6.841  0.5284  0.0794 -0.5862
   81MOL   C29342053   6.931   1.264   6.978  0.4735  0.6756  0.6812
   81MOL   C29442054   6.878   1.390   7.003 -0.0967  0.4092 -0.0317
   81MOL   C29542055   6.866   1.482   6.896 -0.8517  0.0938  0.0573
   81MOL   C29642056   6.904   1.449   6.765 -0.0042 -0.0225  0.5155
   81MOL   C29742057   7.041   1.117   6.783  0.9301  0.7495  0.2048
   81MOL   C29842058   7.079   1.149   6.654 -0.7396  0.1205 -1.1332
   81MOL   C29942059   7.158   1.064   6.577  0.6771  0.1957 -0.0095
   81MOL   C30042060   7.204   0.940   6.621  0.2304 -0.3261 -0.2508
   81MOL   C30142061   7.164   0.900   6.750  0.0796  0.3184  0.6406
   81MOL   C30242062   7.086   0.990   6.830  0.1493  0.0583 -0.2589
   81MOL   H30342063   7.010   1.160   6.376  0.4685  0.0860  0.7045
   81MOL   H30442064   7.053   1.308   6.282  2.6631 -1.6871  1.5528
   81MOL   H30542065   6.982   1.436   6.502 -1.2679 -2.1126  0.1097
   81MOL   H30642066   6.945   1.189   7.054  1.4116  1.7365  1.5774
   81MOL   H30742067   6.848   1.420   7.101  0.0707  0.3078  0.0524
   81MOL   H30842068   6.822   1.579   6.914  0.3884  0.2590  2.3831
   81MOL   H30942069   6.879   1.522   6.689  2.1545 -0.4262 -0.6193
   81MOL   H31042070   7.176   1.097   6.475  1.1716  0.1441  0.0598
   81MOL   H31142071   7.262   0.875   6.558  1.0284  0.1660 -0.0360
   81MOL   H31242072   7.190   0.801   6.787 -1.9520 -0.2323  0.6434
   81MOL   H31342073   7.061   0.965   6.932  0.4151  1.5756  0.1951
   81MOL   C31442074   7.187   1.393   6.497  0.2138 -0.2201  0.2089
   81MOL   C31542075   7.223   1.509   6.398 -0.0101 -0.0039  0.5030
   81MOL   N31642076   7.124   1.615   6.386  0.4807  0.0325 -0.2507
   81MOL   C31742077   7.060   1.644   6.269  0.0726 -0.2141 -0.2763
   81MOL   C31842078   6.959   1.739   6.292 -0.1264  0.2774 -0.1239
   81MOL   C31942079   6.878   1.779   6.181  0.4667  0.6939  0.4436
   81MOL   C32042080   6.894   1.731   6.051 -0.3492 -0.0148  0.2296
   81MOL   C32142081   6.989   1.634   6.025  0.0546  0.1999 -0.1889
   81MOL   C32242082   7.071   1.594   6.137 -0.3347  0.1124  0.3375
   81MOL   C32342083   6.962   1.774   6.428  0.0187  0.1913  0.2587
   81MOL   C32442084   7.072   1.699   6.489 -0.1162 -0.5139  0.1380
   81MOL   C32542085   7.101   1.721   6.622 -0.0057 -0.5030  0.5235
   81MOL   C32642086   7.020   1.809   6.703  0.0416 -0.3438  0.3190
   81MOL   C32742087   6.905   1.860   6.648  0.0983  0.5310  0.2583
   81MOL   C32842088   6.880   1.852   6.511 -0.0093  0.6221  0.1912
   81MOL   H32942089   7.208   1.429   6.598 -2.1432  0.3205  0.5197
   81MOL   H33042090   7.252   1.308   6.476 -0.6267 -0.4513 -1.4797
   81MOL   H33142091   7.217   1.454   6.304  1.3014  1.9862 -0.7864
   81MOL   H33242092   6.805   1.857   6.200 -1.9807 -1.2441 -0.8021
   81MOL   H33342093   6.835   1.771   5.970 -2.0425 -2.9746 -0.1027
   81MOL   H33442094   7.003   1.598   5.925  0.5322 -2.4632  0.7955
   81MOL   H33542095   7.151   1.524   6.116  2.9936  3.1712  2.1826
   81MOL   H33642096   7.196   1.692   6.665  0.9017  2.0780  0.3553
   81MOL   H33742097   7.045   1.833   6.805  0.0411  1.9113 -0.1883
   81MOL   H33842098   6.853   1.936   6.706  0.2698  1.2363 -0.5129
   81MOL   H33942099   6.800   1.908   6.465 -0.7863 -1.6086 -1.2944
   81MOL   C34042100   7.362   1.572   6.410  0.1337  0.6387 -0.0853
   81MOL   C34142101   7.474   1.475   6.430 -0.0752 -0.3842 -0.0486
   81MOL   N34242102   7.481   1.364   6.327 -0.2995  0.4117 -0.1226
   81MOL   C34342103   7.491   1.226   6.347 -0.0393 -0.3865 -0.0039
   81MOL   C34442104   7.486   1.154   6.228  0.1865  0.2513  0.2884
   81MOL   C34542105   7.484   1.016   6.234 -0.0380  0.8062 -0.0400
   81MOL   C34642106   7.488   0.951   6.353  0.2119 -0.1239 -0.3353
   81MOL   C34742107   7.505   1.022   6.472  0.4181  0.7893 -0.1141
   81MOL   C34842108   7.501   1.159   6.471  0.1503 -0.4005 -0.4341
   81MOL   C34942109   7.489   1.251   6.122 -0.5249 -0.0383 -0.1799
   81MOL   C35042110   7.473   1.382   6.185 -0.5479  0.2701 -0.2989
   81MOL   C35142111   7.462   1.495   6.106  0.7226  0.7083 -0.4153
   81MOL   C35242112   7.467   1.487   5.967  0.1510 -0.0958  1.0569
   81MOL   C35342113   7.504   1.369   5.905 -0.0385  0.1376  0.3094
   81MOL   C35442114   7.508   1.249   5.979 -0.3342  0.0724 -0.4344
   81MOL   H35542115   7.372   1.639   6.324 -0.4418 -1.1295 -1.5485
   81MOL   H35642116   7.356   1.635   6.499 -3.6160  0.0742  0.1224
   81MOL   H35742117   7.466   1.427   6.528 -1.3918  0.0297  0.0488
   81MOL   H35842118   7.475   0.959   6.143  2.2841 -0.4174  0.4597
   81MOL   H35942119   7.495   0.844   6.353 -2.6802 -0.3495 -0.2489
   81MOL   H36042120   7.523   0.976   6.569  1.5966 -0.2231 -0.7978
   81MOL   H36142121   7.515   1.225   6.556  0.1737  0.7574 -1.3170
   81MOL   H36242122   7.446   1.589   6.155  0.3162 -0.8724  2.5759
   81MOL   H36342123   7.459   1.579   5.910 -1.2562 -0.3441  0.8386
   81MOL   H36442124   7.530   1.368   5.800  0.1816 -0.3684  0.3658
   81MOL   H36542125   7.546   1.160   5.932  1.5297  1.3483 -1.4207
   81MOL   C36642126   7.611   1.553   6.432 -0.3155  0.1896  0.1570
   81MOL   C36742127   7.739   1.465   6.456  0.1631 -0.0251  0.3753
   81MOL   N36842128   7.817   1.440   6.334 -0.1910 -0.0451  0.4567
   81MOL   C36942129   7.866   1.313   6.287 -0.5173  1.0715 -0.7926
   81MOL   C37042130   7.951   1.335   6.177  0.0043 -0.5344 -0.3752
   81MOL   C37142131   7.999   1.226   6.101 -0.5307  0.2956 -0.1198
   81MOL   C37242132   7.958   1.098   6.137  0.4876 -0.2168  0.3833
   81MOL   C37342133   7.883   1.068   6.254  0.3589 -0.0554 -0.4694
   81MOL   C37442134   7.836   1.181   6.330  0.8747 -0.0910 -0.1013
   81MOL   C37542135   7.966   1.473   6.158 -0.2816 -0.3505  0.3776
   81MOL   C37642136   7.882   1.539   6.259 -0.3833 -0.2332 -0.4460
   81MOL   C37742137   7.870   1.681   6.263  0.2377  0.1463 -0.1206
   81MOL   C37842138   7.946   1.758   6.168  0.3049 -0.4841 -0.2046
   81MOL   C37942139   8.020   1.698   6.064  0.1698  0.2837  0.5124
   81MOL   C38042140   8.026   1.555   6.062  0.4522 -0.1667 -0.0546
   81MOL   H38142141   7.623   1.616   6.344 -2.9225  0.0460 -0.3358
   81MOL   H38242142   7.604   1.635   6.503 -0.9455 -0.6790  1.1087
   81MOL   H38342143   7.693   1.369   6.478 -1.5514  0.3642 -1.4511
   81MOL   H38442144   8.063   1.234   6.014 -0.3811  1.4070  0.0885
   81MOL   H38542145   8.004   1.017   6.082 -2.8075 -0.4798 -2.1738
   81MOL   H38642146   7.856   0.967   6.280 -1.8394  0.7465  0.4722
   81MOL   H38742147   7.768   1.161   6.412 -2.5233  2.5815 -2.1410
   81MOL   H38842148   7.804   1.739   6.326  1.3478  2.6785 -1.2172
   81MOL   H38942149   7.926   1.864   6.177 -3.3855 -1.0300 -0.8377
   81MOL   H39042150   8.074   1.747   5.984  0.5682 -2.8252 -1.2186
   81MOL   H39142151   8.085   1.515   5.981  2.4044  1.7981  0.3443
   81MOL   C39242152   7.827   1.495   6.577 -0.2845  0.0424  0.0357
   81MOL   C39342153   7.768   1.498   6.712  0.8415  0.1722  0.7549
   81MOL   N39442154   7.684   1.390   6.748  0.4888  0.0686 -0.0543
   81MOL   C39542155   7.551   1.386   6.790  0.2247 -0.2208 -0.2184
   81MOL   C39642156   7.514   1.257   6.828 -0.9984 -0.1625 -0.2850
   81MOL   C39742157   7.389   1.231   6.885  0.6611 -0.3905 -0.2450
   81MOL   C39842158   7.297   1.331   6.906  0.2611 -0.6120 -0.3171
   81MOL   C39942159   7.329   1.461   6.867 -0.4114  0.3160 -0.1375
   81MOL   C40042160   7.454   1.490   6.808  0.5558 -0.1573  0.8205
   81MOL   C40142161   7.632   1.176   6.816 -0.4753 -1.6241  0.2285
   81MOL   C40242162   7.733   1.260   6.763  0.2622 -0.2335  0.7291
   81MOL   C40342163   7.863   1.211   6.740  0.2135 -0.2642 -0.1531
   81MOL   C40442164   7.894   1.072   6.771 -0.3482 -0.1920 -0.3864
   81MOL   C40542165   7.788   0.989   6.819  0.1994  0.0639 -0.6503
   81MOL   C40642166   7.661   1.044   6.847 -0.0387 -0.5310  0.0807
   81MOL   H40742167   7.911   1.428   6.564 -0.5819 -0.4471  0.5901
   81MOL   H40842168   7.866   1.594   6.556 -0.4310  0.2327  0.6344
   81MOL   H40942169   7.703   1.585   6.711  1.2563  0.4852  1.0409
   81MOL   H41042170   7.362   1.129   6.911 -0.0763 -0.3649 -0.8936
   81MOL   H41142171   7.201   1.301   6.947  0.7648  0.4583  1.7197
   81MOL   H41242172   7.251   1.534   6.878  1.0005  2.0065 -1.1041
   81MOL   H41342173   7.472   1.595   6.788 -1.4781 -0.3267 -2.3319
   81MOL   H41442174   7.952   1.259   6.703  0.3415  0.7593  1.4284
   81MOL   H41542175   7.993   1.029   6.763  0.1950  1.0296 -0.3841
   81MOL   H41642176   7.815   0.888   6.848 -0.5088  0.4574  1.5108
   81MOL   H41742177   7.578   0.998   6.899  0.4269 -1.5771 -0.0851
   81MOL   C41842178   7.871   1.533   6.818  0.3679  0.0914  0.1290
   81MOL   C41942179   7.892   1.685   6.836 -0.5789 -0.9836  0.2270
   81MOL   N42042180   7.768   1.756   6.868 -0.2672 -0.1286  0.1367
   81MOL   C42142181   7.699   1.843   6.779 -0.0579  0.4529 -0.0236
   81MOL   C42242182   7.580   1.883   6.845 -0.3397 -0.3312  0.6391
   81MOL   C42342183   7.491   1.969   6.776  0.7423 -0.3112  1.2777
   81MOL   C42442184   7.507   1.995   6.636  0.1451  0.5286  0.1029
   81MOL   C42542185   7.622   1.956   6.573 -0.6057  0.3235  0.2651
   81MOL   C42642186   7.718   1.880   6.648  0.1390 -1.0434 -0.5406
   81MOL   C42742187   7.581   1.826   6.977  0.0691 -0.1973  0.4612
   81MOL   C42842188   7.697   1.748   6.992  0.5792 -0.0547  0.4152
   81MOL   C42942189   7.719   1.685   7.116  0.1428  0.0797 -0.1264
   81MOL   C43042190   7.630   1.696   7.225 -0.3271  0.0246 -0.0684
   81MOL   C43142191   7.513   1.772   7.206  0.3957  0.6959 -0.2794
   81MOL   C43242192   7.490   1.838   7.081  0.0215  0.2243  0.0148
   81MOL   H43342193   7.831   1.499   6.913 -0.8074  1.4792  0.1440
   81MOL   H43442194   7.959   1.474   6.791 -0.2670  0.6520 -3.4852
   81MOL   H43542195   7.922   1.720   6.737  0.7699  1.2046  1.3766
   81MOL   H43642196   7.397   1.995   6.823 -0.1144 -0.8907 -0.0897
   81MOL   H43742197   7.439   2.061   6.585 -2.3087 -0.4672  2.0285
   81MOL   H43842198   7.648   1.971   6.469 -0.5077  1.4699  0.4532
   81MOL   H43942199   7.813   1.865   6.599  0.3396  1.6142 -1.0302
   81MOL   H44042200   7.808   1.624   7.120 -0.6562 -1.2624 -2.0625
   81MOL   H44142201   7.651   1.642   7.316 -0.2132 -0.1851 -0.2172
   81MOL   H44242202   7.458   1.790   7.297  2.3096 -0.2972  1.1100
   81MOL   H44342203   7.397   1.893   7.077  0.0060  0.3431  1.7896
   81MOL   C44442204   8.009   1.733   6.924 -0.9633  0.2182  0.0091
   81MOL   C44542205   8.156   1.678   6.894  0.5253 -0.0961  0.4098
   81MOL   N44642206   8.176   1.662   6.749 -0.4614 -0.0138 -0.8364
   81MOL   C44742207   8.201   1.541   6.678  0.1422 -0.0960  0.1693
   81MOL   C44842208   8.193   1.569   6.538  0.2500  0.2340 -0.5443
   81MOL   C44942209   8.198   1.462   6.452  0.0073  0.0790  0.4897
   81MOL   C45042210   8.215   1.334   6.502 -0.3065  0.3074 -0.4683
   81MOL   C45142211   0.020   1.313   6.638 -0.6462 -0.3804  0.1822
   81MOL   C45242212   0.008   1.418   6.728  0.9850 -0.1414  0.0165
   81MOL   C45342213   8.182   1.709   6.525  0.2230  0.0332 -0.3084
   81MOL   C45442214   8.170   1.766   6.654 -0.4899 -0.4488  0.1433
   81MOL   C45542215   8.141   1.907   6.664  0.5990 -0.2494 -0.4286
   81MOL   C45642216   8.141   1.984   6.552 -0.2882 -1.1464  0.0202
   81MOL   C45742217   8.161   1.926   6.428  0.9597  0.0912  0.4323
   81MOL   C45842218   8.180   1.792   6.415  0.3448  0.9631  0.5008
   81MOL   H45942219   8.000   1.841   6.914 -0.0498  0.2577 -0.4353
   81MOL   H46042220   7.983   1.709   7.027  1.4228 -1.5080  0.2278
   81MOL   H46142221   8.157   1.582   6.946 -1.3541  0.0874  0.8348
   81MOL   H46242222   8.195   1.464   6.344 -0.2194 -3.1264  0.3786
   81MOL   H46342223   8.217   1.246   6.438  1.0475 -0.5618  0.7354
   81MOL   H46442224   0.051   1.212   6.661 -0.6945 -0.4846 -0.2028
   81MOL   H46542225   0.024   1.405   6.834 -0.7818 -1.6397  0.1265
   81MOL   H46642226   8.138   1.947   6.764  0.7336 -0.1844 -0.4500
   81MOL   H46742227   8.117   2.088   6.566  0.9981 -1.2603  3.3930
   81MOL   H46842228   8.150   1.991   6.343  0.4855 -2.8410 -1.8152
   81MOL   H46942229   8.188   1.746   6.317 -0.7282  3.1211 -0.6470
   81MOL   C47042230   0.041   1.763   6.954  0.3769 -0.8861  1.2782
   81MOL   C47142231   0.041   1.762   7.113  0.1795  0.0040  0.4908
   81MOL   N47242232   0.020   1.628   7.178  0.0722 -0.0559  0.0992
   81MOL   C47342233   8.141   1.599   7.268 -0.1814 -0.2292 -0.4336
   81MOL   C47442234   8.146   1.463   7.305  0.5788 -0.4692  0.0162
   81MOL   C47542235   8.052   1.415   7.398 -0.5039 -0.3215  0.6925
   81MOL   C47642236   7.945   1.496   7.446 -0.6867  0.3465  0.1036
   81MOL   C47742237   7.940   1.631   7.411 -0.8533 -0.7978  0.0515
   81MOL   C47842238   8.038   1.683   7.314  0.6015 -0.4908  0.1981
   81MOL   C47942239   0.038   1.405   7.245 -0.0189  0.3789 -0.5181
   81MOL   C48042240   0.093   1.512   7.164 -0.0862 -0.7990 -0.7476
   81MOL   C48142241   0.202   1.488   7.078  0.0810 -0.1837 -0.4488
   81MOL   C48242242   0.269   1.365   7.080  0.1594 -0.4266 -0.0842
   81MOL   C48342243   0.217   1.259   7.161  0.2273  0.3169  0.2580
   81MOL   C48442244   0.104   1.281   7.239  0.3143  0.6381  0.4501
   81MOL   H48542245   0.131   1.711   6.921 -0.1963 -2.9901  2.9135
   81MOL   H48642246   0.053   1.862   6.911  1.3552 -2.1670 -1.5607
   81MOL   H48742247   8.186   1.826   7.146 -0.5609  0.6471 -2.4727
   81MOL   H48842248   8.051   1.313   7.433 -1.2839 -0.4081  0.4300
   81MOL   H48942249   7.882   1.451   7.521 -1.4106  1.6776  0.3093
   81MOL   H49042250   7.872   1.706   7.449  2.2926  3.3664 -2.1246
   81MOL   H49142251   8.024   1.786   7.286 -0.7140 -0.4077  1.1534
   81MOL   H49242252   0.238   1.566   7.011 -0.6446 -0.7012 -1.4533
   81MOL   H49342253   0.353   1.346   7.015 -0.6423 -2.0367 -0.6826
   81MOL   H49442254   0.258   1.160   7.161 -2.8318 -1.0124 -0.8309
   81MOL   H49542255   0.062   1.193   7.286  0.3397 -0.0114 -0.7339
   81MOL   C49642256   0.166   1.830   7.167 -0.2285 -0.0194  0.1774
   81MOL   C49742257   0.206   1.794   7.312 -0.0446 -0.4392 -0.6045
   81MOL   N49842258   0.311   1.870   7.358  0.1087  0.3309  0.3339
   81MOL   C49942259   0.306   1.995   7.411  0.4229  0.9042 -0.1950
   81MOL   C50042260   0.436   2.043   7.445 -0.3876  0.5764 -0.1032
   81MOL   C50142261   0.456   2.170   7.507  0.5378  0.6330  0.4262
   81MOL   C50242262   0.346   2.252   7.532 -0.4680 -0.1474  1.2721
   81MOL   C50342263   0.215   2.211   7.494 -0.6383  0.5260  0.2320
   81MOL   C50442264   0.198   2.080   7.440  0.0508  0.4317 -0.6688
   81MOL   C50542265   0.525   1.938   7.401 -0.2687 -0.2590  0.1037
   81MOL   C50642266   0.442   1.826   7.366  0.4595  0.2200 -0.1151
   81MOL   C50742267   0.497   1.697   7.352  0.0633  0.0651 -0.1230
   81MOL   C50842268   0.639   1.680   7.354  0.5653  0.4586  0.4065
   81MOL   C50942269   0.722   1.791   7.381  0.7374 -0.3960  0.2306
   81MOL   C51042270   0.664   1.913   7.412 -0.3623 -1.0218 -0.0453
   81MOL   H51142271   0.248   1.826   7.095  0.1852  0.5779  0.6058
   81MOL   H51242272   0.145   1.936   7.175  1.0843  0.3165 -0.6727
   81MOL   H51342273   0.230   1.688   7.322 -0.6339 -0.3598  2.2326
   81MOL   H51442274   0.556   2.190   7.544  0.5119 -2.4081  2.3760
   81MOL   H51542275   0.355   2.346   7.585  1.7528 -0.5615  1.6715
   81MOL   H51642276   0.134   2.269   7.536 -0.3653  1.3051 -0.3087
   81MOL   H51742277   0.099   2.043   7.418 -0.4018  1.0980  0.1985
   81MOL   H51842278   0.430   1.616   7.325 -0.0279  0.1373 -0.1121
   81MOL   H51942279   0.686   1.588   7.323  0.3502  0.3742  0.3275
   81MOL   H52042280   0.828   1.779   7.396  1.2291  1.3928 -1.5709
   81MOL   H52142281   0.715   1.999   7.453 -0.1612 -0.5154 -1.3521
   81MOL   H52242282   0.124   1.809   7.383  0.1676 -0.8246 -0.2743
   82MOL     C142283   2.465   5.566   7.387  0.0310 -0.5243  0.2736
   82MOL     C242284   2.589   5.597   7.477 -0.5245 -0.4259 -0.4206
   82MOL     N342285   2.554   5.674   7.594 -0.0159  0.1712 -0.5695
   82MOL     C442286   2.582   5.809   7.597 -0.0200  0.3386  0.0312
   82MOL     C542287   2.521   5.861   7.712 -0.9220 -0.1932  0.5985
   82MOL     C642288   2.535   5.994   7.744  0.4338 -0.3456  0.0608
   82MOL     C742289   2.612   6.078   7.664 -0.3224 -0.6100 -0.2002
   82MOL     C842290   2.676   6.027   7.553  0.1431 -0.6019  0.1325
   82MOL     C942291   2.665   5.890   7.520  0.1855  0.2439  0.5508
   82MOL    C1042292   2.457   5.756   7.779  0.1710  0.6547 -0.5650
   82MOL    C1142293   2.475   5.639   7.702  0.6777 -0.5185 -0.4556
   82MOL    C1242294   2.422   5.512   7.743  1.0957 -0.5494  0.0852
   82MOL    C1342295   2.348   5.509   7.866 -0.5054  0.3601  0.4137
   82MOL    C1442296   2.334   5.623   7.943  0.1090  0.1200 -0.0187
   82MOL    C1542297   2.391   5.743   7.902  0.2020 -0.3662  0.7559
   82MOL    H1642298   2.410   5.649   7.343  1.8352  1.3235  1.3823
   82MOL    H1742299   2.396   5.498   7.436  1.9301  0.0103  3.8877
   82MOL    H1842300   2.659   5.640   7.405  0.9349 -3.4833 -0.9303
   82MOL    H1942301   2.481   6.031   7.831 -1.2902 -2.3957 -0.0802
   82MOL    H2042302   2.626   6.182   7.688  2.9514 -1.3292  1.3479
   82MOL    H2142303   2.733   6.090   7.487 -1.9522  0.7083 -0.4862
   82MOL    H2242304   2.723   5.846   7.440 -1.2684  0.2062 -0.5095
   82MOL    H2342305   2.430   5.423   7.683  0.4360  0.8382 -2.1214
   82MOL    H2442306   2.315   5.412   7.900  1.6623 -0.7917 -0.6712
   82MOL    H2542307   2.285   5.607   8.038 -0.8626  3.4526  0.0772
   82MOL    H2642308   2.375   5.821   7.976 -4.6964 -2.2865  1.8675
   82MOL    H2742309   2.497   5.517   7.295 -2.2566  0.0350 -0.8316
   82MOL    C2842310   2.672   5.478   7.517 -1.3839  0.2702 -0.1241
   82MOL    C2942311   2.790   5.508   7.618  0.2750 -0.9146  0.0737
   82MOL    N3042312   2.757   5.499   7.760 -0.0584 -0.5525 -0.2533
   82MOL    C3142313   2.810   5.584   7.857  0.0668  0.1944  0.3487
   82MOL    C3242314   2.777   5.545   7.993 -0.3160  0.3134  0.1782
   82MOL    C3342315   2.841   5.616   8.100  0.0209 -0.1270 -0.3665
   82MOL    C3442316   2.907   5.735   8.076 -0.3088 -0.0177 -0.1639
   82MOL    C3542317   2.943   5.770   7.946 -0.3127  0.0023  0.7999
   82MOL    C3642318   2.902   5.690   7.835  0.5140 -0.7108  0.2760
   82MOL    C3742319   2.696   5.430   7.969 -0.5856 -0.4565 -0.7687
   82MOL    C3842320   2.684   5.401   7.829 -0.3974 -0.4132 -0.1541
   82MOL    C3942321   2.629   5.278   7.786 -0.0960 -0.6135  0.6087
   82MOL    C4042322   2.551   5.202   7.869  0.8539 -0.0717  0.2832
   82MOL    C4142323   2.546   5.238   8.004 -0.0945 -0.2741  0.4085
   82MOL    C4242324   2.622   5.345   8.050  0.6279  0.3007 -0.6119
   82MOL    H4342325   2.607   5.399   7.556 -1.5437  1.2249  1.6190
   82MOL    H4442326   2.712   5.446   7.421 -3.0033  0.5850 -0.9190
   82MOL    H4542327   2.810   5.614   7.605 -2.5738 -0.0746  2.0174
   82MOL    H4642328   2.824   5.577   8.200 -0.2277  1.4972  0.2478
   82MOL    H4742329   2.934   5.786   8.167  3.1869 -2.6842  0.4101
   82MOL    H4842330   3.005   5.856   7.927 -0.0037 -0.8811 -2.3950
   82MOL    H4942331   2.927   5.708   7.732  0.2571 -1.4642  0.0802
   82MOL    H5042332   2.642   5.248   7.683 -0.0710  0.1233  0.3968
   82MOL    H5142333   2.493   5.115   7.841  0.7772  0.3135 -0.7841
   82MOL    H5242334   2.486   5.180   8.073 -0.6197 -2.6645 -1.9471
   82MOL    H5342335   2.624   5.362   8.157  0.1750  0.2846 -0.5995
   82MOL    C5442336   2.922   5.425   7.595 -0.1402 -0.1400 -0.1400
   82MOL    C5542337   3.008   5.465   7.466  0.0577 -0.0352 -0.2796
   82MOL    N5642338   3.032   5.609   7.448  0.3395  0.4735 -1.0949
   82MOL    C5742339   2.978   5.692   7.351 -0.5288  0.9581 -0.0961
   82MOL    C5842340   3.022   5.825   7.366  0.5630  0.4101  0.7678
   82MOL    C5942341   2.979   5.925   7.279 -0.4320 -0.1491  0.4020
   82MOL    C6042342   2.897   5.898   7.170  0.0524  0.1140 -0.2985
   82MOL    C6142343   2.863   5.762   7.151 -0.6015 -0.1800 -0.3896
   82MOL    C6242344   2.890   5.661   7.247  0.2598  0.1288 -0.4398
   82MOL    C6342345   3.112   5.819   7.478  0.9262 -0.6837  0.6233
   82MOL    C6442346   3.117   5.685   7.530  0.2333  0.3486 -0.1402
   82MOL    C6542347   3.202   5.647   7.634  0.8782 -0.5476  0.2630
   82MOL    C6642348   3.268   5.749   7.699  0.8400 -0.6630 -0.3337
   82MOL    C6742349   3.262   5.886   7.652  0.1136 -0.2747 -1.0063
   82MOL    C6842350   3.186   5.918   7.543  0.1046  0.1247 -0.6199
   82MOL    H6942351   2.996   5.433   7.674 -2.0787  1.7941  1.5422
   82MOL    H7042352   2.887   5.322   7.605 -1.0682  0.3060  1.2223
   82MOL    H7142353   2.947   5.435   7.381  0.1799 -0.7850 -0.1065
   82MOL    H7242354   3.034   6.017   7.291  1.3594 -1.2485  0.6350
   82MOL    H7342355   2.859   5.962   7.092 -0.8803 -0.7871 -0.5935
   82MOL    H7442356   2.804   5.747   7.062  0.6696  0.4182 -1.3518
   82MOL    H7542357   2.862   5.557   7.232  0.9876 -0.1742  0.2619
   82MOL    H7642358   3.207   5.546   7.672 -1.5160 -0.6808  0.2484
   82MOL    H7742359   3.332   5.727   7.783 -0.3958 -0.4815  0.6760
   82MOL    H7842360   3.320   5.962   7.702  2.8480 -0.9702 -2.9913
   82MOL    H7942361   3.180   6.016   7.498 -2.3928 -0.2842 -1.2124
   82MOL    C8042362   3.145   5.379   7.442 -1.1842  0.2266  0.8401
   82MOL    C8142363   3.108   5.227   7.422 -0.7497 -0.0123 -0.1371
   82MOL    N8242364   3.026   5.201   7.311  0.1358  0.5987  0.3846
   82MOL    C8342365   2.904   5.137   7.312  0.2904 -0.0326  0.0407
   82MOL    C8442366   2.855   5.132   7.179  0.6366  0.0741  0.0128
   82MOL    C8542367   2.725   5.084   7.156 -0.7713  0.4930  0.0171
   82MOL    C8642368   2.641   5.035   7.261 -1.0516 -0.6870 -0.2444
   82MOL    C8742369   2.699   5.032   7.394  0.3239  0.0241  0.0437
   82MOL    C8842370   2.830   5.090   7.420  0.1609  0.2076 -0.2799
   82MOL    C8942371   2.954   5.179   7.093  0.0791 -0.5075  0.5762
   82MOL    C9042372   3.059   5.223   7.175  0.0329  0.0719 -0.9076
   82MOL    C9142373   3.173   5.281   7.113 -0.7719 -0.4227  0.2118
   82MOL    C9242374   3.184   5.292   6.973 -0.0111  0.0029 -0.1394
   82MOL    C9342375   3.090   5.227   6.897  0.8694 -0.4026  0.9012
   82MOL    C9442376   2.983   5.169   6.950 -0.0225  0.3879  0.8966
   82MOL    H9542377   3.197   5.414   7.353 -0.8829  1.1742  1.3730
   82MOL    H9642378   3.210   5.379   7.530 -0.9663 -2.4988  0.7133
   82MOL    H9742379   3.048   5.193   7.507  1.5897  1.0532  2.0267
   82MOL    H9842380   2.687   5.087   7.055  1.0331  0.9773 -0.6728
   82MOL    H9942381   2.536   5.015   7.244 -1.4025  0.2370  0.8029
   82MOL   H10042382   2.627   5.009   7.471 -0.2664 -0.1343 -0.5543
   82MOL   H10142383   2.861   5.093   7.524 -2.6294 -0.2820  0.6256
   82MOL   H10242384   3.255   5.313   7.176 -0.3129 -2.3099  0.6139
   82MOL   H10342385   3.267   5.341   6.922 -1.4048  0.0380 -2.4679
   82MOL   H10442386   3.104   5.235   6.790 -2.7774  1.9918  0.5175
   82MOL   H10542387   2.915   5.111   6.889  1.7807 -2.2152  1.2651
   82MOL   C10642388   3.224   5.133   7.431 -0.0986 -0.0722 -0.6926
   82MOL   C10742389   3.272   5.083   7.579  0.7356  0.4554  0.8036
   82MOL   N10842390   3.156   5.037   7.662  0.2239  0.0396 -0.0098
   82MOL   C10942391   3.112   5.101   7.777  0.3489  0.1522  1.0214
   82MOL   C11042392   2.997   5.035   7.826  0.0808 -0.1585 -0.2780
   82MOL   C11142393   2.932   5.090   7.942 -0.4543 -0.0447 -0.9528
   82MOL   C11242394   2.983   5.208   8.001 -0.1375 -0.0429 -0.0423
   82MOL   C11342395   3.102   5.270   7.949 -0.1947  0.4109  0.1386
   82MOL   C11442396   3.175   5.203   7.850 -0.7998 -0.7749  0.0039
   82MOL   C11542397   2.980   4.914   7.744 -0.0776  0.4720 -0.2220
   82MOL   C11642398   3.074   4.924   7.634  0.5324 -0.2421  0.2087
   82MOL   C11742399   3.078   4.821   7.531 -0.5642  0.0626  0.4971
   82MOL   C11842400   2.987   4.719   7.528 -0.6253 -0.2298  0.1646
   82MOL   C11942401   2.899   4.705   7.636  0.0982  0.0562  0.6784
   82MOL   C12042402   2.887   4.800   7.739  0.5093  0.2189  0.5775
   82MOL   H12142403   3.194   5.044   7.376  0.5974 -2.2445  2.2796
   82MOL   H12242404   3.310   5.169   7.376  1.5061 -2.9928 -0.2191
   82MOL   H12342405   3.317   5.169   7.630 -2.2422  3.3262 -1.2235
   82MOL   H12442406   2.835   5.057   7.977 -0.1672  0.4804  0.3461
   82MOL   H12542407   2.933   5.261   8.080 -4.0035 -1.7789 -1.2231
   82MOL   H12642408   3.144   5.359   7.992  1.7977 -1.6331  2.5977
   82MOL   H12742409   3.272   5.236   7.817 -1.0373 -0.5193 -0.4363
   82MOL   H12842410   3.149   4.828   7.450  0.1794  1.4591  1.2484
   82MOL   H12942411   2.998   4.641   7.454  0.9920 -0.1028  0.2586
   82MOL   H13042412   2.822   4.629   7.643  0.1161  0.0981  1.3413
   82MOL   H13142413   2.809   4.783   7.811  0.9264 -1.1252  0.7453
   82MOL   C13242414   3.377   4.971   7.558  0.4830  0.7560  1.1326
   82MOL   C13342415   3.515   5.032   7.506 -0.6853 -0.0259 -0.1211
   82MOL   N13442416   3.560   5.148   7.586 -0.0812  0.1801  0.2257
   82MOL   C13542417   3.579   5.275   7.532  0.0885  0.8391  0.1024
   82MOL   C13642418   3.609   5.366   7.632 -0.8864  0.0878 -0.2431
   82MOL   C13742419   3.620   5.500   7.597  0.7212 -0.6245  0.5667
   82MOL   C13842420   3.629   5.547   7.465  0.1421 -0.5968  0.2222
   82MOL   C13942421   3.611   5.457   7.364 -1.0339 -0.0325  0.5555
   82MOL   C14042422   3.581   5.322   7.397  0.7465  0.3164  0.0971
   82MOL   C14142423   3.606   5.291   7.759 -0.7860 -0.0068 -0.1411
   82MOL   C14242424   3.585   5.153   7.728  0.5940 -0.7298  0.0486
   82MOL   C14342425   3.574   5.055   7.826  1.2724 -0.1903  0.1015
   82MOL   C14442426   3.583   5.092   7.961 -0.1590 -0.3629 -0.1852
   82MOL   C14542427   3.616   5.225   7.993 -0.8012  0.2016 -0.4629
   82MOL   C14642428   3.627   5.332   7.898 -0.3166  1.0083  0.2547
   82MOL   H14742429   3.411   4.939   7.657  0.7568  2.2759  1.5552
   82MOL   H14842430   3.339   4.884   7.504  0.6642  2.2971 -1.5690
   82MOL   H14942431   3.491   5.076   7.409  2.4305  0.1052 -0.8882
   82MOL   H15042432   3.630   5.574   7.675 -1.6000 -0.7865  1.0521
   82MOL   H15142433   3.653   5.649   7.441 -0.0599 -0.6074 -0.0267
   82MOL   H15242434   3.611   5.492   7.262 -2.9030 -0.5521  0.3522
   82MOL   H15342435   3.555   5.258   7.314 -2.6123  0.6246  0.8606
   82MOL   H15442436   3.542   4.955   7.802  1.7614 -0.6409  1.2730
   82MOL   H15542437   3.565   5.019   8.038  0.0159 -2.7565 -2.3353
   82MOL   H15642438   3.627   5.257   8.095 -0.8389 -0.5927 -0.2062
   82MOL   H15742439   3.649   5.436   7.917 -2.0907  1.6292 -0.9504
   82MOL   C15842440   3.632   4.933   7.484  0.0660 -0.1005 -0.0096
   82MOL   C15942441   3.596   4.828   7.381  0.0370 -0.1222 -0.0453
   82MOL   N16042442   3.533   4.883   7.259  0.2027  0.3701 -0.2673
   82MOL   C16142443   3.405   4.842   7.222 -0.5019 -0.0456 -0.1775
   82MOL   C16242444   3.367   4.922   7.110 -0.3889 -0.2623  0.3678
   82MOL   C16342445   3.248   4.897   7.045  0.6135  0.0528 -0.6652
   82MOL   C16442446   3.162   4.797   7.092 -0.0685 -1.0784  0.3137
   82MOL   C16542447   3.193   4.720   7.205 -0.2745  0.2155 -0.3111
   82MOL   C16642448   3.317   4.737   7.265 -0.5492 -0.0685  0.0088
   82MOL   C16742449   3.470   5.017   7.081  0.1204 -0.0923  0.5790
   82MOL   C16842450   3.577   4.990   7.176 -0.0554 -0.5030 -0.4306
   82MOL   C16942451   3.703   5.059   7.155 -0.2599 -0.6148 -0.3543
   82MOL   C17042452   3.711   5.167   7.069 -0.2095 -0.0109 -0.0323
   82MOL   C17142453   3.605   5.199   6.982  0.1116 -0.0319 -0.1540
   82MOL   C17242454   3.488   5.115   6.981 -0.2664  0.4694  0.0431
   82MOL   H17342455   3.724   4.987   7.461 -1.0660  0.1695 -4.4596
   82MOL   H17442456   3.659   4.883   7.577  2.1184  0.4627 -0.2765
   82MOL   H17542457   3.522   4.767   7.433  1.2640 -0.4668  1.3438
   82MOL   H17642458   3.228   4.955   6.956 -2.8664 -1.6338 -1.0465
   82MOL   H17742459   3.081   4.767   7.028 -1.4122 -1.1414  1.9896
   82MOL   H17842460   3.130   4.634   7.225 -0.4934  0.4223 -0.1144
   82MOL   H17942461   3.343   4.676   7.351  2.8030 -2.7902 -2.7573
   82MOL   H18042462   3.783   5.035   7.224 -1.1170 -1.2982  0.4147
   82MOL   H18142463   3.803   5.223   7.056 -0.6082  0.8145  0.6296
   82MOL   H18242464   3.609   5.286   6.917 -1.3383 -0.2582 -0.5794
   82MOL   H18342465   3.410   5.125   6.907 -0.7491 -0.5045  0.4084
   82MOL   C18442466   3.717   4.735   7.345  0.1340 -0.5409  0.0077
   82MOL   C18542467   3.762   4.639   7.460 -0.2521 -0.0880  0.0025
   82MOL   N18642468   3.659   4.574   7.540  0.0443 -0.0932  0.5146
   82MOL   C18742469   3.637   4.590   7.678 -0.1788 -0.4233  0.6285
   82MOL   C18842470   3.548   4.487   7.718 -0.5335  0.4752  0.2694
   82MOL   C18942471   3.536   4.469   7.853  0.1523  0.3559  0.5469
   82MOL   C19042472   3.582   4.554   7.951 -0.3429  0.2772 -0.3129
   82MOL   C19142473   3.671   4.655   7.911  0.0563 -0.2224 -1.0855
   82MOL   C19242474   3.694   4.674   7.773  0.3257 -0.6321 -1.0503
   82MOL   C19342475   3.494   4.423   7.600 -0.5496  0.0731 -0.5298
   82MOL   C19442476   3.567   4.481   7.490  0.9203  0.8590 -0.2408
   82MOL   C19542477   3.532   4.447   7.359  0.3416  0.3732 -0.0272
   82MOL   C19642478   3.430   4.356   7.337 -0.1009 -0.6131  0.3380
   82MOL   C19742479   3.366   4.288   7.447  0.6500  0.3275  0.1191
   82MOL   C19842480   3.396   4.329   7.574  0.0240  0.6423  0.2577
   82MOL   H19942481   3.685   4.675   7.260 -1.6289  0.2272  0.1058
   82MOL   H20042482   3.796   4.798   7.305 -1.7802  0.5747 -2.1150
   82MOL   H20142483   3.810   4.703   7.534 -0.7725  0.7962 -0.4067
   82MOL   H20242484   3.478   4.382   7.883  2.6878 -1.4703  0.3488
   82MOL   H20342485   3.575   4.524   8.055  0.2672  0.2130 -0.2876
   82MOL   H20442486   3.710   4.717   7.990 -0.0685 -1.6600  0.1401
   82MOL   H20542487   3.772   4.746   7.756 -0.9469  1.2642  0.9009
   82MOL   H20642488   3.580   4.495   7.275 -0.6556  0.7521 -0.3873
   82MOL   H20742489   3.402   4.335   7.235  1.0920  1.3524 -0.4194
   82MOL   H20842490   3.292   4.209   7.436 -0.5677  1.7134 -2.0360
   82MOL   H20942491   3.349   4.276   7.655 -0.4318  0.2056 -0.2898
   82MOL   C21042492   3.869   4.541   7.418 -0.4359  0.0973  0.1283
   82MOL   C21142493   4.001   4.598   7.367  0.3291  0.7052 -0.2558
   82MOL   N21242494   4.065   4.686   7.468 -0.2705 -0.3497 -0.1083
   82MOL   C21342495   4.094   4.822   7.448 -0.1012 -0.4573  0.2190
   82MOL   C21442496   4.143   4.878   7.572 -0.4334 -0.0139 -0.3672
   82MOL   C21542497   4.160   5.018   7.572  0.1001 -0.2033 -0.4141
   82MOL   C21642498   4.140   5.101   7.460 -0.4551  0.1361 -0.1122
   82MOL   C21742499   4.095   5.043   7.337  0.3252 -0.2472 -0.1639
   82MOL   C21842500   4.065   4.903   7.331  0.2515 -0.9483  0.3592
   82MOL   C21942501   4.155   4.769   7.665  0.5389  0.5628 -0.5667
   82MOL   C22042502   4.111   4.647   7.597 -0.1955 -0.2738  0.3775
   82MOL   C22142503   4.115   4.525   7.666 -0.2491  0.7528  0.5814
   82MOL   C22242504   4.175   4.507   7.789 -0.0115 -0.4705  0.1294
   82MOL   C22342505   4.218   4.622   7.855  0.2317  0.6102  0.2941
   82MOL   C22442506   4.201   4.751   7.800 -0.3735  0.0129 -0.3634
   82MOL   H22542507   3.903   4.482   7.503  0.6139  2.0863  1.1361
   82MOL   H22642508   3.834   4.468   7.345  1.4694 -1.9259  1.2058
   82MOL   H22742509   3.964   4.666   7.290 -2.3887  1.1879  1.4101
   82MOL   H22842510   4.196   5.069   7.660  1.4987 -0.9962 -0.5063
   82MOL   H22942511   4.157   5.208   7.463  0.6351 -0.0383  0.1348
   82MOL   H23042512   4.072   5.106   7.253  0.6804 -1.0515 -0.8734
   82MOL   H23142513   4.041   4.859   7.235  2.2944 -1.2598 -0.0361
   82MOL   H23242514   4.084   4.435   7.614  0.5669 -0.2036  1.7153
   82MOL   H23342515   4.175   4.408   7.832  0.0183 -0.5841 -0.1312
   82MOL   H23442516   4.244   4.606   7.959  1.4467  3.7059  0.5103
   82MOL   H23542517   4.245   4.836   7.850 -2.0584 -0.0059  1.1722
   82MOL   C23642518   4.099   4.498   7.304 -0.2739 -0.7696  0.0570
   82MOL   C23742519   4.061   4.459   7.159 -0.4886 -0.1279  0.6463
   82MOL   N23842520   4.051   4.573   7.069  0.1995  0.3012 -0.5086
   82MOL   C23942521   3.930   4.628   7.023 -0.0342  0.3963  0.7570
   82MOL   C24042522   3.962   4.743   6.942  0.0628 -0.4138 -0.7912
   82MOL   C24142523   3.848   4.809   6.883 -0.1813  0.6472 -0.7019
   82MOL   C24242524   3.708   4.765   6.896 -0.7464 -0.8356  0.0932
   82MOL   C24342525   3.683   4.648   6.974  1.0028  0.1904  0.7940
   82MOL   C24442526   3.791   4.582   7.036  0.0793 -0.0915  0.6297
   82MOL   C24542527   4.099   4.763   6.938 -0.0453 -0.3986  1.0067
   82MOL   C24642528   4.155   4.654   7.010 -0.0063  0.0601  0.5204
   82MOL   C24742529   4.299   4.642   7.005 -0.2152  0.0241  0.0229
   82MOL   C24842530   4.381   4.728   6.934  0.4994 -0.7898  0.5764
   82MOL   C24942531   4.324   4.833   6.864  0.4342  0.2236 -0.4189
   82MOL   C25042532   4.186   4.855   6.870  0.1029 -0.2351  0.0258
   82MOL   H25142533   4.197   4.544   7.292  0.1984 -1.2102  2.1545
   82MOL   H25242534   4.108   4.403   7.357  1.4131 -0.3422  0.5428
   82MOL   H25342535   3.961   4.416   7.161 -0.7536  0.4754  0.4173
   82MOL   H25442536   3.862   4.892   6.815 -2.7412  0.0722 -2.0005
   82MOL   H25542537   3.630   4.817   6.843 -1.2229  1.4224  2.9152
   82MOL   H25642538   3.587   4.599   6.973  0.8325  0.5113 -0.9593
   82MOL   H25742539   3.771   4.493   7.093  0.3519 -1.7128 -1.7232
   82MOL   H25842540   4.334   4.564   7.071  0.2544  0.3796  0.1934
   82MOL   H25942541   4.487   4.713   6.943  0.4619 -0.1094  2.4419
   82MOL   H26042542   4.382   4.901   6.804  0.4203  0.3339 -0.3071
   82MOL   H26142543   4.144   4.940   6.818 -2.1804 -0.5785  1.2413
   82MOL   C26242544   4.161   4.352   7.111  0.0748  0.3377  0.5560
   82MOL   C26342545   4.102   4.213   7.136  0.1757 -0.5429  0.3349
   82MOL   N26442546   3.963   4.196   7.082 -0.5115  0.0812  0.0811
   82MOL   C26542547   3.859   4.170   7.170 -0.0164  0.3498 -0.4593
   82MOL   C26642548   3.739   4.155   7.097  0.0095  0.6510 -0.2002
   82MOL   C26742549   3.622   4.120   7.170  0.0866  0.1189  0.3733
   82MOL   C26842550   3.623   4.098   7.310  0.3626  0.4983  0.3722
   82MOL   C26942551   3.742   4.102   7.383  0.3596 -0.3453 -0.3296
   82MOL   C27042552   3.853   4.150   7.311 -0.5832  0.5163 -0.3118
   82MOL   C27142553   3.770   4.192   6.962 -0.4517  0.4658 -0.1303
   82MOL   C27242554   3.909   4.216   6.957  0.3844 -0.1821  0.0185
   82MOL   C27342555   3.962   4.254   6.831 -0.2084  0.0222 -0.3919
   82MOL   C27442556   3.880   4.275   6.716  0.0189  0.3538 -0.0379
   82MOL   C27542557   3.750   4.222   6.723 -0.5891  0.3716  0.2830
   82MOL   C27642558   3.691   4.193   6.844 -0.1588  0.1365  0.1421
   82MOL   H27742559   4.176   4.354   7.003 -0.5185  2.2229  0.5025
   82MOL   H27842560   4.254   4.372   7.164  0.3771  1.3848 -0.3365
   82MOL   H27942561   4.100   4.212   7.245 -1.6256  0.1549  0.3301
   82MOL   H28042562   3.527   4.123   7.118  0.0011  1.6876  0.5837
   82MOL   H28142563   3.540   4.087   7.378  1.1138  1.9100  1.5358
   82MOL   H28242564   3.746   4.078   7.488  0.3526  0.1337 -0.2194
   82MOL   H28342565   3.942   4.157   7.372 -1.9105  0.1368  1.7280
   82MOL   H28442566   4.065   4.281   6.812 -0.1098 -1.1254 -1.5363
   82MOL   H28542567   3.911   4.301   6.615  0.4158  1.9924  0.4914
   82MOL   H28642568   3.692   4.220   6.631  1.1552  0.4587 -0.8464
   82MOL   H28742569   3.588   4.163   6.835 -0.8612  3.1443 -2.8472
   82MOL   C28842570   4.199   4.094   7.087 -0.2733  0.3919  0.1780
   82MOL   C28942571   4.312   4.062   7.186 -0.0519  0.4708 -0.2710
   82MOL   N29042572   4.277   4.053   7.327 -0.0081 -0.0483  0.5892
   82MOL   C29142573   4.329   4.134   7.431  0.3231  0.1205  0.0346
   82MOL   C29242574   4.270   4.096   7.554  0.1277  0.8004  0.0334
   82MOL   C29342575   4.303   4.166   7.672 -0.7603  0.3406  0.4936
   82MOL   C29442576   4.396   4.274   7.663 -0.2938  0.3136 -0.0162
   82MOL   C29542577   4.450   4.318   7.538  0.8004 -0.3197 -0.1093
   82MOL   C29642578   4.411   4.251   7.425  0.6831 -0.0826  0.1873
   82MOL   C29742579   4.172   3.993   7.520 -0.0173  0.4180 -0.3266
   82MOL   C29842580   4.186   3.961   7.382  0.3831 -0.1304 -0.9458
   82MOL   C29942581   4.110   3.856   7.330 -0.3261  0.3216 -0.1755
   82MOL   C30042582   3.999   3.802   7.399 -0.0408  0.6200 -0.0114
   82MOL   C30142583   3.972   3.850   7.529  0.0033  0.1427  0.3073
   82MOL   C30242584   4.067   3.935   7.589 -0.3316  0.5706  0.5126
   82MOL   H30342585   4.128   4.012   7.069  0.0637 -0.0139  0.6709
   82MOL   H30442586   4.238   4.115   6.988  2.0694  1.4917  1.2997
   82MOL   H30542587   4.372   4.153   7.181 -0.2059  0.6190  0.5644
   82MOL   H30642588   4.260   4.145   7.769  3.0587 -0.7606  2.0416
   82MOL   H30742589   4.430   4.329   7.750 -0.0288  0.9663 -0.5277
   82MOL   H30842590   4.509   4.407   7.527 -1.7128  1.2634 -1.2324
   82MOL   H30942591   4.428   4.289   7.325 -0.1922  0.4695  0.2395
   82MOL   H31042592   4.131   3.813   7.233  1.5967 -0.0807  0.4112
   82MOL   H31142593   3.942   3.722   7.353  0.8558 -0.1066  0.1322
   82MOL   H31242594   3.883   3.820   7.583  1.4641 -2.0385  1.5627
   82MOL   H31342595   4.040   3.960   7.691  0.5148  2.2125  0.3539
   82MOL   C31442596   4.414   3.947   7.163  0.6125 -0.7872 -0.6314
   82MOL   C31542597   4.500   3.958   7.038 -0.2156  0.0786 -0.0275
   82MOL   N31642598   4.548   4.098   7.016 -0.4470  0.0490  0.0755
   82MOL   C31742599   4.518   4.174   6.902  0.0169  0.5224 -0.1847
   82MOL   C31842600   4.558   4.311   6.928 -0.3054  0.2399  0.2070
   82MOL   C31942601   4.531   4.411   6.838 -0.3667 -0.3895 -0.5913
   82MOL   C32042602   4.457   4.377   6.722  0.0302  0.4379 -0.0446
   82MOL   C32142603   4.421   4.247   6.691  0.2960  0.1055 -0.1740
   82MOL   C32242604   4.453   4.148   6.783  0.7324  0.1730  0.5802
   82MOL   C32342605   4.629   4.312   7.050 -0.0719 -0.4778  0.0780
   82MOL   C32442606   4.626   4.181   7.099 -0.1963  0.3322 -0.1199
   82MOL   C32542607   4.704   4.153   7.214 -0.2268  0.5000  0.7133
   82MOL   C32642608   4.761   4.257   7.289  0.1049  1.3241  0.1164
   82MOL   C32742609   4.737   4.389   7.252 -0.1071  0.2841  0.3366
   82MOL   C32842610   4.697   4.416   7.124  0.8757  0.4695  0.2141
   82MOL   H32942611   4.493   3.957   7.238  1.2177  0.6267 -1.4440
   82MOL   H33042612   4.372   3.847   7.177 -0.3910 -0.4165 -0.9477
   82MOL   H33142613   4.441   3.939   6.949 -0.4042 -0.8228  0.2736
   82MOL   H33242614   4.576   4.506   6.860  1.3467 -1.2545 -0.2760
   82MOL   H33342615   4.425   4.463   6.666 -1.2708  0.3157  0.5081
   82MOL   H33442616   4.370   4.230   6.597  0.0270  1.1298 -0.2255
   82MOL   H33542617   4.412   4.048   6.776 -0.0287  0.6116 -2.0656
   82MOL   H33642618   4.710   4.047   7.238 -3.6405  0.0782 -0.0059
   82MOL   H33742619   4.807   4.234   7.383 -0.5103  1.6870  0.5126
   82MOL   H33842620   4.766   4.470   7.317 -0.7135  1.5962 -0.9929
   82MOL   H33942621   4.695   4.517   7.085  0.1447  0.4433  0.1706
   82MOL   C34042622   4.623   3.857   7.035 -0.4460 -0.5327  0.2308
   82MOL   C34142623   4.597   3.706   6.998 -0.2686  0.0598 -0.1733
   82MOL   N34242624   4.492   3.693   6.902 -0.2189  0.4319 -0.1746
   82MOL   C34342625   4.361   3.651   6.939  0.1066  1.0638  0.6310
   82MOL   C34442626   4.283   3.654   6.817 -0.0274 -0.4904  0.3228
   82MOL   C34542627   4.153   3.603   6.824 -0.6181  0.2212  0.1964
   82MOL   C34642628   4.092   3.569   6.945 -0.6329 -0.1949 -0.1580
   82MOL   C34742629   4.167   3.578   7.062  0.5216 -0.1058  0.1764
   82MOL   C34842630   4.302   3.610   7.060 -0.2778 -0.3340  0.6782
   82MOL   C34942631   4.365   3.709   6.717  0.4264 -0.9848  0.0923
   82MOL   C35042632   4.488   3.736   6.771 -0.0974  0.0700 -0.5142
   82MOL   C35142633   4.583   3.804   6.700 -0.1608 -0.9559  0.4473
   82MOL   C35242634   4.557   3.833   6.560  0.4199 -0.1096 -0.8953
   82MOL   C35342635   4.437   3.798   6.499 -0.2337  0.2874 -0.1481
   82MOL   C35442636   4.338   3.740   6.578 -0.1196 -0.6916 -0.3015
   82MOL   H35542637   4.689   3.911   6.966 -2.3680 -1.7290 -2.6739
   82MOL   H35642638   4.674   3.860   7.131  2.0235  3.1557 -1.1126
   82MOL   H35742639   4.556   3.655   7.086  1.6275 -1.1915  0.0304
   82MOL   H35842640   4.094   3.585   6.735 -0.3230 -0.4943  0.1386
   82MOL   H35942641   3.987   3.547   6.949 -0.8357  1.2205  4.4168
   82MOL   H36042642   4.116   3.569   7.157  0.9488  1.9538  0.6361
   82MOL   H36142643   4.360   3.594   7.150 -1.5037  0.4137  1.6175
   82MOL   H36242644   4.681   3.835   6.732 -0.7436  0.9125  0.5035
   82MOL   H36342645   4.631   3.875   6.494 -0.2587 -0.5288 -1.9488
   82MOL   H36442646   4.403   3.833   6.402 -1.3395 -1.0501 -0.2556
   82MOL   H36542647   4.244   3.718   6.528 -0.7852 -1.7737  1.3586
   82MOL   C36642648   4.731   3.631   6.957 -0.6409 -0.4180 -0.2662
   82MOL   C36742649   4.711   3.497   6.876  0.1022 -0.5868  0.1834
   82MOL   N36842650   4.838   3.455   6.822  0.6249 -0.3651  1.3718
   82MOL   C36942651   4.883   3.477   6.685 -0.1234  0.1462  0.1912
   82MOL   C37042652   5.009   3.412   6.664 -0.1991 -0.6543 -0.2342
   82MOL   C37142653   5.072   3.439   6.539  0.1887 -0.8627  0.5368
   82MOL   C37242654   5.010   3.515   6.436  0.4790  0.4257  0.3807
   82MOL   C37342655   4.879   3.561   6.456  0.6343  1.1190  0.0123
   82MOL   C37442656   4.815   3.547   6.582  0.3863 -0.0970  1.0309
   82MOL   C37542657   5.050   3.356   6.790  0.2212 -0.0695 -0.3957
   82MOL   C37642658   4.948   3.391   6.885 -0.0221  0.0161 -0.1796
   82MOL   C37742659   4.968   3.363   7.025 -0.1407 -0.3456  0.4793
   82MOL   C37842660   5.085   3.297   7.069 -0.0375  0.8695 -0.1176
   82MOL   C37942661   5.182   3.257   6.975  0.4852 -0.1044 -0.3105
   82MOL   C38042662   5.162   3.286   6.838  0.4738 -0.1365  0.1894
   82MOL   H38142663   4.801   3.689   6.897 -0.1417  1.3333  1.9161
   82MOL   H38242664   4.784   3.616   7.051 -1.3471 -1.4193 -0.0163
   82MOL   H38342665   4.652   3.510   6.785 -3.0395  0.4723  2.2708
   82MOL   H38442666   5.176   3.423   6.516  0.5935  0.5435  1.3167
   82MOL   H38542667   5.057   3.534   6.341 -1.8446  0.0107 -0.8872
   82MOL   H38642668   4.820   3.616   6.385 -0.1287 -0.5569 -0.6903
   82MOL   H38742669   4.721   3.599   6.592  0.1906  0.2043 -1.8137
   82MOL   H38842670   4.896   3.406   7.093  1.1620  3.8303 -0.6355
   82MOL   H38942671   5.091   3.270   7.174  3.1783 -2.8808 -1.1136
   82MOL   H39042672   5.270   3.199   7.000  0.4295 -0.6871 -1.3933
   82MOL   H39142673   5.245   3.259   6.774  1.8726 -0.0659  1.9409
   82MOL   C39242674   4.647   3.392   6.969 -0.2561 -0.2716 -0.0406
   82MOL   C39342675   4.554   3.295   6.885 -0.1014  0.2838  0.3711
   82MOL   N39442676   4.616   3.224   6.779 -0.1936 -0.0323  0.5616
   82MOL   C39542677   4.594   3.251   6.641 -0.3302  0.3440 -0.3369
   82MOL   C39642678   4.673   3.155   6.570  0.7674 -0.0989  0.4884
   82MOL   C39742679   4.648   3.158   6.429  1.0301  0.2324  0.6443
   82MOL   C39842680   4.574   3.261   6.361 -0.9787  0.2067  0.1202
   82MOL   C39942681   4.505   3.349   6.442  0.5730 -0.4604  0.3791
   82MOL   C40042682   4.507   3.341   6.581 -0.0591  0.4535  0.0753
   82MOL   C40142683   4.757   3.082   6.661 -0.4210 -0.5565 -0.0640
   82MOL   C40242684   4.708   3.119   6.794 -0.0874 -0.3378  0.6388
   82MOL   C40342685   4.772   3.069   6.908  0.4071  0.5956 -0.7063
   82MOL   C40442686   4.868   2.968   6.897  0.9793  0.1944 -0.2935
   82MOL   C40542687   4.909   2.923   6.772 -0.2472  0.4579 -0.2614
   82MOL   C40642688   4.859   2.980   6.655  0.1865 -0.3613 -0.5645
   82MOL   H40742689   4.719   3.342   7.033 -0.9547  0.5106  1.3720
   82MOL   H40842690   4.578   3.431   7.044  1.2064  0.3602  0.9845
   82MOL   H40942691   4.477   3.358   6.842 -2.3596 -2.3178  0.4348
   82MOL   H41042692   4.696   3.076   6.377 -0.1929  0.7300 -1.3065
   82MOL   H41142693   4.558   3.261   6.254  1.6472 -0.2459 -0.3014
   82MOL   H41242694   4.451   3.432   6.400  1.7670  0.5913  0.8962
   82MOL   H41342695   4.463   3.413   6.648 -0.9526  0.7716 -0.8327
   82MOL   H41442696   4.744   3.098   7.008 -1.6384 -1.0780 -0.7560
   82MOL   H41542697   4.916   2.923   6.982  0.2057 -0.3302 -0.1226
   82MOL   H41642698   4.983   2.845   6.759  0.6959  0.8568  2.4548
   82MOL   H41742699   4.892   2.948   6.558  1.9462 -2.1107  0.5735
   82MOL   C41842700   4.475   3.197   6.971 -0.3004  0.1538 -0.9332
   82MOL   C41942701   4.371   3.130   6.892  0.0626  0.3662  0.5608
   82MOL   N42042702   4.307   3.030   6.980  0.7340 -0.2160 -0.3048
   82MOL   C42142703   4.327   2.891   6.956 -0.4712  0.1238 -0.7360
   82MOL   C42242704   4.253   2.825   7.058  0.0225  0.2959  0.6473
   82MOL   C42342705   4.253   2.682   7.048  0.0425 -0.1865 -0.2704
   82MOL   C42442706   4.313   2.610   6.946  0.2006 -0.1634 -0.2811
   82MOL   C42542707   4.392   2.683   6.854  0.0186  0.6969 -0.5533
   82MOL   C42642708   4.397   2.823   6.856 -0.0061 -0.2909 -0.1802
   82MOL   C42742709   4.207   2.926   7.149 -1.0839  0.1354  0.5914
   82MOL   C42842710   4.232   3.054   7.096  0.2748  0.3381  0.7406
   82MOL   C42942711   4.184   3.167   7.159  0.4545  0.0734  1.1133
   82MOL   C43042712   4.126   3.159   7.280  0.5109  0.0049 -0.1343
   82MOL   C43142713   4.110   3.032   7.337 -0.3661 -0.5438 -0.5405
   82MOL   C43242714   4.152   2.921   7.274 -0.4887  0.6077  0.7599
   82MOL   H43342715   4.536   3.122   7.022  0.8296  1.0303 -0.9886
   82MOL   H43442716   4.433   3.255   7.054  0.2745 -1.2016  0.3359
   82MOL   H43542717   4.417   3.073   6.812  1.7939  0.2481  1.6187
   82MOL   H43642718   4.211   2.637   7.137 -1.3283  2.2859  0.4082
   82MOL   H43742719   4.305   2.502   6.945 -0.8377 -0.0890 -0.6920
   82MOL   H43842720   4.439   2.621   6.778 -0.7180 -2.2788  1.3461
   82MOL   H43942721   4.454   2.868   6.776 -0.5264 -1.1666 -1.0700
   82MOL   H44042722   4.214   3.263   7.120  0.2338 -0.6626 -0.9518
   82MOL   H44142723   4.083   3.245   7.330  1.6861  0.2670  0.4193
   82MOL   H44242724   4.062   3.025   7.434 -0.6976  0.8204 -0.5979
   82MOL   H44342725   4.135   2.823   7.316 -1.6769  0.8123  0.7883
   82MOL   C44442726   4.269   3.216   6.814  0.4876  0.0910 -1.0121
   82MOL   C44542727   4.137   3.150   6.762 -0.1626 -0.7268  0.1107
   82MOL   N44642728   4.037   3.250   6.717  0.1913  0.3294  0.0355
   82MOL   C44742729   3.914   3.279   6.781  0.0250  0.1168  0.8151
   82MOL   C44842730   3.832   3.360   6.703 -0.5524  0.4786 -0.0461
   82MOL   C44942731   3.711   3.395   6.749 -0.2093 -0.0566  0.0007
   82MOL   C45042732   3.667   3.355   6.878 -0.0741  0.1352 -0.3524
   82MOL   C45142733   3.753   3.279   6.962 -0.2632 -0.3916 -0.0293
   82MOL   C45242734   3.875   3.233   6.910 -0.0788  0.3058  0.8979
   82MOL   C45342735   3.913   3.389   6.584  0.0587 -0.3368 -0.2279
   82MOL   C45442736   4.037   3.318   6.600 -0.0904 -0.1355 -0.2422
   82MOL   C45542737   4.130   3.330   6.494 -0.4286 -0.4302  0.2256
   82MOL   C45642738   4.112   3.415   6.382 -0.6479  0.8491 -0.1149
   82MOL   C45742739   3.991   3.486   6.374 -0.3185 -0.7234 -0.6390
   82MOL   C45842740   3.894   3.478   6.476  0.3853 -0.1230  0.1679
   82MOL   H45942741   4.237   3.300   6.876 -0.9240 -1.0508 -0.1469
   82MOL   H46042742   4.321   3.255   6.727 -0.2010 -1.8135 -2.2990
   82MOL   H46142743   4.100   3.105   6.854  0.1786 -1.7370 -0.2387
   82MOL   H46242744   3.645   3.455   6.687  0.3071  0.8012  0.2655
   82MOL   H46342745   3.568   3.376   6.917  0.2339 -0.2413  0.6325
   82MOL   H46442746   3.717   3.240   7.056 -1.9387  1.4276  0.1129
   82MOL   H46542747   3.929   3.158   6.966 -2.0905 -1.1739  0.9039
   82MOL   H46642748   4.223   3.274   6.499 -1.1168 -1.5999  0.0452
   82MOL   H46742749   4.186   3.424   6.304 -0.2612  0.1643  0.1680
   82MOL   H46842750   3.968   3.562   6.301  1.1238  2.5207  2.1376
   82MOL   H46942751   3.806   3.538   6.461 -0.5122 -2.2363 -3.6293
   82MOL   C47042752   4.159   3.036   6.658 -0.4712  0.3200 -0.2961
   82MOL   C47142753   4.036   2.945   6.653 -0.3284  0.3074 -0.0528
   82MOL   N47242754   4.030   2.879   6.525  0.7747 -0.0390 -0.4177
   82MOL   C47342755   3.939   2.914   6.425  0.4218 -0.0222  0.6844
   82MOL   C47442756   3.951   2.829   6.310  0.0792  0.9038 -0.6132
   82MOL   C47542757   3.869   2.855   6.199 -0.0850  0.0054  0.1008
   82MOL   C47642758   3.769   2.951   6.195  0.0304  1.1493 -0.5481
   82MOL   C47742759   3.755   3.038   6.308  0.1610 -0.1706 -0.5509
   82MOL   C47842760   3.845   3.022   6.421  0.4863  0.1640 -0.5777
   82MOL   C47942761   4.043   2.724   6.345 -0.4106 -0.1047  0.4008
   82MOL   C48042762   4.103   2.769   6.471  0.4073  0.5662 -0.2705
   82MOL   C48142763   4.218   2.701   6.518  0.4652 -0.1975  0.1973
   82MOL   C48242764   4.267   2.586   6.454  0.0562 -0.1010  0.4561
   82MOL   C48342765   4.195   2.534   6.347 -0.3224  0.2579  0.0788
   82MOL   C48442766   4.091   2.605   6.290 -0.1447 -0.1823 -0.2495
   82MOL   H48542767   4.180   3.081   6.561 -0.0864 -0.8251 -0.7507
   82MOL   H48642768   4.246   2.974   6.677 -0.4056 -0.4002 -2.7850
   82MOL   H48742769   3.956   3.019   6.647  1.3142  2.0671 -0.9666
   82MOL   H48842770   3.872   2.778   6.123  0.8339  1.5980 -1.5270
   82MOL   H48942771   3.689   2.955   6.124 -0.1660  0.2909 -0.3747
   82MOL   H49042772   3.687   3.121   6.308 -0.2058 -0.3791  3.8368
   82MOL   H49142773   3.843   3.090   6.505  2.6281 -0.2077 -0.1989
   82MOL   H49242774   4.266   2.743   6.605  0.2834 -0.7693  0.5714
   82MOL   H49342775   4.366   2.547   6.475  0.8592  1.1600 -0.8705
   82MOL   H49442776   4.236   2.447   6.299  0.6092  0.5529  0.3170
   82MOL   H49542777   4.055   2.581   6.191  2.2594 -0.6136 -1.0558
   82MOL   C49642778   4.010   2.848   6.770 -0.3184 -0.5539  0.2105
   82MOL   C49742779   3.871   2.771   6.757 -0.1281  0.3781 -0.3188
   82MOL   N49842780   3.874   2.647   6.823 -0.7195 -0.5736 -0.4207
   82MOL   C49942781   3.881   2.632   6.961  0.4300  0.4262 -0.4368
   82MOL   C50042782   3.907   2.496   6.981  0.2649  0.7493  0.1574
   82MOL   C50142783   3.918   2.450   7.110 -0.2728  0.3681 -0.0037
   82MOL   C50242784   3.925   2.538   7.217 -0.4144  0.4201 -0.1988
   82MOL   C50342785   3.899   2.672   7.194  0.1559 -0.3060  0.2320
   82MOL   C50442786   3.864   2.719   7.066 -1.0491 -0.1612  0.3364
   82MOL   C50542787   3.911   2.431   6.852 -0.2601 -0.0174 -0.2646
   82MOL   C50642788   3.891   2.527   6.752  0.4727 -0.9717  0.1827
   82MOL   C50742789   3.890   2.493   6.616  0.7004 -0.5730  0.3456
   82MOL   C50842790   3.897   2.356   6.582  0.5524  0.2761 -0.5390
   82MOL   C50942791   3.910   2.257   6.679 -0.0154 -0.3298 -0.2430
   82MOL   C51042792   3.922   2.296   6.815 -0.5689  0.2756 -0.3519
   82MOL   H51142793   4.089   2.774   6.757 -0.9605 -0.9412 -1.6425
   82MOL   H51242794   4.027   2.897   6.866  0.2033  0.2453 -0.2788
   82MOL   H51342795   3.842   2.754   6.653 -0.2759  0.1962 -0.2471
   82MOL   H51442796   3.938   2.346   7.131  1.2894  0.5492 -0.5105
   82MOL   H51542797   3.940   2.498   7.317 -1.8462 -0.3780 -0.2954
   82MOL   H51642798   3.892   2.743   7.275  0.7607  1.1198 -0.9517
   82MOL   H51742799   3.828   2.818   7.041 -0.6859 -0.4059 -1.2255
   82MOL   H51842800   3.866   2.563   6.537 -1.5366 -1.7300 -0.0312
   82MOL   H51942801   3.890   2.326   6.478 -0.3144 -1.9783  0.1341
   82MOL   H52042802   3.929   2.156   6.648 -1.6063 -0.8193  0.3356
   82MOL   H52142803   3.944   2.227   6.895  1.3380  0.2141 -0.8885
   82MOL   H52242804   3.784   2.815   6.805 -0.6037 -1.1373  0.2358
   83MOL     C142805   7.274   8.172   0.873 -0.0457 -0.6999 -0.0774
   83MOL     C242806   7.236   8.025   0.892  0.7596  0.3572 -0.2037
   83MOL     N342807   7.216   7.963   0.761  0.9350  0.2368  0.4809
   83MOL     C442808   7.096   7.906   0.714 -0.5889  0.3903  0.0179
   83MOL     C542809   7.114   7.855   0.584 -0.1070  0.4888 -0.4105
   83MOL     C642810   7.010   7.794   0.517  0.6874  0.3176  0.4942
   83MOL     C742811   6.881   7.776   0.579  0.0086  0.2426 -0.5267
   83MOL     C842812   6.868   7.822   0.711  0.4755  0.1422  0.0423
   83MOL     C942813   6.974   7.890   0.780 -0.2129  0.0829 -0.5363
   83MOL    C1042814   7.252   7.881   0.550 -1.3820 -0.4926  0.3531
   83MOL    C1142815   7.309   7.953   0.660  0.4546 -0.4699 -0.6181
   83MOL    C1242816   7.438   7.999   0.641  0.1412  0.3971  0.4358
   83MOL    C1342817   7.522   7.956   0.535  0.0604 -0.1627  0.0887
   83MOL    C1442818   7.465   7.878   0.434  0.1160  0.0880  0.4260
   83MOL    C1542819   7.328   7.857   0.436  0.1424  0.3850 -0.1883
   83MOL    H1642820   7.200   0.010   0.828 -1.0350 -1.1416  0.8713
   83MOL    H1742821   7.361   8.193   0.811  1.0382 -3.3791  0.4728
   83MOL    H1842822   7.142   8.013   0.946  0.5117  0.0437 -0.6967
   83MOL    H1942823   7.028   7.760   0.417  2.0412  1.9980  0.1594
   83MOL    H2042824   6.791   7.735   0.535  0.1614 -2.0022  1.1140
   83MOL    H2142825   6.783   7.797   0.773  1.7373 -0.5684  1.5531
   83MOL    H2242826   6.958   7.929   0.880 -1.3573 -1.1513 -0.2243
   83MOL    H2342827   7.483   8.056   0.721 -1.7861  1.2180  0.9472
   83MOL    H2442828   7.624   7.991   0.535  0.1591 -0.4187  1.4275
   83MOL    H2542829   7.539   7.842   0.363  0.4823 -1.3656  1.5176
   83MOL    H2642830   7.287   7.797   0.355  1.5763  0.1657 -0.7636
   83MOL    H2742831   7.293   8.218   0.970 -0.7045 -1.8443  0.6045
   83MOL    C2842832   7.347   7.941   0.969  0.3428 -0.0806 -0.6809
   83MOL    C2942833   7.372   7.970   1.116 -0.4712  0.3304  0.9463
   83MOL    N3042834   7.251   7.979   1.192  0.2523  0.1815  0.3648
   83MOL    C3142835   7.218   8.094   1.263  0.2159  0.4397  0.0725
   83MOL    C3242836   7.086   8.081   1.311 -0.5495  0.1581 -0.0174
   83MOL    C3342837   7.033   8.198   1.381  0.1074  0.1687  0.1163
   83MOL    C3442838   7.110   0.082   1.410  0.5699  0.3761 -0.5885
   83MOL    C3542839   7.242   0.090   1.365  0.2960 -0.0327  0.5450
   83MOL    C3642840   7.301   8.209   1.299 -0.2370 -0.1363  0.4682
   83MOL    C3742841   7.035   7.950   1.270  0.0716  0.4978  0.2833
   83MOL    C3842842   7.142   7.889   1.195 -0.0691  0.3999 -0.0734
   83MOL    C3942843   7.130   7.755   1.149  0.4890 -0.3951 -0.0795
   83MOL    C4042844   7.009   7.685   1.166 -0.0565  0.4189 -0.5247
   83MOL    C4142845   6.905   7.751   1.227  0.0246 -0.1619 -0.4031
   83MOL    C4242846   6.914   7.881   1.284 -0.0508 -0.0809 -0.3200
   83MOL    H4342847   7.319   7.837   0.950 -0.1560 -0.2881  1.0902
   83MOL    H4442848   7.435   7.970   0.910  0.3924  0.4667 -0.3375
   83MOL    H4542849   7.427   8.064   1.114  1.9743 -1.0941 -0.1000
   83MOL    H4642850   6.933   8.199   1.421  0.7337 -1.1238  1.7771
   83MOL    H4742851   7.068   0.170   1.457  1.5990  0.5132  0.0927
   83MOL    H4842852   7.291   0.185   1.376  3.5628 -1.7080  1.1538
   83MOL    H4942853   7.399   8.216   1.255 -1.1714 -1.2801 -1.8585
   83MOL    H5042854   7.213   7.708   1.099  1.2153  1.2411 -0.4631
   83MOL    H5142855   7.000   7.587   1.122 -1.5175  0.4623 -0.3351
   83MOL    H5242856   6.810   7.699   1.234 -0.3448  0.4680 -0.6535
   83MOL    H5342857   6.835   7.929   1.341 -0.7026  0.3750 -1.5967
   83MOL    C5442858   7.459   7.868   1.178  0.5279 -0.4245 -0.4772
   83MOL    C5542859   7.595   7.843   1.109  0.0711  0.3037  0.0174
   83MOL    N5642860   7.670   7.964   1.122  0.3520 -0.6052 -0.4873
   83MOL    C5742861   7.722   8.037   1.013  0.1835  0.4180 -0.3043
   83MOL    C5842862   7.786   8.153   1.056 -0.6624 -0.4016  0.8325
   83MOL    C5942863   7.856   0.008   0.959 -0.4140  0.0916 -0.5748
   83MOL    C6042864   7.869   8.192   0.821 -0.1948 -0.2035 -0.2681
   83MOL    C6142865   7.811   8.072   0.785  0.4113  0.3866 -0.7027
   83MOL    C6242866   7.735   7.996   0.878  0.5765  0.1035 -0.7605
   83MOL    C6342867   7.770   8.156   1.199 -0.0894 -0.5802  0.0068
   83MOL    C6442868   7.710   8.035   1.237  0.2586 -0.5598  0.4230
   83MOL    C6542869   7.700   8.005   1.375 -0.2324  0.2341  0.2083
   83MOL    C6642870   7.739   8.092   1.480 -0.8921 -0.4692  0.2004
   83MOL    C6742871   7.799   8.210   1.441 -0.2522  0.2418 -0.4981
   83MOL    C6842872   7.820   0.015   1.302  0.2519 -1.1594 -0.2486
   83MOL    H6942873   7.472   7.886   1.285 -4.7072 -0.1500  0.2455
   83MOL    H7042874   7.412   7.770   1.186 -1.4922  0.6230  0.8813
   83MOL    H7142875   7.572   7.826   1.004  0.6201 -0.1226 -0.0383
   83MOL    H7242876   7.901   0.101   0.988  1.5491 -0.2935 -2.2524
   83MOL    H7342877   7.928   0.020   0.749  0.2418  1.1729  1.1441
   83MOL    H7442878   7.836   8.031   0.688 -0.2167 -0.4660 -0.5103
   83MOL    H7542879   7.694   7.901   0.845  4.6169 -1.7429 -0.7457
   83MOL    H7642880   7.647   7.913   1.396 -1.9244  0.8913 -1.0508
   83MOL    H7742881   7.735   8.054   1.581  3.3662  1.0183  1.0639
   83MOL    H7842882   7.838   0.047   1.519  1.2866  0.4222 -1.4012
   83MOL    H7942883   7.861   0.112   1.277 -2.3336  0.1057  0.1733
   83MOL    C8042884   7.679   7.714   1.153  0.8185 -0.6745  0.1358
   83MOL    C8142885   7.615   7.590   1.079 -0.4364 -0.6103 -0.1719
   83MOL    N8242886   7.606   7.590   0.937  0.1043  0.0551  0.2309
   83MOL    C8342887   7.493   7.561   0.860 -0.6939  0.2154 -0.0715
   83MOL    C8442888   7.525   7.568   0.725  0.2419  1.0146  0.6645
   83MOL    C8542889   7.422   7.532   0.634 -0.6611 -0.1273  0.4366
   83MOL    C8642890   7.300   7.487   0.674  0.2821 -0.8840 -0.3756
   83MOL    C8742891   7.268   7.492   0.813  0.8147 -0.5091 -0.4747
   83MOL    C8842892   7.369   7.525   0.905  0.5693  0.4094 -0.1027
   83MOL    C8942893   7.664   7.614   0.720 -0.1345 -0.8553  0.3565
   83MOL    C9042894   7.713   7.622   0.856  0.4502  0.1740  0.5916
   83MOL    C9142895   7.844   7.661   0.874 -0.6433 -0.1302  0.0487
   83MOL    C9242896   7.930   7.695   0.765  0.1767 -0.6402  0.2181
   83MOL    C9342897   7.880   7.692   0.637  0.2517  0.6485 -0.1455
   83MOL    C9442898   7.746   7.651   0.615  0.1538  0.4576 -0.2699
   83MOL    H9542899   7.785   7.724   1.133  0.1598  2.4034 -2.2302
   83MOL    H9642900   7.669   7.705   1.261  0.4400 -1.5344  0.0372
   83MOL    H9742901   7.514   7.600   1.119 -0.4597 -1.1091 -0.1016
   83MOL    H9842902   7.444   7.557   0.532  2.4348 -0.4108  0.9849
   83MOL    H9942903   7.223   7.465   0.601 -1.0519 -0.3496  0.8395
   83MOL   H10042904   7.169   7.470   0.850  1.4706 -0.7395  1.1509
   83MOL   H10142905   7.344   7.518   1.010  1.8377  0.2876  0.1969
   83MOL   H10242906   7.891   7.653   0.971 -0.2018 -0.1670 -0.1661
   83MOL   H10342907   8.032   7.723   0.789 -0.0093 -0.0094  0.2801
   83MOL   H10442908   7.943   7.730   0.557  1.7292 -0.2810  0.5590
   83MOL   H10542909   7.707   7.645   0.514  0.3655 -0.1229 -0.3238
   83MOL   C10642910   7.681   7.459   1.130  0.3125 -0.0382  0.2451
   83MOL   C10742911   7.671   7.424   1.279 -0.0890  0.0969 -0.4199
   83MOL   N10842912   7.534   7.450   1.319 -0.0730  0.5325  0.4665
   83MOL   C10942913   7.497   7.545   1.420  0.2596 -0.3368 -0.4877
   83MOL   C11042914   7.359   7.574   1.405  0.0074 -0.4669 -1.0537
   83MOL   C11142915   7.309   7.684   1.484  0.0460 -0.3292  0.4362
   83MOL   C11242916   7.396   7.756   1.564 -0.5416  0.5558  0.5683
   83MOL   C11342917   7.532   7.738   1.564 -0.7080 -0.1430 -0.1435
   83MOL   C11442918   7.582   7.625   1.505  0.8099  1.0710 -0.4690
   83MOL   C11542919   7.309   7.475   1.322  0.2481  0.4587  0.3073
   83MOL   C11642920   7.416   7.396   1.273  0.3366 -0.1303  0.7158
   83MOL   C11742921   7.381   7.289   1.182 -0.0986  0.3084  0.5070
   83MOL   C11842922   7.250   7.264   1.138 -0.4042 -0.5976  0.2161
   83MOL   C11942923   7.140   7.338   1.194  0.3731  0.3464 -0.0420
   83MOL   C12042924   7.172   7.441   1.289  0.0591  0.3572 -0.1605
   83MOL   H12142925   7.625   7.376   1.088 -3.0800  1.6395  1.3384
   83MOL   H12242926   7.786   7.452   1.100  0.4500 -0.0761  0.7429
   83MOL   H12342927   7.739   7.484   1.340  0.7151  0.2942 -1.4915
   83MOL   H12442928   7.208   7.721   1.483 -0.1269 -0.8106 -0.8914
   83MOL   H12542929   7.353   7.838   1.621  0.3423  0.1058  1.9048
   83MOL   H12642930   7.592   7.809   1.618  0.1033 -1.4017  0.6342
   83MOL   H12742931   7.683   7.589   1.521  0.3646  1.0616  2.7463
   83MOL   H12842932   7.447   7.220   1.131  1.2088  1.9514 -0.0699
   83MOL   H12942933   7.225   7.183   1.070  0.2697 -1.4414  0.9546
   83MOL   H13042934   7.042   7.315   1.157  0.7221  0.7274 -1.2066
   83MOL   H13142935   7.093   7.497   1.336 -1.0380 -0.3904 -1.0606
   83MOL   C13242936   7.711   7.279   1.321 -0.2235 -0.4939 -0.1169
   83MOL   C13342937   7.858   7.250   1.297 -0.0402 -0.2264 -0.1495
   83MOL   N13442938   7.939   7.306   1.399  0.5989  0.6792 -0.2430
   83MOL   C13542939   8.038   7.405   1.371 -0.3661 -0.3777  0.9396
   83MOL   C13642940   8.114   7.428   1.492  0.4301  0.2224  0.2663
   83MOL   C13742941   8.225   7.516   1.487  0.4088  1.1401 -0.1952
   83MOL   C13842942   0.026   7.586   1.369 -0.6295 -0.1160 -0.4076
   83MOL   C13942943   8.183   7.565   1.251  0.6360  0.0034  0.5524
   83MOL   C14042944   8.076   7.473   1.252 -0.4903 -0.3438 -1.1041
   83MOL   C14142945   8.049   7.347   1.594  0.0239 -0.6739  0.2254
   83MOL   C14242946   7.946   7.270   1.533  0.3215  0.6335  0.7136
   83MOL   C14342947   7.868   7.178   1.610 -0.9230 -0.5631  0.2303
   83MOL   C14442948   7.896   7.174   1.744  0.0220 -0.2251 -0.2878
   83MOL   C14542949   8.001   7.241   1.807 -0.3069  0.3358  1.0353
   83MOL   C14642950   8.081   7.326   1.730  0.0983  0.5638 -0.6245
   83MOL   H14742951   7.690   7.251   1.425 -1.5333 -0.3281 -0.3258
   83MOL   H14842952   7.644   7.212   1.267 -1.5495 -0.2637  1.2160
   83MOL   H14942953   7.885   7.306   1.208 -0.1624 -1.0026 -0.6827
   83MOL   H15042954   0.059   7.533   1.574  1.8864 -0.5727 -0.8760
   83MOL   H15142955   0.109   7.655   1.373 -1.5565  0.9520  0.4351
   83MOL   H15242956   8.216   7.611   1.160  0.8550  0.1339  0.6978
   83MOL   H15342957   8.033   7.435   1.160 -1.0919 -3.1503  0.2782
   83MOL   H15442958   7.782   7.130   1.566 -0.2981 -0.6234 -0.9672
   83MOL   H15542959   7.835   7.109   1.805 -3.2741  1.7414 -1.3534
   83MOL   H15642960   8.021   7.234   1.913  0.3594 -0.7369  0.8451
   83MOL   H15742961   8.165   7.375   1.778 -1.1123  1.2468  0.8215
   83MOL   C15842962   7.890   7.097   1.269  0.0987 -0.3089 -0.4898
   83MOL   C15942963   7.839   7.030   1.135 -0.3057  0.2292  0.0558
   83MOL   N16042964   7.837   7.112   1.018 -0.4671  0.8709 -0.1940
   83MOL   C16142965   7.716   7.128   0.939  0.2407  0.3084 -0.1989
   83MOL   C16242966   7.736   7.234   0.839 -0.3311  0.0725 -0.2576
   83MOL   C16342967   7.628   7.268   0.755  0.3935  0.1001  0.3630
   83MOL   C16442968   7.501   7.203   0.770 -0.3171 -0.4004  0.1039
   83MOL   C16542969   7.485   7.095   0.862  0.2154  0.4755  0.0820
   83MOL   C16642970   7.591   7.062   0.948  0.1395  0.0319  0.6444
   83MOL   C16742971   7.876   7.274   0.858 -0.1091  0.3187  0.9223
   83MOL   C16842972   7.930   7.197   0.963 -0.6232  0.3018 -0.5167
   83MOL   C16942973   8.061   7.215   0.991  0.1853  0.0805  0.0101
   83MOL   C17042974   8.149   7.311   0.924  0.1025 -0.0510  0.0305
   83MOL   C17142975   8.093   7.383   0.819  0.0544 -0.4516  0.9685
   83MOL   C17242976   7.958   7.366   0.786  0.3215 -0.9479  0.7010
   83MOL   H17342977   7.994   7.067   1.279  0.1085  0.1339  0.8968
   83MOL   H17442978   7.842   7.048   1.354 -1.3064  0.6710 -0.7152
   83MOL   H17542979   7.735   7.016   1.166 -0.1973  0.6667  0.6257
   83MOL   H17642980   7.641   7.347   0.682  2.7844 -1.0159 -0.4866
   83MOL   H17742981   7.421   7.230   0.703 -1.3610 -1.7793  0.7641
   83MOL   H17842982   7.393   7.038   0.855 -0.6708  1.5812  2.1394
   83MOL   H17942983   7.576   6.983   1.020  1.5367 -0.5241  0.3445
   83MOL   H18042984   8.109   7.166   1.075  2.0783  1.3409 -0.3066
   83MOL   H18142985   0.024   7.327   0.954  0.4660 -0.9138 -0.7485
   83MOL   H18242986   8.152   7.460   0.771 -1.8660  0.9204  0.7444
   83MOL   H18342987   7.902   7.429   0.718 -2.4468 -2.5062  1.5003
   83MOL   C18442988   7.898   6.893   1.109 -0.1165  0.1641 -0.0230
   83MOL   C18542989   7.870   6.796   1.230 -0.1676  0.0663 -0.3824
   83MOL   N18642990   7.731   6.767   1.256  0.4999 -0.7526 -0.0076
   83MOL   C18742991   7.667   6.793   1.371 -0.0002 -0.3079  0.2196
   83MOL   C18842992   7.528   6.804   1.347  0.0720 -0.0745 -0.0632
   83MOL   C18942993   7.436   6.848   1.454 -0.6791  0.2791 -0.0443
   83MOL   C19042994   7.482   6.860   1.586 -0.8530 -0.1946  0.4383
   83MOL   C19142995   7.623   6.852   1.609  0.2889 -0.1625  0.4023
   83MOL   C19242996   7.711   6.835   1.501 -0.0268  0.0599 -0.2520
   83MOL   C19342997   7.511   6.748   1.211 -0.0689  0.2437  0.2628
   83MOL   C19442998   7.640   6.735   1.161 -0.7358  0.3570 -0.0698
   83MOL   C19542999   7.659   6.686   1.032 -0.3875  0.4016 -0.1970
   83MOL   C19643000   7.552   6.684   0.944  0.0517  0.5922 -0.5146
   83MOL   C19743001   7.422   6.703   0.994 -0.5959  0.2501 -0.3258
   83MOL   C19843002   7.403   6.739   1.126 -0.6706  0.4787  0.1364
   83MOL   H19943003   7.857   6.849   1.019 -1.1026  0.5215  0.2397
   83MOL   H20043004   8.004   6.896   1.085 -0.4763  0.9253 -1.5917
   83MOL   H20143005   7.903   6.834   1.327  0.5905 -0.0975 -0.5702
   83MOL   H20243006   7.337   6.861   1.413  0.1796  2.2949 -1.5443
   83MOL   H20343007   7.412   6.867   1.668  0.8776 -0.3504  1.9587
   83MOL   H20443008   7.655   6.878   1.709 -1.1643 -0.3894  0.9337
   83MOL   H20543009   7.818   6.832   1.518  0.1270 -1.8971 -1.4558
   83MOL   H20643010   7.754   6.658   0.989  0.7390  2.3942  0.9255
   83MOL   H20743011   7.577   6.660   0.842  0.4358  0.7900 -0.4674
   83MOL   H20843012   7.335   6.688   0.932 -0.7065 -0.1929 -0.0701
   83MOL   H20943013   7.303   6.768   1.154 -0.7468 -0.6810  1.0883
   83MOL   C21043014   7.949   6.668   1.226 -0.1354 -0.1040 -0.6217
   83MOL   C21143015   8.107   6.682   1.245 -0.3053  0.4405 -0.3374
   83MOL   N21243016   8.142   6.795   1.341 -0.3268  0.0337 -0.0318
   83MOL   C21343017   8.209   6.914   1.306  0.3963 -0.1092  0.5581
   83MOL   C21443018   0.001   6.997   1.425  0.6248 -0.4786 -0.1532
   83MOL   C21543019   0.072   7.118   1.416  0.3506 -0.2198  0.4510
   83MOL   C21643020   0.119   7.161   1.292 -0.1249 -0.0899  0.0856
   83MOL   C21743021   0.118   7.080   1.183 -0.4903 -0.0738  0.3564
   83MOL   C21843022   0.054   6.952   1.188  0.0316  0.0850  0.0831
   83MOL   C21943023   8.171   6.920   1.533 -0.2169  1.0029 -0.2498
   83MOL   C22043024   8.112   6.801   1.480 -0.0316  0.1271  0.0752
   83MOL   C22143025   8.042   6.708   1.564 -0.3672 -0.2497 -0.5277
   83MOL   C22243026   8.027   6.739   1.701  0.0188 -0.2519 -0.7239
   83MOL   C22343027   8.088   6.854   1.750  0.3250  0.2558 -0.2602
   83MOL   C22443028   8.157   6.948   1.673 -0.3111  0.0792 -0.0348
   83MOL   H22543029   7.915   6.601   1.305 -2.7599  1.1969 -0.6244
   83MOL   H22643030   7.936   6.614   1.132 -0.3036 -0.1871 -0.5510
   83MOL   H22743031   8.152   6.708   1.149  0.5961  3.1225  0.7611
   83MOL   H22843032   0.087   7.168   1.510  0.7730 -0.5384  0.5532
   83MOL   H22943033   0.167   7.256   1.276 -0.2354 -0.2494 -1.2553
   83MOL   H23043034   0.154   7.121   1.090 -4.7641  0.4295 -1.1670
   83MOL   H23143035   0.043   6.876   1.111  2.7474  0.4801 -0.7536
   83MOL   H23243036   7.997   6.626   1.510  1.7275 -1.6105 -0.2643
   83MOL   H23343037   7.966   6.672   1.760 -1.0004  1.1038 -0.2122
   83MOL   H23443038   8.065   6.867   1.855 -0.6635  1.1782 -0.5828
   83MOL   H23543039   8.200   7.038   1.714  0.2168  0.7057 -1.8940
   83MOL   C23643040   8.172   6.552   1.293  0.9200  0.2503  0.0444
   83MOL   C23743041   8.191   6.444   1.181  0.0488 -0.0604  0.0242
   83MOL   N23843042   0.069   6.485   1.089  0.2630 -0.5839 -0.3754
   83MOL   C23943043   0.060   6.501   0.951 -0.7365 -0.3444  0.1613
   83MOL   C24043044   0.191   6.517   0.897 -0.5484  0.4436  0.1770
   83MOL   C24143045   0.204   6.537   0.761 -0.3859 -0.3418 -0.8129
   83MOL   C24243046   0.096   6.531   0.671  0.1899  0.5680  0.3279
   83MOL   C24343047   8.194   6.508   0.723 -0.0764 -0.0104  0.3813
   83MOL   C24443048   8.173   6.493   0.859 -0.2065  0.4321 -0.2986
   83MOL   C24543049   0.281   6.522   1.007 -0.0781 -0.1958  0.4758
   83MOL   C24643050   0.205   6.491   1.124  0.1206 -0.2799 -0.1352
   83MOL   C24743051   0.268   6.485   1.250 -0.3343  0.8366  0.4367
   83MOL   C24843052   0.405   6.504   1.259 -0.3472 -0.1034 -0.5696
   83MOL   C24943053   0.481   6.534   1.144 -0.5416  0.5676  0.0108
   83MOL   C25043054   0.423   6.543   1.019  0.1420 -0.2808 -0.3378
   83MOL   H25143055   0.039   6.568   1.345  0.0565  0.1941  1.6383
   83MOL   H25243056   8.099   6.510   1.362 -1.0918  1.0124 -1.5428
   83MOL   H25343057   8.101   6.447   1.120 -1.6860 -0.7826  2.4591
   83MOL   H25443058   0.306   6.549   0.727  0.6995 -1.3256  1.9570
   83MOL   H25543059   0.119   6.531   0.565 -3.4280 -2.1159 -0.5797
   83MOL   H25643060   8.113   6.492   0.653 -0.1194 -0.8407  0.6207
   83MOL   H25743061   8.070   6.482   0.889 -0.7444  1.3901 -1.7121
   83MOL   H25843062   0.210   6.476   1.340  0.7677  2.5813  1.3405
   83MOL   H25943063   0.467   6.490   1.347  0.7231 -0.1989 -1.3203
   83MOL   H26043064   0.587   6.547   1.151 -0.7352  3.6556 -1.9534
   83MOL   H26143065   0.485   6.581   0.939  1.2722  1.5901  1.3667
   83MOL   C26243066   8.216   6.294   1.231  0.6474  0.5613  0.7180
   83MOL   C26343067   8.108   6.236   1.321  0.2345 -0.7142  0.0572
   83MOL   N26443068   7.971   6.276   1.285  0.2775  0.3218 -0.3268
   83MOL   C26543069   7.874   6.335   1.369  0.1031 -0.1455 -0.0046
   83MOL   C26643070   7.752   6.358   1.302 -0.6935  0.0155 -0.5453
   83MOL   C26743071   7.641   6.414   1.371  0.1518  0.3961 -0.6083
   83MOL   C26843072   7.654   6.450   1.508  0.5796 -0.2396 -0.7705
   83MOL   C26943073   7.777   6.434   1.572  0.4369 -0.0985 -0.2149
   83MOL   C27043074   7.888   6.377   1.504  0.2146  0.2885  0.1407
   83MOL   C27143075   7.777   6.307   1.166  0.6111 -0.8347 -0.5793
   83MOL   C27243076   7.907   6.253   1.164 -0.3693  0.7449  0.0983
   83MOL   C27343077   7.953   6.195   1.045 -0.1710  0.1134 -0.1896
   83MOL   C27443078   7.875   6.201   0.929 -0.0719  0.0017  0.6634
   83MOL   C27543079   7.746   6.261   0.929  0.7688  0.0968  0.1166
   83MOL   C27643080   7.693   6.311   1.052  0.0986 -0.2112  0.7284
   83MOL   H27743081   8.224   6.239   1.138  0.4922  2.0860 -0.2132
   83MOL   H27843082   0.079   6.289   1.292  1.2670 -2.2448 -0.3648
   83MOL   H27943083   8.128   6.279   1.419  1.7321 -0.7129 -0.2315
   83MOL   H28043084   7.547   6.442   1.325 -1.3577  1.6393  3.0745
   83MOL   H28143085   7.573   6.504   1.556  2.0554  1.7460 -0.4178
   83MOL   H28243086   7.797   6.465   1.673 -1.7581  5.7761 -1.3894
   83MOL   H28343087   7.985   6.370   1.549  0.5971  1.5295 -0.4623
   83MOL   H28443088   8.052   6.153   1.033  0.8804  1.7024  2.4966
   83MOL   H28543089   7.917   6.171   0.833  0.4878 -1.2645  1.2847
   83MOL   H28643090   7.682   6.269   0.842 -0.4873 -1.1445  0.8915
   83MOL   H28743091   7.591   6.346   1.049  0.5074  1.1040  1.8238
   83MOL   C28843092   8.117   6.079   1.343  0.4541 -0.5250 -0.6751
   83MOL   C28943093   0.027   6.009   1.376  0.2276  0.5070 -0.5863
   83MOL   N29043094   0.098   6.088   1.478 -0.0759 -0.2238 -0.1968
   83MOL   C29143095   0.224   6.151   1.461  0.0283 -0.0321  0.5311
   83MOL   C29243096   0.272   6.189   1.591  0.0253  0.4676  0.1673
   83MOL   C29343097   0.402   6.248   1.596  0.2716  0.4890 -0.5807
   83MOL   C29443098   0.482   6.252   1.480 -0.3206 -0.3941 -0.3221
   83MOL   C29543099   0.431   6.214   1.355  0.3768 -0.1580 -0.3565
   83MOL   C29643100   0.299   6.161   1.344 -0.3436  0.2874  0.2418
   83MOL   C29743101   0.168   6.164   1.682 -0.1323 -0.7801 -0.1577
   83MOL   C29843102   0.063   6.098   1.613  0.0651  0.1035 -0.4937
   83MOL   C29943103   8.176   6.052   1.690 -0.1709 -0.2856 -0.4161
   83MOL   C30043104   8.164   6.077   1.826 -0.1910  0.3948  1.0951
   83MOL   C30143105   0.038   6.148   1.891 -0.1046 -0.2678  0.6203
   83MOL   C30243106   0.153   6.195   1.822  0.6948 -0.4459  0.0233
   83MOL   H30343107   8.051   6.059   1.427  0.6763 -0.7181 -0.5475
   83MOL   H30443108   8.073   6.035   1.253 -3.8358  1.6514  0.2275
   83MOL   H30543109   0.081   5.990   1.283  2.3778  0.4835  0.6231
   83MOL   H30643110   0.443   6.278   1.692  1.0156 -1.7840 -0.1594
   83MOL   H30743111   0.579   6.299   1.483 -1.0009  0.9850  0.3270
   83MOL   H30843112   0.495   6.231   1.270  0.8045  1.0569  0.1978
   83MOL   H30943113   0.254   6.146   1.247 -1.7323 -0.8168  1.0392
   83MOL   H31043114   8.085   6.015   1.645 -0.6277 -0.8673  0.9701
   83MOL   H31143115   8.078   6.046   1.883  2.0196 -4.1824  2.1664
   83MOL   H31243116   0.018   6.164   1.996 -1.6036  2.7972 -0.0822
   83MOL   H31343117   0.239   6.239   1.872  1.6968 -1.4101 -0.8125
   83MOL   C31443118   0.013   5.858   1.413 -0.2425 -0.5227  0.3793
   83MOL   C31543119   0.150   5.786   1.419  0.7763  0.0862 -0.6990
   83MOL   N31643120   0.190   5.762   1.557  0.0706 -0.8952  0.0118
   83MOL   C31743121   0.304   5.800   1.626  0.3947 -0.5602 -0.0437
   83MOL   C31843122   0.300   5.748   1.761 -0.5455  0.0199  0.3069
   83MOL   C31943123   0.419   5.770   1.839 -0.6541  0.1079 -0.6131
   83MOL   C32043124   0.531   5.833   1.789 -0.2236 -0.2201  0.3331
   83MOL   C32143125   0.533   5.884   1.658 -0.0536 -0.4142  0.2277
   83MOL   C32243126   0.422   5.864   1.575  0.1649  0.1342 -0.5928
   83MOL   C32343127   0.176   5.677   1.772 -0.4894 -0.0321 -0.1940
   83MOL   C32443128   0.113   5.683   1.643  0.1460  0.2415  0.2244
   83MOL   C32543129   8.216   5.620   1.625 -0.0060  0.5727  0.5808
   83MOL   C32643130   8.162   5.536   1.727  0.6308 -0.1071  0.5889
   83MOL   C32743131   0.000   5.524   1.854  0.7946  0.0210 -0.1029
   83MOL   C32843132   0.117   5.600   1.876 -0.3603 -0.2552 -0.3902
   83MOL   H32943133   8.186   5.839   1.505 -2.7521  0.3563 -0.8713
   83MOL   H33043134   8.180   5.798   1.345  3.7337 -2.7062 -1.4352
   83MOL   H33143135   0.223   5.854   1.377 -1.8173  1.6834 -2.7624
   83MOL   H33243136   0.427   5.729   1.939  2.2497  1.2688 -0.3075
   83MOL   H33343137   0.616   5.845   1.855 -1.1769  1.2401  1.3398
   83MOL   H33443138   0.621   5.930   1.616 -2.0224  3.3260 -0.1046
   83MOL   H33543139   0.439   5.894   1.472  0.4738 -1.4430 -1.0175
   83MOL   H33643140   8.164   5.621   1.530  0.8949 -1.6264  0.0223
   83MOL   H33743141   8.070   5.483   1.710 -0.6461  1.5169  2.1685
   83MOL   H33843142   8.194   5.460   1.934  2.6996 -1.5715 -0.5332
   83MOL   H33943143   0.161   5.589   1.973 -0.8479 -1.0730 -0.2520
   83MOL   C34043144   0.165   5.660   1.335 -0.6607  0.0904 -0.1511
   83MOL   C34143145   0.163   5.696   1.186 -0.4647 -0.1459  0.0904
   83MOL   N34243146   0.278   5.776   1.141  0.3667  0.2804 -0.5506
   83MOL   C34343147   0.269   5.897   1.076  0.2330 -0.4193 -0.1700
   83MOL   C34443148   0.396   5.954   1.070  0.4290  0.1405 -0.0218
   83MOL   C34543149   0.406   6.086   1.018 -0.3488 -0.1390 -0.7721
   83MOL   C34643150   0.294   6.150   0.970 -0.1459 -0.2714 -0.0410
   83MOL   C34743151   0.170   6.092   0.958 -0.4810 -0.1557  0.3794
   83MOL   C34843152   0.156   5.968   1.021 -0.5202 -0.9945 -0.0547
   83MOL   C34943153   0.490   5.859   1.125  0.0369 -0.6071  0.3327
   83MOL   C35043154   0.416   5.747   1.164  0.8148  0.3395 -0.0361
   83MOL   C35143155   0.482   5.627   1.204  0.1676 -0.1624 -0.1811
   83MOL   C35243156   0.622   5.620   1.197  0.4131 -0.2391 -0.1495
   83MOL   C35343157   0.692   5.736   1.175 -0.4570 -0.1360 -0.2597
   83MOL   C35443158   0.628   5.857   1.142  0.0419  0.2878 -0.5426
   83MOL   H35543159   0.251   5.599   1.364 -0.8101 -0.1039 -0.1164
   83MOL   H35643160   0.091   5.581   1.349  0.6024 -0.6733  2.4422
   83MOL   H35743161   0.074   5.759   1.172 -1.4599 -1.5406  0.0228
   83MOL   H35843162   0.498   6.142   1.020  0.2137 -1.1003  0.9958
   83MOL   H35943163   0.308   6.254   0.942 -1.7919 -0.2712 -0.9062
   83MOL   H36043164   0.078   6.147   0.941 -1.2953 -1.7765 -0.5535
   83MOL   H36143165   0.055   5.930   1.031 -0.6053 -1.0043 -0.9311
   83MOL   H36243166   0.417   5.542   1.222 -0.8550  0.3825 -1.2635
   83MOL   H36343167   0.676   5.529   1.220  0.4597  0.1959  1.5629
   83MOL   H36443168   0.800   5.730   1.181 -0.5151  0.2798  1.2380
   83MOL   H36543169   0.683   5.944   1.110 -0.4763  1.5357  1.8705
   83MOL   C36643170   0.143   5.577   1.098  0.2689  0.3572  0.2461
   83MOL   C36743171   0.010   5.504   1.093  0.3287  0.0292  0.3886
   83MOL   N36843172   8.120   5.585   1.114  0.2864  0.6561  0.8224
   83MOL   C36943173   8.035   5.583   1.220  0.0558 -0.1015  0.1518
   83MOL   C37043174   7.915   5.657   1.194 -0.0447 -1.3232  0.1256
   83MOL   C37143175   7.807   5.655   1.286 -0.4152 -0.4443  0.2295
   83MOL   C37243176   7.818   5.574   1.401  0.1272 -0.4033 -0.2698
   83MOL   C37343177   7.929   5.494   1.427 -0.1405  0.1800  0.2180
   83MOL   C37443178   8.040   5.506   1.341 -0.2936 -0.0362  0.5102
   83MOL   C37543179   7.947   5.731   1.069  0.2117  0.1377 -0.3547
   83MOL   C37643180   8.074   5.685   1.026 -0.5863  0.4508 -0.1518
   83MOL   C37743181   8.136   5.737   0.909  0.8141  0.4536 -0.0932
   83MOL   C37843182   8.072   5.836   0.836  0.2658  0.2122 -0.0268
   83MOL   C37943183   7.934   5.870   0.866 -0.7045  0.5708  0.0736
   83MOL   C38043184   7.879   5.811   0.980  0.2326 -0.1192 -0.5057
   83MOL   H38143185   0.158   5.607   0.994 -0.3469 -0.1632  0.0023
   83MOL   H38243186   0.219   5.503   1.120  0.5830  0.5272 -0.2450
   83MOL   H38343187   0.017   5.433   1.176 -0.1991 -0.4411  0.0347
   83MOL   H38443188   7.718   5.713   1.272  1.2232  1.8315 -1.1976
   83MOL   H38543189   7.729   5.557   1.459 -1.0448  1.1286 -1.5542
   83MOL   H38643190   7.928   5.422   1.508 -1.8198 -1.2709 -1.0350
   83MOL   H38743191   8.126   5.450   1.373  0.2722  0.7317  0.3326
   83MOL   H38843192   0.002   5.699   0.872 -0.7842 -3.1786 -0.6369
   83MOL   H38943193   8.123   5.887   0.756 -1.6464 -0.5725 -1.7958
   83MOL   H39043194   7.886   5.943   0.803 -1.0008  1.1389  0.9457
   83MOL   H39143195   7.777   5.834   1.009 -0.1773 -1.7867 -0.5849
   83MOL   C39243196   8.219   5.414   0.973 -0.0480  0.1088 -0.0857
   83MOL   C39343197   8.094   5.325   0.990  0.1739 -0.3953 -0.2404
   83MOL   N39443198   7.990   5.353   0.890  0.3102  0.0475 -0.0268
   83MOL   C39543199   7.859   5.373   0.919  0.8086 -0.1919  0.2656
   83MOL   C39643200   7.781   5.379   0.801 -0.7578 -0.0304 -0.0215
   83MOL   C39743201   7.644   5.394   0.811 -0.0857 -0.7242  0.5240
   83MOL   C39843202   7.586   5.404   0.939 -0.3780  0.0161 -0.0865
   83MOL   C39943203   7.654   5.385   1.057  0.2011 -0.4603 -0.2299
   83MOL   C40043204   7.795   5.382   1.045 -0.7845  0.2711  0.8254
   83MOL   C40143205   7.864   5.356   0.695 -0.4308 -0.8047 -0.2022
   83MOL   C40243206   7.996   5.347   0.752  0.5220 -0.1457 -0.1380
   83MOL   C40343207   8.114   5.314   0.671 -0.0637  0.1994  0.2606
   83MOL   C40443208   8.099   5.300   0.535  0.2032 -0.7508  0.5092
   83MOL   C40543209   7.968   5.308   0.476 -0.1157 -0.2002 -0.1816
   83MOL   C40643210   7.851   5.331   0.554 -0.8822 -0.4920 -0.3727
   83MOL   H40743211   0.000   5.468   0.879  0.0163  0.2781  0.0176
   83MOL   H40843212   0.075   5.345   0.980 -1.5818 -2.1719 -3.1141
   83MOL   H40943213   8.054   5.345   1.089  1.0418  1.0839 -0.1733
   83MOL   H41043214   7.587   5.419   0.722 -0.1563  0.4905  0.9029
   83MOL   H41143215   7.480   5.426   0.943 -0.8909 -2.4036  0.6927
   83MOL   H41243216   7.599   5.388   1.151 -1.2204 -0.7698 -1.0316
   83MOL   H41343217   7.859   5.374   1.132  2.0168  0.3947 -1.1707
   83MOL   H41443218   8.208   5.287   0.717  2.1959 -0.0900 -4.3134
   83MOL   H41543219   8.190   5.277   0.482  0.2431  1.4716 -0.4521
   83MOL   H41643220   7.960   5.278   0.372 -0.3689 -0.8948  0.0383
   83MOL   H41743221   7.753   5.327   0.509 -1.3771  1.2865  0.5074
   83MOL   C41843222   8.130   5.167   0.987 -0.0114 -0.0523 -0.8906
   83MOL   C41943223   8.206   5.116   1.114  0.3225 -0.9420  0.9738
   83MOL   N42043224   8.151   5.128   1.250 -0.2233 -0.2880  0.4881
   83MOL   C42143225   8.213   5.180   1.364 -0.2299 -0.1795 -0.5426
   83MOL   C42243226   8.131   5.173   1.481  0.4540  0.3772  0.9258
   83MOL   C42343227   8.185   5.221   1.606  0.3605 -0.1290 -0.1041
   83MOL   C42443228   0.086   5.279   1.617  0.0479  0.2980  0.8211
   83MOL   C42543229   0.163   5.287   1.500  0.7531 -0.1972 -0.6381
   83MOL   C42643230   0.109   5.242   1.373  0.0449  0.1780 -0.1393
   83MOL   C42743231   8.012   5.105   1.435 -1.2761  0.2782  0.0388
   83MOL   C42843232   8.026   5.079   1.293 -0.3470  0.0321 -0.0443
   83MOL   C42943233   7.928   5.012   1.223  0.6963 -0.4182 -0.5732
   83MOL   C43043234   7.812   4.965   1.290 -0.1262  0.0459 -0.0746
   83MOL   C43143235   7.793   5.000   1.429 -0.3750 -1.1853 -0.0707
   83MOL   C43243236   7.891   5.070   1.495 -0.2151  0.1320 -0.7411
   83MOL   H43343237   8.038   5.110   0.978  0.0063 -0.7407  2.4743
   83MOL   H43443238   8.187   5.158   0.895  1.2695 -0.9638 -0.0273
   83MOL   H43543239   0.062   5.185   1.121 -1.7368  1.6604  0.3501
   83MOL   H43643240   8.120   5.217   1.692  1.9233  0.0517  1.1072
   83MOL   H43743241   0.124   5.331   1.704  2.1228 -0.0259  0.1404
   83MOL   H43843242   0.262   5.330   1.500  0.3846  0.6578  1.0138
   83MOL   H43943243   0.175   5.250   1.288 -0.2614 -0.6901 -0.4568
   83MOL   H44043244   7.934   4.990   1.117  0.4475 -1.7180 -0.3183
   83MOL   H44143245   7.732   4.915   1.237  1.0474 -0.0361 -1.7723
   83MOL   H44243246   7.706   4.965   1.482 -1.5563  1.5558 -0.1660
   83MOL   H44343247   7.883   5.103   1.597 -2.0059 -1.9695 -0.1515
   83MOL   C44443248   0.026   4.972   1.096  0.6813  0.3892 -0.9307
   83MOL   C44543249   0.114   4.944   0.970  0.4016  0.0752 -0.0762
   83MOL   N44643250   0.218   5.054   0.948  0.1219 -0.3447 -0.1723
   83MOL   C44743251   0.237   5.121   0.823 -0.7355 -0.3036 -0.0522
   83MOL   C44843252   0.337   5.223   0.842  0.2064  0.4238  0.4705
   83MOL   C44943253   0.379   5.305   0.732 -0.4354 -0.4445  0.3296
   83MOL   C45043254   0.333   5.274   0.600 -0.9608 -0.5344 -0.3756
   83MOL   C45143255   0.233   5.177   0.586  0.6398  0.6047  0.3746
   83MOL   C45243256   0.188   5.097   0.693  0.5739 -0.2035  0.0121
   83MOL   C45343257   0.370   5.226   0.984  0.4372  0.1753 -0.4758
   83MOL   C45443258   0.304   5.112   1.047 -0.4480 -0.6830 -0.0474
   83MOL   C45543259   0.339   5.068   1.174 -0.0889  0.6252  0.0847
   83MOL   C45643260   0.433   5.136   1.247  0.0438  0.1793  0.1700
   83MOL   C45743261   0.497   5.245   1.191 -0.0664  0.2458 -0.0557
   83MOL   C45843262   0.466   5.292   1.064  0.3178 -0.6151  0.5171
   83MOL   H45943263   0.076   4.932   1.183 -2.1663 -1.7083 -0.1724
   83MOL   H46043264   8.163   4.910   1.095  1.4142 -0.6854 -0.6398
   83MOL   H46143265   0.045   4.971   0.890 -0.5883  0.5466  0.9194
   83MOL   H46243266   0.460   5.376   0.737 -1.9915  1.2060  2.4901
   83MOL   H46343267   0.385   5.315   0.514  0.2757 -0.1430  0.5338
   83MOL   H46443268   0.200   5.154   0.486  1.8518 -1.0119  0.3090
   83MOL   H46543269   0.114   5.023   0.667  1.2286 -0.3978 -1.3847
   83MOL   H46643270   0.301   4.978   1.220 -1.4569 -0.7320 -3.5016
   83MOL   H46743271   0.459   5.112   1.349 -0.9485  0.0123  0.3910
   83MOL   H46843272   0.563   5.309   1.248 -0.7783  1.3371 -0.4415
   83MOL   H46943273   0.508   5.384   1.028  0.2015 -1.5347 -2.0909
   83MOL   C47043274   0.172   4.805   0.957 -0.0226  0.1706 -0.1080
   83MOL   C47143275   0.067   4.705   0.895  0.2397  0.0083 -0.2010
   83MOL   N47243276   0.027   4.743   0.761  0.5732  0.7256 -0.4963
   83MOL   C47343277   8.137   4.821   0.732 -0.4721 -0.2025 -0.2876
   83MOL   C47443278   8.128   4.848   0.595 -0.3902 -0.2762 -0.0720
   83MOL   C47543279   8.016   4.920   0.543  0.1318  0.2107  0.2703
   83MOL   C47643280   7.918   4.968   0.629 -0.2703 -0.2670 -0.3770
   83MOL   C47743281   7.922   4.940   0.765  0.2838 -0.4200  0.0441
   83MOL   C47843282   8.034   4.867   0.819 -0.0585  0.5323  0.4326
   83MOL   C47943283   0.024   4.803   0.533  0.4055 -0.7853  0.0352
   83MOL   C48043284   0.102   4.747   0.641  0.1593 -0.3102  0.3902
   83MOL   C48143285   0.233   4.704   0.609  0.3971  0.0890  0.3166
   83MOL   C48243286   0.288   4.706   0.475 -0.5067  0.1390 -0.0634
   83MOL   C48343287   0.205   4.769   0.374  0.2000  0.9438  1.1893
   83MOL   C48443288   0.073   4.813   0.402 -0.4829 -0.1608  0.2082
   83MOL   H48543289   0.264   4.789   0.901  1.0791  2.6594  0.9531
   83MOL   H48643290   0.200   4.773   1.058  2.3535  1.2254 -0.4084
   83MOL   H48743291   8.206   4.721   0.957  1.0275  0.4703  0.7950
   83MOL   H48843292   8.006   4.940   0.437 -0.9963 -0.3092  0.2763
   83MOL   H48943293   7.828   5.018   0.597 -0.3588 -0.2328 -0.0737
   83MOL   H49043294   7.846   4.984   0.828 -1.0500 -0.9069 -1.1956
   83MOL   H49143295   8.027   4.834   0.921  0.3799 -0.4476  0.1546
   83MOL   H49243296   0.293   4.676   0.694  2.2384  2.6670 -0.0540
   83MOL   H49343297   0.391   4.681   0.455 -0.2655 -0.4439  1.8207
   83MOL   H49443298   0.242   4.785   0.274  1.7319  0.0899  1.6110
   83MOL   H49543299   0.016   4.879   0.338  0.1765 -0.1879 -0.4169
   83MOL   C49643300   0.109   4.555   0.908 -0.3989  0.1524 -0.7112
   83MOL   C49743301   0.117   4.499   1.053  0.2091 -0.0197  0.1110
   83MOL   N49843302   0.025   4.559   1.145  0.1250  0.0749  0.4909
   83MOL   C49943303   8.117   4.519   1.153  0.4339 -0.1193 -0.3760
   83MOL   C50043304   8.052   4.607   1.250  0.7960  0.7275 -0.8355
   83MOL   C50143305   7.910   4.596   1.274  0.6511  0.2685  0.3602
   83MOL   C50243306   7.829   4.499   1.206  0.1692  0.1504  0.2002
   83MOL   C50343307   7.891   4.408   1.118 -0.3742  0.0292 -0.2743
   83MOL   C50443308   8.027   4.423   1.087 -0.3923 -0.3820  0.4844
   83MOL   C50543309   8.157   4.686   1.315 -0.0585  0.4274  0.3121
   83MOL   C50643310   0.054   4.651   1.245 -0.0001  0.0433  0.1650
   83MOL   C50743311   0.172   4.711   1.287 -0.1356  0.3246  0.1147
   83MOL   C50843312   0.175   4.799   1.396 -0.4085  0.6158  0.1760
   83MOL   C50943313   0.052   4.845   1.458 -0.1251  0.8132 -0.4155
   83MOL   C51043314   8.161   4.789   1.416  0.3355 -0.2217 -0.1668
   83MOL   H51143315   0.023   4.501   0.868  0.4421 -2.0387  0.3593
   83MOL   H51243316   0.194   4.524   0.848 -2.2694  0.3738 -3.5832
   83MOL   H51343317   0.221   4.516   1.079  0.9573 -2.8631 -0.9265
   83MOL   H51443318   7.868   4.649   1.357 -1.2107  0.8965 -0.9434
   83MOL   H51543319   7.724   4.490   1.231  0.0868  0.5147 -0.0134
   83MOL   H51643320   7.835   4.330   1.068 -0.7127 -0.4311  0.8103
   83MOL   H51743321   8.069   4.356   1.014  1.4641  1.8015 -0.5158
   83MOL   H51843322   0.261   4.681   1.233 -0.7205 -1.5118  0.1123
   83MOL   H51943323   0.267   4.841   1.431  0.5029 -0.7713 -0.5118
   83MOL   H52043324   0.052   4.920   1.536 -0.6743 -0.2198  0.5875
   83MOL   H52143325   8.073   4.812   1.473  0.1463 -3.9591  1.1723
   83MOL   H52243326   0.106   4.391   1.049 -0.5858 -0.1081  3.1833
   84MOL     C143327   8.226   0.735   4.356  0.7080  0.8160 -0.2422
   84MOL     C243328   8.106   0.734   4.262 -0.3493 -1.0620  0.4951
   84MOL     N343329   8.118   0.618   4.173  0.4682  0.1004  0.1733
   84MOL     C443330   8.100   0.628   4.033  0.5491  0.2665 -0.3717
   84MOL     C543331   8.144   0.508   3.979 -0.4319 -0.0897  0.0267
   84MOL     C643332   8.152   0.496   3.838 -0.7488 -0.5271  0.4281
   84MOL     C743333   8.109   0.608   3.755 -0.2895  0.0638  0.1228
   84MOL     C843334   8.056   0.723   3.812  0.0349  0.4937  0.2572
   84MOL     C943335   8.058   0.732   3.953  0.5303  0.1733  0.3762
   84MOL    C1043336   8.175   0.420   4.091 -0.4215  0.4765 -0.0634
   84MOL    C1143337   8.148   0.489   4.213 -0.2584  0.4823  0.4830
   84MOL    C1243338   8.149   0.426   4.338 -0.9210 -0.6798  0.1642
   84MOL    C1343339   8.181   0.292   4.337  0.1030  0.3754  0.0055
   84MOL    C1443340   8.203   0.217   4.218 -0.0525 -0.2600  0.3873
   84MOL    C1543341   8.205   0.284   4.097 -0.6144  0.1142  0.3041
   84MOL    H1643342   0.016   0.835   4.395  1.5542  0.1360  1.1706
   84MOL    H1743343   0.091   0.707   4.307  0.6070  0.0024  0.0223
   84MOL    H1843344   8.122   0.821   4.198 -5.1997  0.8451  1.6348
   84MOL    H1943345   8.191   0.400   3.808 -1.9874 -1.4029  1.5580
   84MOL    H2043346   8.112   0.596   3.648  0.4190 -0.2527  0.1784
   84MOL    H2143347   8.001   0.800   3.758 -1.1623 -0.0358  0.7033
   84MOL    H2243348   8.033   0.825   4.002  0.5024 -0.1444  0.9662
   84MOL    H2343349   8.131   0.479   4.430 -1.9852  1.5313 -1.2887
   84MOL    H2443350   8.176   0.245   4.434 -0.3979 -0.1028 -0.2479
   84MOL    H2543351   8.225   0.111   4.224  1.1712 -0.0813 -0.8341
   84MOL    H2643352   8.214   0.222   4.009  0.2890 -0.1431  0.5726
   84MOL    H2743353   8.212   0.671   4.443 -0.7920  0.4515 -0.7318
   84MOL    C2843354   7.972   0.735   4.340  0.1402 -0.6972  0.1372
   84MOL    C2943355   7.928   0.875   4.390 -0.1017  0.0602 -0.0651
   84MOL    N3043356   7.909   0.967   4.277  0.0195  0.1828 -0.2050
   84MOL    C3143357   7.996   1.067   4.242 -0.1208 -0.0022  0.2379
   84MOL    C3243358   7.955   1.130   4.119  0.2690 -0.2708 -0.4382
   84MOL    C3343359   8.022   1.244   4.066 -0.0574  0.3946  0.1188
   84MOL    C3443360   8.126   1.302   4.145  0.1001 -1.0191 -0.4353
   84MOL    C3543361   8.168   1.239   4.264 -0.4803  0.1075  0.1234
   84MOL    C3643362   8.109   1.121   4.306  0.2538  0.3048 -0.2440
   84MOL    C3743363   7.839   1.050   4.077 -1.8112  0.3168  0.4217
   84MOL    C3843364   7.812   0.952   4.175 -0.3302  0.3734 -0.5393
   84MOL    C3943365   7.703   0.866   4.151 -0.0185  0.0795 -0.0124
   84MOL    C4043366   7.615   0.882   4.044 -0.4307  0.4179  0.8437
   84MOL    C4143367   7.632   0.990   3.957  0.5813 -0.0880 -0.3604
   84MOL    C4243368   7.746   1.069   3.973 -0.1950  0.1446  0.4832
   84MOL    H4343369   7.888   0.685   4.291  0.1301 -0.6349  0.0915
   84MOL    H4443370   7.972   0.681   4.435 -0.8576 -1.9454 -0.5486
   84MOL    H4543371   8.020   0.915   4.433 -0.0153  0.2654 -0.4302
   84MOL    H4643372   7.981   1.289   3.976  1.9677  0.8609 -0.5919
   84MOL    H4743373   8.175   1.395   4.121 -0.2411 -0.4644  0.9755
   84MOL    H4843374   0.022   1.287   4.316 -0.1124 -1.0598  0.6531
   84MOL    H4943375   8.146   1.082   4.400  1.6855  1.8557 -0.1488
   84MOL    H5043376   7.688   0.782   4.218 -1.2376 -0.2980 -0.7470
   84MOL    H5143377   7.534   0.812   4.025  0.3354 -1.0869  2.9012
   84MOL    H5243378   7.567   1.008   3.872 -0.6245  0.7280  0.7112
   84MOL    H5343379   7.761   1.147   3.899 -1.1296 -1.3719 -1.3562
   84MOL    C5443380   7.816   0.876   4.495  0.3129 -0.3053 -0.0794
   84MOL    C5543381   7.842   0.811   4.633  0.1805  0.7533 -0.1153
   84MOL    N5643382   7.982   0.809   4.678 -0.5564 -0.2990 -0.5353
   84MOL    C5743383   8.065   0.700   4.699 -0.6376 -0.6484 -0.3770
   84MOL    C5843384   8.200   0.742   4.724  0.0884  0.7770 -0.1452
   84MOL    C5943385   0.070   0.639   4.753 -0.2489 -0.9640  0.5972
   84MOL    C6043386   0.041   0.507   4.738  0.3659  0.0348  0.0454
   84MOL    C6143387   8.135   0.468   4.715 -0.0497 -0.1036  0.2898
   84MOL    C6243388   8.036   0.565   4.691  0.4976 -0.3410  0.3531
   84MOL    C6343389   8.197   0.884   4.723  0.5716  1.0642 -0.3673
   84MOL    C6443390   8.064   0.929   4.702  0.6208 -0.4586 -0.2745
   84MOL    C6543391   8.031   1.068   4.700  0.3700  0.1267 -0.7342
   84MOL    C6643392   8.136   1.158   4.737 -0.2288  0.4803  0.2254
   84MOL    C6743393   0.040   1.114   4.760  0.0856 -0.2459  0.2801
   84MOL    C6843394   0.073   0.979   4.749  0.4397  0.3250 -0.2211
   84MOL    H6943395   7.797   0.982   4.511  0.4620 -0.3186  0.1926
   84MOL    H7043396   7.720   0.844   4.456  0.8234 -0.4714 -1.2144
   84MOL    H7143397   7.827   0.704   4.616 -1.0315  0.8468  0.3006
   84MOL    H7243398   0.169   0.672   4.781  0.1903  1.2893 -3.2115
   84MOL    H7343399   0.114   0.433   4.767 -0.6899 -1.3650 -0.7969
   84MOL    H7443400   8.101   0.366   4.725  0.6710 -0.4531 -0.7388
   84MOL    H7543401   7.934   0.528   4.684  0.5927 -0.4441 -0.4709
   84MOL    H7643402   7.931   1.105   4.683 -0.6055 -1.0895  1.9577
   84MOL    H7743403   8.124   1.266   4.737  0.9262  0.6160  0.4067
   84MOL    H7843404   0.116   1.186   4.789  1.7670 -0.2765 -3.6363
   84MOL    H7943405   0.173   0.944   4.772  0.6191  0.1867 -1.1805
   84MOL    C8043406   7.763   0.867   4.748 -0.3972  0.5170  0.1022
   84MOL    C8143407   7.620   0.814   4.754 -0.2550  0.0535 -0.3305
   84MOL    N8243408   7.604   0.675   4.737  0.2041  0.3659  0.1567
   84MOL    C8343409   7.520   0.610   4.638 -1.0274 -0.3229  0.1105
   84MOL    C8443410   7.523   0.471   4.655  0.0236  0.8229  0.2239
   84MOL    C8543411   7.431   0.393   4.571  0.3382 -0.0970 -0.8469
   84MOL    C8643412   7.355   0.447   4.468 -0.2594 -0.9187 -0.6762
   84MOL    C8743413   7.371   0.588   4.442  0.5487  0.1356 -0.2137
   84MOL    C8843414   7.449   0.667   4.524 -0.3393  0.5526  0.1277
   84MOL    C8943415   7.611   0.445   4.756  0.3389 -0.2546 -0.0820
   84MOL    C9043416   7.665   0.570   4.803  0.2131  0.3160  0.4539
   84MOL    C9143417   7.760   0.571   4.906 -0.0381  0.4809 -0.1338
   84MOL    C9243418   7.807   0.449   4.965 -0.2041 -0.5326 -0.4436
   84MOL    C9343419   7.757   0.325   4.915 -0.4151 -0.4041  0.6210
   84MOL    C9443420   7.667   0.324   4.808  0.1701 -0.3849  0.0149
   84MOL    H9543421   7.817   0.845   4.840  2.3737 -2.0451 -2.0324
   84MOL    H9643422   7.749   0.975   4.742  1.1457  0.7245  0.0354
   84MOL    H9743423   7.577   0.865   4.668  0.6709 -1.4297 -1.7054
   84MOL    H9843424   7.407   0.295   4.609  1.3101  0.4217  1.2293
   84MOL    H9943425   7.288   0.377   4.419 -3.1228  0.5178  1.0184
   84MOL   H10043426   7.319   0.628   4.356 -1.1103  1.8124  1.5136
   84MOL   H10143427   7.452   0.774   4.505 -0.8437  0.5275 -0.0862
   84MOL   H10243428   7.803   0.662   4.946  1.5122  0.4011 -1.5270
   84MOL   H10343429   7.867   0.451   5.056  1.4008 -1.9492 -1.4306
   84MOL   H10443430   7.794   0.234   4.960 -0.3680  0.0014  1.4060
   84MOL   H10543431   7.626   0.230   4.776 -0.5124  0.0573 -0.4352
   84MOL   C10643432   7.537   0.865   4.882 -0.1196  0.3300 -0.8583
   84MOL   C10743433   7.389   0.869   4.851  0.1109  0.3367  0.5738
   84MOL   N10843434   7.329   0.763   4.935  0.1523 -0.9655 -1.0316
   84MOL   C10943435   7.244   0.666   4.891 -0.1367 -0.2641  0.4338
   84MOL   C11043436   7.198   0.581   4.999  0.5328  0.7381 -0.5616
   84MOL   C11143437   7.110   0.475   4.978 -0.1058  0.3756  0.1615
   84MOL   C11243438   7.071   0.437   4.846  0.0205 -0.3442 -0.4574
   84MOL   C11343439   7.123   0.514   4.737 -0.3661 -0.6409 -0.6925
   84MOL   C11443440   7.198   0.630   4.760 -0.2343  0.5462 -0.6345
   84MOL   C11543441   7.260   0.643   5.115  0.1709 -0.0893 -0.2549
   84MOL   C11643442   7.338   0.754   5.073 -0.3726  0.4958  0.3105
   84MOL   C11743443   7.405   0.832   5.167 -0.4748 -0.0473 -0.0069
   84MOL   C11843444   7.397   0.808   5.301 -0.0178 -0.3548  0.7899
   84MOL   C11943445   7.331   0.693   5.343  0.1480  0.0209 -0.0670
   84MOL   C12043446   7.264   0.608   5.253 -0.2249 -0.5089  0.1271
   84MOL   H12143447   7.563   0.803   4.968 -1.6215 -2.6505 -2.4973
   84MOL   H12243448   7.570   0.966   4.907 -1.4244  0.2676  1.2368
   84MOL   H12343449   7.361   0.833   4.753 -1.3211 -1.2748  1.5369
   84MOL   H12443450   7.061   0.423   5.059 -1.1369 -1.5245 -1.6342
   84MOL   H12543451   7.005   0.353   4.830  0.5693 -0.5071 -1.9016
   84MOL   H12643452   7.090   0.498   4.635 -2.2514  0.6799 -0.3320
   84MOL   H12743453   7.229   0.694   4.679 -2.3626  1.2668 -0.8993
   84MOL   H12843454   7.460   0.918   5.131  0.2204  0.2267  1.6795
   84MOL   H12943455   7.463   0.858   5.371  0.1143 -0.8441  1.0216
   84MOL   H13043456   7.329   0.670   5.448 -0.3585  0.5812  0.0461
   84MOL   H13143457   7.209   0.523   5.291 -1.2708 -0.7088 -1.7582
   84MOL   C13243458   7.319   1.001   4.875 -0.3963  0.3225  0.3187
   84MOL   C13343459   7.354   1.130   4.792 -0.6688  0.8134  0.5105
   84MOL   N13443460   7.400   1.108   4.654  0.4873  0.2808 -0.0698
   84MOL   C13543461   7.512   1.170   4.587  0.1560  0.7993  0.0622
   84MOL   C13643462   7.503   1.134   4.453 -0.1194 -0.4108 -0.7306
   84MOL   C13743463   7.602   1.173   4.363 -0.2461  0.0157 -0.0616
   84MOL   C13843464   7.711   1.250   4.406 -0.1622  0.1456  0.3179
   84MOL   C13943465   7.715   1.292   4.541 -0.1537 -0.4051  0.0801
   84MOL   C14043466   7.623   1.235   4.636  0.4802  0.1453 -0.1567
   84MOL   C14143467   7.395   1.046   4.438 -0.0444 -0.7528 -0.4628
   84MOL   C14243468   7.321   1.040   4.562  0.9857 -0.1154 -0.0747
   84MOL   C14343469   7.199   0.965   4.569 -0.1358  0.0690 -0.5844
   84MOL   C14443470   7.156   0.897   4.457  0.0717  0.0090  0.6223
   84MOL   C14543471   7.228   0.901   4.339 -0.2597 -0.3252  0.8214
   84MOL   C14643472   7.351   0.967   4.329 -0.2573  0.0190 -1.4868
   84MOL   H14743473   7.211   0.984   4.882 -0.4464 -0.4230 -1.8176
   84MOL   H14843474   7.326   1.033   4.979 -0.7368 -0.6210  0.6387
   84MOL   H14943475   7.444   1.174   4.835  0.2381 -1.3275  0.8602
   84MOL   H15043476   7.606   1.128   4.265  0.0652 -0.4029  0.1426
   84MOL   H15143477   7.790   1.282   4.341  1.5685 -1.6853  1.4811
   84MOL   H15243478   7.784   1.364   4.582  0.4010 -1.3187  0.7520
   84MOL   H15343479   7.642   1.259   4.740  1.6394  0.9116 -0.5355
   84MOL   H15443480   7.149   0.963   4.664  1.2882  0.6060  0.1888
   84MOL   H15543481   7.070   0.832   4.467 -0.5777  0.5039 -1.5240
   84MOL   H15643482   7.190   0.852   4.251  0.4235 -0.8978  0.8434
   84MOL   H15743483   7.408   0.969   4.236 -1.0977  2.1213 -1.9774
   84MOL   C15843484   7.236   1.233   4.797 -1.0008  0.3081 -0.3389
   84MOL   C15943485   7.227   1.316   4.931  0.0483 -0.1964 -0.6174
   84MOL   N16043486   7.350   1.345   4.994  0.6467  0.1936 -0.4387
   84MOL   C16143487   7.395   1.307   5.128 -0.2457 -0.2178 -0.1785
   84MOL   C16243488   7.525   1.348   5.150  0.4445  0.1766 -0.3015
   84MOL   C16343489   7.589   1.299   5.267 -0.1113 -0.0555  0.0211
   84MOL   C16443490   7.524   1.219   5.361 -0.1163 -0.2034 -0.0500
   84MOL   C16543491   7.387   1.193   5.345  0.2128 -0.0687  0.0717
   84MOL   C16643492   7.325   1.237   5.226  0.8839  0.0323 -0.3618
   84MOL   C16743493   7.563   1.429   5.031 -0.2199  0.0777 -0.4453
   84MOL   C16843494   7.453   1.423   4.939 -0.1766 -0.9838 -0.5338
   84MOL   C16943495   7.461   1.490   4.813 -0.0611 -0.0902 -0.2016
   84MOL   C17043496   7.581   1.548   4.780 -0.2392  0.2985 -0.4515
   84MOL   C17143497   7.688   1.555   4.869  0.0134 -0.1344  0.1009
   84MOL   C17243498   7.682   1.496   4.994 -0.4292  0.2597  0.0139
   84MOL   H17343499   7.241   1.298   4.710 -1.5582 -1.2784 -1.5680
   84MOL   H17443500   7.139   1.187   4.780 -1.1343 -0.6361  2.5670
   84MOL   H17543501   7.171   1.259   5.006 -1.2078  0.2101 -1.2218
   84MOL   H17643502   7.692   1.325   5.288  0.0606  0.4787 -1.4576
   84MOL   H17743503   7.580   1.184   5.447 -0.8349 -0.6702  0.2304
   84MOL   H17843504   7.337   1.142   5.427 -2.0525  0.5193 -0.8935
   84MOL   H17943505   7.225   1.201   5.206  0.5343 -0.0280  1.3861
   84MOL   H18043506   7.379   1.497   4.744  0.6335 -1.2676 -1.1568
   84MOL   H18143507   7.590   1.595   4.683  0.1326  2.5509  0.6484
   84MOL   H18243508   7.779   1.602   4.835 -0.5399  0.7118 -0.2547
   84MOL   H18343509   7.765   1.488   5.062 -1.8723 -1.2510  1.6453
   84MOL   C18443510   7.146   1.451   4.905  0.0633  0.2588  0.3028
   84MOL   C18543511   6.997   1.429   4.892 -0.0773 -0.2358 -0.1361
   84MOL   N18643512   6.944   1.391   5.023 -0.3738  0.4534 -0.0958
   84MOL   C18743513   6.872   1.278   5.046 -0.4612 -0.5690 -0.2116
   84MOL   C18843514   6.830   1.274   5.183  1.2284 -0.0749 -0.2737
   84MOL   C18943515   6.740   1.173   5.223 -0.0053  0.7860 -0.6470
   84MOL   C19043516   6.712   1.067   5.142 -0.7348  0.5610 -0.5587
   84MOL   C19143517   6.762   1.061   5.009 -0.0678 -0.1630  0.0108
   84MOL   C19243518   6.831   1.172   4.963  1.0547 -0.4883 -0.1762
   84MOL   C19343519   6.874   1.395   5.242 -0.0217  0.3653 -0.5053
   84MOL   C19443520   6.948   1.461   5.142  0.3160 -0.0356  0.4417
   84MOL   C19543521   7.000   1.589   5.175  0.2094 -0.3619  0.0327
   84MOL   C19643522   6.998   1.642   5.304  0.0358  0.4612 -0.1650
   84MOL   C19743523   6.931   1.575   5.404  0.0975 -0.2280 -0.5918
   84MOL   C19843524   6.873   1.450   5.370 -0.2345 -0.3254  0.1620
   84MOL   H19943525   7.173   1.534   4.970 -0.4823  1.0778 -0.4960
   84MOL   H20043526   7.177   1.479   4.804 -0.1267 -3.7710 -0.9952
   84MOL   H20143527   6.987   1.342   4.827  0.0985 -0.4626  0.1398
   84MOL   H20243528   6.706   1.164   5.325  3.8081 -2.3720  0.5017
   84MOL   H20343529   6.631   1.007   5.180  0.2414  0.4126  1.3087
   84MOL   H20443530   6.723   0.983   4.944 -0.6532 -0.2494  0.4510
   84MOL   H20543531   6.861   1.171   4.859  1.0128 -0.2971 -0.1891
   84MOL   H20643532   7.058   1.644   5.103  1.2709 -2.5016 -0.7977
   84MOL   H20743533   7.061   1.726   5.331  0.3752 -0.4896  2.0878
   84MOL   H20843534   6.916   1.633   5.494  2.0223 -0.5818 -0.0304
   84MOL   H20943535   6.812   1.397   5.441  1.2234 -3.2115 -0.6672
   84MOL   C21043536   6.914   1.546   4.836  0.4203 -0.0527 -0.2585
   84MOL   C21143537   6.937   1.588   4.687 -0.0991 -0.9850 -0.5507
   84MOL   N21243538   6.955   1.478   4.598  0.5842 -0.6174  0.5942
   84MOL   C21343539   7.060   1.459   4.510 -0.2206 -0.0221  0.3599
   84MOL   C21443540   7.055   1.321   4.460  0.3204  0.1759 -0.3476
   84MOL   C21543541   7.163   1.269   4.380  0.0587 -0.7761 -0.3773
   84MOL   C21643542   7.274   1.354   4.348  0.0888  0.2768  0.5735
   84MOL   C21743543   7.285   1.477   4.416  0.2573  0.5680 -0.0815
   84MOL   C21843544   7.182   1.535   4.488 -0.5303 -0.1647  0.3485
   84MOL   C21943545   6.930   1.269   4.506 -0.2505 -0.3559 -0.0361
   84MOL   C22043546   6.867   1.374   4.587 -0.3146  0.3202  0.0734
   84MOL   C22143547   6.747   1.337   4.648  0.2274 -0.3257  0.6548
   84MOL   C22243548   6.686   1.215   4.640  0.6826  0.0647 -0.4743
   84MOL   C22343549   6.744   1.113   4.565 -0.8330  0.2759  0.4512
   84MOL   C22443550   6.861   1.148   4.493 -0.4969 -0.4537  0.4896
   84MOL   H22543551   6.812   1.542   4.873  0.9206 -0.1787  1.1334
   84MOL   H22643552   6.942   1.634   4.894  0.5156 -1.6317  2.1742
   84MOL   H22743553   7.037   1.630   4.693 -1.5240  2.3632  1.9130
   84MOL   H22843554   7.163   1.171   4.334  0.1330 -0.4758 -1.0309
   84MOL   H22943555   7.346   1.324   4.274  0.5590  0.1923  1.0673
   84MOL   H23043556   7.371   1.541   4.400  0.7876  0.0241  0.5729
   84MOL   H23143557   7.206   1.634   4.526  3.1782  0.3880 -3.0195
   84MOL   H23243558   6.702   1.419   4.702 -0.6003 -1.1783  1.2811
   84MOL   H23343559   6.590   1.203   4.689  1.7653 -1.4114  1.3177
   84MOL   H23443560   6.706   1.013   4.553  1.6661 -0.8143  1.2313
   84MOL   H23543561   6.915   1.079   4.430 -2.4807 -1.5790 -0.0311
   84MOL   C23643562   6.848   1.698   4.645  0.0713  0.2535 -0.3231
   84MOL   C23743563   6.907   1.845   4.686 -0.4435 -0.3647  0.0799
   84MOL   N23843564   7.037   1.871   4.620  0.6958 -0.0765 -0.5411
   84MOL   C23943565   7.161   1.867   4.678  0.5722 -0.0774  0.5219
   84MOL   C24043566   7.258   1.897   4.579 -0.3080 -0.0091 -1.0096
   84MOL   C24143567   7.401   1.902   4.604  0.0723  0.1450  0.3403
   84MOL   C24243568   7.445   1.869   4.734  0.1869  0.5290  0.0861
   84MOL   C24343569   7.348   1.853   4.837  0.6315 -0.0686  0.1460
   84MOL   C24443570   7.208   1.846   4.812  0.5919  0.4586  0.1233
   84MOL   C24543571   7.181   1.922   4.457  0.0944  0.4874  0.0401
   84MOL   C24643572   7.048   1.895   4.475  0.5192  0.2842 -0.4287
   84MOL   C24743573   6.957   1.903   4.367  0.3322  1.0945  0.0279
   84MOL   C24843574   6.998   1.941   4.238  0.8291  0.1725  0.3870
   84MOL   C24943575   7.134   1.976   4.219 -0.1629  0.8560  0.1304
   84MOL   C25043576   7.225   1.961   4.327  0.2795 -0.2301  0.7752
   84MOL   H25143577   6.843   1.704   4.536 -0.4810  0.1020 -0.3091
   84MOL   H25243578   6.744   1.682   4.674 -0.1133 -1.9019 -2.1039
   84MOL   H25343579   6.927   1.841   4.794  1.6085  1.1020 -0.2274
   84MOL   H25443580   7.469   1.930   4.525 -1.1097 -0.6449 -0.9683
   84MOL   H25543581   7.549   1.862   4.761  0.2673 -0.6786 -0.4887
   84MOL   H25643582   7.379   1.857   4.940  0.7729  0.2942  0.0895
   84MOL   H25743583   7.141   1.834   4.896 -0.7842  2.1094 -0.6955
   84MOL   H25843584   6.854   1.873   4.378 -0.1416  1.8699 -2.1016
   84MOL   H25943585   6.929   1.942   4.155  1.3281 -3.6039 -0.1794
   84MOL   H26043586   7.165   2.001   4.118  1.1117  0.9257  0.5366
   84MOL   H26143587   7.332   1.973   4.316  0.0480  1.9641  0.7604
   84MOL   C26243588   6.795   1.955   4.654 -0.9264  0.9513 -0.2576
   84MOL   C26343589   6.688   1.958   4.765 -0.1967  0.3297 -0.5637
   84MOL   N26443590   6.741   1.968   4.897 -0.6818 -0.1841 -0.4565
   84MOL   C26543591   6.712   1.877   5.005 -0.1445 -0.0981  1.0975
   84MOL   C26643592   6.775   1.926   5.124 -0.4523 -0.4999 -0.3141
   84MOL   C26743593   6.751   1.851   5.239 -0.3650  0.3597  0.1690
   84MOL   C26843594   6.688   1.727   5.233  0.3648  0.0840  0.1303
   84MOL   C26943595   6.627   1.682   5.115  0.6342  0.1599  0.5499
   84MOL   C27043596   6.638   1.762   5.001  0.1801 -0.2685 -0.4828
   84MOL   C27143597   6.844   2.047   5.088  0.8749  0.0242 -0.2456
   84MOL   C27243598   6.814   2.070   4.949 -0.5558  0.1952 -0.2262
   84MOL   C27343599   6.872   2.182   4.889 -0.2242 -0.3999  0.2544
   84MOL   C27443600   6.938   2.283   4.966  0.2831 -0.0514  0.5475
   84MOL   C27543601   6.971   2.259   5.101 -0.4161  0.1927  0.4687
   84MOL   C27643602   6.925   2.138   5.158  0.3692  0.2467 -0.5507
   84MOL   H27743603   6.850   2.047   4.635 -2.1487  1.9474  0.9139
   84MOL   H27843604   6.746   1.916   4.565 -0.8482 -1.7475  0.8176
   84MOL   H27943605   6.643   1.861   4.746  2.2557 -0.8526 -0.5604
   84MOL   H28043606   6.801   1.886   5.328  0.7224  1.3387 -0.8071
   84MOL   H28143607   6.682   1.672   5.326  0.9865  0.2260  0.2611
   84MOL   H28243608   6.562   1.596   5.106 -0.1473  0.7400  0.6195
   84MOL   H28343609   6.591   1.728   4.910 -1.8807 -0.2377  0.5505
   84MOL   H28443610   6.854   2.200   4.784  0.3702 -1.6484 -0.0664
   84MOL   H28543611   6.969   2.378   4.924 -2.7428  0.2949 -0.9837
   84MOL   H28643612   7.030   2.325   5.162 -2.8941 -1.6749  5.1691
   84MOL   H28743613   6.941   2.118   5.263  0.4264 -1.0663 -0.7968
   84MOL   C28843614   6.569   2.051   4.728 -0.3139 -0.4081 -0.3256
   84MOL   C28943615   6.464   1.989   4.631  1.1665 -0.1301 -0.2070
   84MOL   N29043616   6.409   1.870   4.682  0.3531  0.4212 -0.1457
   84MOL   C29143617   6.429   1.743   4.623  0.0037  0.2895 -0.6147
   84MOL   C29243618   6.371   1.645   4.710  0.0047  0.1600 -0.4935
   84MOL   C29343619   6.370   1.507   4.671 -0.6712 -0.5539 -0.1106
   84MOL   C29443620   6.444   1.468   4.555 -0.6495 -0.5547 -0.2604
   84MOL   C29543621   6.518   1.566   4.489  0.1968 -0.1667  0.4490
   84MOL   C29643622   6.507   1.704   4.512  0.3620  0.4541  0.6541
   84MOL   C29743623   6.328   1.711   4.823  0.4074 -0.7088 -0.4422
   84MOL   C29843624   6.345   1.851   4.806 -0.2478 -0.0272 -0.8127
   84MOL   C29943625   6.310   1.942   4.910 -0.5690 -0.1723  0.4820
   84MOL   C30043626   6.273   1.898   5.037 -0.0759  0.5747 -0.3319
   84MOL   C30143627   6.247   1.760   5.051  0.7522 -0.1229 -0.0494
   84MOL   C30243628   6.270   1.668   4.945  0.2025 -0.2142  0.0760
   84MOL   H30343629   6.528   2.083   4.823  0.6849  1.0862 -0.3777
   84MOL   H30443630   6.612   2.142   4.685  1.5577 -0.8439  0.5690
   84MOL   H30543631   6.517   1.961   4.540 -1.7626 -1.4613 -1.5579
   84MOL   H30643632   6.311   1.444   4.736 -0.6989 -1.1726 -0.7325
   84MOL   H30743633   6.451   1.367   4.518 -3.4964 -1.9421  2.7155
   84MOL   H30843634   6.577   1.535   4.404  0.7816  2.6632 -0.2314
   84MOL   H30943635   6.558   1.769   4.443  1.7557 -1.7814 -0.4715
   84MOL   H31043636   6.325   2.048   4.894  1.5230 -0.1960  2.1664
   84MOL   H31143637   6.253   1.962   5.121 -0.3272 -0.7674  0.6430
   84MOL   H31243638   6.210   1.735   5.149  1.6009  2.6047  1.0188
   84MOL   H31343639   6.260   1.561   4.954  0.4208 -0.2486 -0.0775
   84MOL   C31443640   6.351   2.091   4.603  0.1397  0.5905  0.1268
   84MOL   C31543641   6.394   2.223   4.525  0.4210  0.6190 -0.2577
   84MOL   N31643642   6.479   2.196   4.406  0.7370  0.3521 -0.8102
   84MOL   C31743643   6.609   2.238   4.393 -0.0663 -0.1588  0.3444
   84MOL   C31843644   6.655   2.192   4.268 -0.0537  0.4052 -0.5024
   84MOL   C31943645   6.791   2.204   4.236 -0.3267 -0.0959  0.4213
   84MOL   C32043646   6.882   2.268   4.322  0.0955 -0.2907 -0.0949
   84MOL   C32143647   6.834   2.322   4.443  0.1970 -0.1300 -0.2496
   84MOL   C32243648   6.698   2.303   4.485 -0.3343 -0.0414  0.0878
   84MOL   C32343649   6.550   2.132   4.197 -0.1961  0.9303  0.4913
   84MOL   C32443650   6.434   2.136   4.288  0.4554 -0.2519  0.5755
   84MOL   C32543651   6.312   2.073   4.250 -0.8567  0.0405  0.4453
   84MOL   C32643652   6.298   2.012   4.128  0.0329  0.1394  0.6550
   84MOL   C32743653   6.411   1.997   4.039  0.0365  0.5304 -0.0827
   84MOL   C32843654   6.531   2.067   4.074  0.2703 -0.0726  0.5222
   84MOL   H32943655   6.275   2.036   4.547  1.8604  0.1520 -1.8398
   84MOL   H33043656   6.305   2.119   4.698  0.7024 -0.5540  0.7506
   84MOL   H33143657   6.462   2.274   4.593 -1.5329  0.8918  1.5447
   84MOL   H33243658   6.821   2.176   4.136 -0.2288 -0.2863  0.5048
   84MOL   H33343659   6.985   2.280   4.290  0.2549  1.4571  0.9955
   84MOL   H33443660   6.903   2.382   4.500 -1.5159  0.8600  0.8268
   84MOL   H33543661   6.667   2.341   4.581 -0.2891  0.4973 -0.1068
   84MOL   H33643662   6.227   2.075   4.317  1.3173  0.5053  3.2766
   84MOL   H33743663   6.199   1.979   4.100  0.4390 -1.9662  1.5735
   84MOL   H33843664   6.395   1.945   3.946 -1.9740  0.5742  0.2081
   84MOL   H33943665   6.620   2.065   4.014  0.9286  2.2935  1.3485
   84MOL   C34043666   6.278   2.325   4.496  0.1273 -0.1949 -0.1572
   84MOL   C34143667   6.225   2.406   4.618  0.0766  0.0484 -0.2768
   84MOL   N34243668   6.339   2.482   4.674 -1.1661 -0.1522  0.1954
   84MOL   C34343669   6.413   2.440   4.784  0.7905 -0.4817 -0.0514
   84MOL   C34443670   6.531   2.523   4.797  0.0591 -0.0201 -0.2265
   84MOL   C34543671   6.619   2.501   4.904  0.1462  0.7321  0.2430
   84MOL   C34643672   6.605   2.387   4.990  0.2462 -0.8324  0.3462
   84MOL   C34743673   6.491   2.295   4.975 -0.0171  0.2014  0.1517
   84MOL   C34843674   6.395   2.327   4.873 -0.0196  0.3697 -0.0379
   84MOL   C34943675   6.523   2.622   4.690  0.1399 -0.3801  0.4450
   84MOL   C35043676   6.404   2.586   4.616  0.0651 -0.7666  0.1625
   84MOL   C35143677   6.375   2.654   4.492 -0.3712 -0.2123  0.7712
   84MOL   C35243678   6.463   2.757   4.447  0.4481 -0.7296 -0.4105
   84MOL   C35343679   6.567   2.802   4.531  0.0768 -0.0600 -0.1014
   84MOL   C35443680   6.595   2.738   4.651  0.2458  0.2608 -0.8967
   84MOL   H35543681   6.303   2.394   4.416 -0.9407  0.9248  0.4491
   84MOL   H35643682   6.190   2.279   4.450  0.6541 -0.2361 -1.1197
   84MOL   H35743683   6.196   2.337   4.698  1.3478 -0.5949 -0.3733
   84MOL   H35843684   6.705   2.567   4.913  0.3385  0.5686 -0.3761
   84MOL   H35943685   6.676   2.352   5.064 -2.0215 -0.4074  2.7797
   84MOL   H36043686   6.476   2.213   5.043 -1.6769 -0.6565 -1.2188
   84MOL   H36143687   6.315   2.253   4.873  1.5848 -1.4100 -0.6716
   84MOL   H36243688   6.292   2.629   4.428 -0.7523  0.6103  0.9394
   84MOL   H36343689   6.447   2.809   4.353 -1.3655  0.4740  0.5244
   84MOL   H36443690   6.626   2.892   4.515 -0.8559  0.5739 -0.0099
   84MOL   H36543691   6.678   2.776   4.709 -0.8080  0.8663  0.2613
   84MOL   C36643692   6.102   2.491   4.581 -0.7632  0.7705  0.0195
   84MOL   C36743693   6.050   2.586   4.695 -0.4745  0.0284  0.7098
   84MOL   N36843694   6.005   2.713   4.641  0.6081 -0.0111  1.0614
   84MOL   C36943695   6.043   2.838   4.684 -0.2113  0.4284 -0.0565
   84MOL   C37043696   5.972   2.939   4.623  0.1690 -0.6006  0.2640
   84MOL   C37143697   5.998   3.076   4.656 -0.5218  1.2413  0.4913
   84MOL   C37243698   6.096   3.104   4.758  0.4745 -0.3889  0.6845
   84MOL   C37343699   6.163   2.998   4.830 -0.4358  0.3754 -0.5673
   84MOL   C37443700   6.141   2.865   4.781  0.3219 -0.3091 -0.0883
   84MOL   C37543701   5.889   2.872   4.532  0.1688  0.7521 -0.7735
   84MOL   C37643702   5.912   2.730   4.545 -0.5032 -0.1150 -0.1100
   84MOL   C37743703   5.840   2.645   4.464  0.2758  0.8579 -0.1449
   84MOL   C37843704   5.740   2.687   4.378  0.3506 -0.5533  0.4279
   84MOL   C37943705   5.728   2.825   4.347  0.2772  0.5482 -0.0210
   84MOL   C38043706   5.800   2.917   4.433 -0.3800 -0.3958 -0.0387
   84MOL   H38143707   6.124   2.551   4.493  1.8532 -2.4505 -1.6480
   84MOL   H38243708   6.027   2.413   4.566  0.6299 -0.6535  0.3185
   84MOL   H38343709   6.138   2.603   4.756 -0.6753 -2.7961  1.8343
   84MOL   H38443710   5.949   3.154   4.600  1.8703  1.3648 -1.4635
   84MOL   H38543711   6.123   3.206   4.785 -2.7159  1.0897 -1.4667
   84MOL   H38643712   6.230   3.026   4.909 -0.6164  0.0523 -0.2997
   84MOL   H38743713   6.206   2.787   4.818  1.5169 -0.8838 -3.2053
   84MOL   H38843714   5.842   2.539   4.485  0.6110  0.7154 -0.8821
   84MOL   H38943715   5.668   2.617   4.338 -0.8940  0.6622  0.4775
   84MOL   H39043716   5.652   2.853   4.275 -0.2623  4.1807  1.8379
   84MOL   H39143717   5.779   3.022   4.423 -1.7730 -0.6026  0.5678
   84MOL   C39243718   5.961   2.528   4.805  0.4759  0.4294 -0.0178
   84MOL   C39343719   5.812   2.487   4.782 -0.4094 -0.4971 -0.1224
   84MOL   N39443720   5.794   2.347   4.728  0.2155  0.5276 -0.2673
   84MOL   C39543721   5.703   2.317   4.631 -0.0232 -0.1210  0.4130
   84MOL   C39643722   5.702   2.177   4.602  0.0832 -0.3750  0.0236
   84MOL   C39743723   5.610   2.124   4.512  0.3901  0.5713  0.4111
   84MOL   C39843724   5.528   2.215   4.447  0.5082  0.1235  0.4684
   84MOL   C39943725   5.531   2.355   4.468 -0.0798  0.5194  0.9332
   84MOL   C40043726   5.618   2.409   4.560 -0.0052 -0.3612  0.0400
   84MOL   C40143727   5.792   2.122   4.691  0.9387 -0.0563 -0.4593
   84MOL   C40243728   5.841   2.226   4.777 -0.3204  0.1424  0.1937
   84MOL   C40343729   5.931   2.197   4.880 -0.1806  0.0919 -0.1983
   84MOL   C40443730   5.967   2.065   4.915  0.5067 -0.4039  1.0671
   84MOL   C40543731   5.927   1.960   4.830  0.3329 -1.1068 -0.8228
   84MOL   C40643732   5.837   1.992   4.725  0.0030 -0.1769 -0.0681
   84MOL   H40743733   6.013   2.439   4.840 -0.2866  0.1907  0.5271
   84MOL   H40843734   5.962   2.607   4.880  0.6714  0.4693 -0.0622
   84MOL   H40943735   5.762   2.565   4.724 -1.1062  1.2362  2.6909
   84MOL   H41043736   5.612   2.018   4.491 -2.1969  1.0013 -2.4070
   84MOL   H41143737   5.469   2.180   4.363  1.2635 -0.1272  0.0360
   84MOL   H41243738   5.467   2.415   4.403 -0.9923 -2.4494 -1.0018
   84MOL   H41343739   5.615   2.516   4.578 -2.0713 -0.5629  1.1324
   84MOL   H41443740   5.966   2.270   4.951  1.8019  0.2169 -1.2426
   84MOL   H41543741   6.018   2.057   5.009  0.5539 -0.7136  1.0161
   84MOL   H41643742   5.959   1.858   4.847  1.2711 -0.5735  0.6835
   84MOL   H41743743   5.797   1.907   4.671  0.6254  0.9329 -2.3452
   84MOL   C41843744   5.725   2.496   4.911  0.6631 -0.0724 -0.1498
   84MOL   C41943745   5.683   2.637   4.956  0.1379 -0.3432  0.7880
   84MOL   N42043746   5.598   2.706   4.858 -0.1210 -0.0694 -0.1468
   84MOL   C42143747   5.614   2.841   4.819 -0.0557  0.0392  0.4943
   84MOL   C42243748   5.524   2.874   4.714 -0.3662  0.0815 -0.0810
   84MOL   C42343749   5.540   2.997   4.652  0.0705  0.5158  0.4166
   84MOL   C42443750   5.627   3.091   4.697  0.4065 -0.6067  0.0992
   84MOL   C42543751   5.712   3.065   4.805 -0.4004  0.1876  0.3441
   84MOL   C42643752   5.708   2.933   4.860 -1.3957  0.0646  0.1361
   84MOL   C42743753   5.447   2.757   4.697  0.1168 -0.6222  0.2174
   84MOL   C42843754   5.482   2.660   4.795 -0.2067  0.2210 -1.3068
   84MOL   C42943755   5.403   2.543   4.817  0.2282  0.2362 -0.0947
   84MOL   C43043756   5.285   2.528   4.736 -0.6959  0.3421  0.9389
   84MOL   C43143757   5.254   2.619   4.624  0.6279 -0.8488  0.0316
   84MOL   C43243758   5.333   2.732   4.610 -0.2357  0.4075 -0.7506
   84MOL   H43343759   5.631   2.443   4.897  0.6478  0.6322 -3.1738
   84MOL   H43443760   5.770   2.445   4.996 -0.0312 -2.4160 -1.1512
   84MOL   H43543761   5.783   2.680   4.969 -0.2432  0.6077  0.5800
   84MOL   H43643762   5.481   3.016   4.563 -0.6079  0.2254  0.8023
   84MOL   H43743763   5.642   3.187   4.649 -2.3797 -1.4688 -2.6513
   84MOL   H43843764   5.787   3.139   4.830 -0.0743 -0.8428  2.5722
   84MOL   H43943765   5.768   2.909   4.947 -0.1335  1.7009 -0.2568
   84MOL   H44043766   5.426   2.461   4.883 -1.3287 -1.5296 -1.6805
   84MOL   H44143767   5.229   2.436   4.743 -1.5513  0.8691  1.0235
   84MOL   H44243768   5.172   2.599   4.556  0.4417 -2.2978  0.6536
   84MOL   H44343769   5.301   2.806   4.538 -1.1509  0.1754 -0.5855
   84MOL   C44443770   5.616   2.634   5.093  0.1015  0.0389 -0.1802
   84MOL   C44543771   5.699   2.576   5.211 -0.3780  0.2227 -0.6360
   84MOL   N44643772   5.845   2.574   5.190  0.1335 -0.6210  0.0473
   84MOL   C44743773   5.939   2.465   5.212 -0.0282 -0.1611  0.2069
   84MOL   C44843774   6.066   2.506   5.171 -0.3383 -0.5240 -0.0747
   84MOL   C44943775   6.164   2.400   5.160  0.5915  0.0934  0.2933
   84MOL   C45043776   6.139   2.263   5.184 -0.3376 -0.0447 -0.0020
   84MOL   C45143777   6.017   2.237   5.248  0.3042 -0.4704 -0.1740
   84MOL   C45243778   5.916   2.333   5.260 -0.5115 -0.1398 -0.1823
   84MOL   C45343779   6.057   2.645   5.157  0.3589  0.5178  0.0753
   84MOL   C45443780   5.930   2.687   5.179 -0.6584 -0.0369 -0.2158
   84MOL   C45543781   5.893   2.823   5.175 -0.4050 -0.3730 -0.0570
   84MOL   C45643782   5.991   2.922   5.146  0.9544  0.0807 -0.1734
   84MOL   C45743783   6.125   2.880   5.142  0.6686 -0.2797 -0.5589
   84MOL   C45843784   6.153   2.744   5.135 -0.3473 -0.0549  0.0380
   84MOL   H45943785   5.586   2.730   5.135  0.4786 -0.2112  0.6923
   84MOL   H46043786   5.522   2.579   5.091 -0.4867  0.9402  1.4564
   84MOL   H46143787   5.681   2.469   5.196 -0.9433  0.1102  0.7618
   84MOL   H46243788   6.266   2.422   5.131 -0.1033 -0.7064 -2.9137
   84MOL   H46343789   6.221   2.200   5.153 -0.2652  0.5171 -0.9851
   84MOL   H46443790   5.989   2.137   5.277  0.3739 -0.4421 -0.0101
   84MOL   H46543791   5.818   2.311   5.299 -0.7702  2.4465  0.6914
   84MOL   H46643792   5.793   2.860   5.191  0.2859  1.6241 -0.1373
   84MOL   H46743793   5.977   3.024   5.114 -1.3010 -0.6215 -1.5927
   84MOL   H46843794   6.205   2.950   5.127  1.6058 -1.5366 -1.4606
   84MOL   H46943795   6.258   2.722   5.134 -0.8358 -2.4846 -0.4008
   84MOL   C47043796   5.663   2.638   5.348 -0.0724  0.3640 -0.1874
   84MOL   C47143797   5.516   2.637   5.399  0.2098 -0.6245  0.2367
   84MOL   N47243798   5.474   2.499   5.420  1.2835  0.7712  0.0605
   84MOL   C47343799   5.381   2.427   5.341  0.1990 -0.7071 -0.1421
   84MOL   C47443800   5.375   2.291   5.379  0.1928 -0.1051  0.0091
   84MOL   C47543801   5.272   2.213   5.320  0.6769 -0.4935 -0.1945
   84MOL   C47643802   5.180   2.267   5.231  0.3488  0.0540 -0.7548
   84MOL   C47743803   5.194   2.393   5.180 -0.1991  0.4715  0.1068
   84MOL   C47843804   5.296   2.467   5.235 -0.0907 -0.2745  0.8058
   84MOL   C47943805   5.476   2.269   5.489  0.1311 -0.2596  0.3929
   84MOL   C48043806   5.530   2.400   5.506  0.1934  0.9484  0.0456
   84MOL   C48143807   5.627   2.420   5.605  0.4630  0.3112 -1.0100
   84MOL   C48243808   5.673   2.308   5.677  0.5660 -0.5435  0.4015
   84MOL   C48343809   5.615   2.181   5.672  0.2605 -0.3755  0.7230
   84MOL   C48443810   5.517   2.159   5.571  0.1256  0.6209 -0.3170
   84MOL   H48543811   5.724   2.597   5.428 -0.4423  0.0416 -0.0684
   84MOL   H48643812   5.691   2.743   5.359 -2.4227  0.8849  1.3413
   84MOL   H48743813   5.453   2.685   5.324 -0.6815  3.5303  3.5164
   84MOL   H48843814   5.274   2.107   5.341 -0.7977 -0.8534 -1.7907
   84MOL   H48943815   5.109   2.196   5.192  0.3375  0.4732 -1.5105
   84MOL   H49043816   5.139   2.441   5.100  1.4711 -0.4795 -1.6242
   84MOL   H49143817   5.315   2.565   5.193  2.5786 -1.1718 -0.2041
   84MOL   H49243818   5.673   2.517   5.619 -1.2762  0.4768  4.5096
   84MOL   H49343819   5.756   2.317   5.746  1.2085  0.3272 -0.4753
   84MOL   H49443820   5.649   2.103   5.739 -0.0918  0.7175  2.1955
   84MOL   H49543821   5.461   2.067   5.581 -0.2087  0.6516 -1.8078
   84MOL   C49643822   5.491   2.722   5.526  0.0511  0.9046  0.3386
   84MOL   C49743823   5.424   2.856   5.509 -0.0638 -0.4006 -0.2768
   84MOL   N49843824   5.460   2.928   5.390 -0.6338  0.6828  0.1689
   84MOL   C49943825   5.395   2.933   5.272  0.1309  0.0028 -0.4330
   84MOL   C50043826   5.471   3.013   5.188  0.1017 -1.4970 -1.0300
   84MOL   C50143827   5.426   3.030   5.054 -0.8777 -0.2539 -0.2301
   84MOL   C50243828   5.301   2.980   5.013  0.1989 -0.5861 -0.1623
   84MOL   C50343829   5.216   2.909   5.102 -0.0607  0.5695 -0.7432
   84MOL   C50443830   5.270   2.879   5.227 -0.3224 -0.5207 -0.5468
   84MOL   C50543831   5.583   3.062   5.255 -0.1615  0.9269  0.2721
   84MOL   C50643832   5.571   3.009   5.387  0.0611  0.7722 -0.0395
   84MOL   C50743833   5.662   3.050   5.490  0.0601  0.3677  0.1214
   84MOL   C50843834   5.765   3.143   5.470 -0.6097 -0.0328 -0.0602
   84MOL   C50943835   5.790   3.176   5.332 -0.5749  0.4366 -0.0697
   84MOL   C51043836   5.704   3.134   5.224 -0.4270  0.3264 -0.2256
   84MOL   H51143837   5.434   2.659   5.594 -0.2699  0.3081 -0.4854
   84MOL   H51243838   5.580   2.739   5.587 -0.1789 -2.1905  1.6189
   84MOL   H51343839   5.442   2.924   5.591 -0.8285  0.6149 -0.9389
   84MOL   H51443840   5.490   3.090   4.990  0.7254 -1.9196 -0.2341
   84MOL   H51543841   5.264   2.988   4.912 -1.4533  0.4929  0.4973
   84MOL   H51643842   5.124   2.859   5.074  0.6603 -2.0924  1.4736
   84MOL   H51743843   5.219   2.815   5.297 -0.3917  1.3926  1.1751
   84MOL   H51843844   5.650   3.020   5.593 -0.2337  0.8834  0.2374
   84MOL   H51943845   5.823   3.180   5.554 -1.2849 -2.4878  1.5228
   84MOL   H52043846   5.883   3.225   5.310  0.2486 -0.7698  0.6942
   84MOL   H52143847   5.728   3.157   5.122  1.0943 -0.4535 -0.0656
   84MOL   H52243848   5.316   2.841   5.516 -0.0047 -0.7577 -0.0938
   85MOL     C143849   3.765   5.533   3.458  0.2750  0.5331  0.1108
   85MOL     C243850   3.721   5.433   3.356  0.5254  0.0046  0.0719
   85MOL     N343851   3.811   5.321   3.355 -0.2290 -0.0235  0.3145
   85MOL     C443852   3.907   5.308   3.252  0.1139 -0.6118  0.1296
   85MOL     C543853   3.970   5.187   3.260  0.4393 -0.2159 -0.9916
   85MOL     C643854   4.080   5.159   3.176 -0.0078 -0.0494  0.6411
   85MOL     C743855   4.120   5.248   3.076  0.3788 -0.2794 -0.3289
   85MOL     C843856   4.058   5.375   3.069 -0.4185 -0.5109 -0.2349
   85MOL     C943857   3.941   5.398   3.146  0.0914 -0.2913 -0.2488
   85MOL    C1043858   3.920   5.123   3.376 -0.8529  0.5530 -0.0759
   85MOL    C1143859   3.826   5.208   3.438 -0.5318 -0.1531 -0.5800
   85MOL    C1243860   3.764   5.162   3.554 -0.3801 -0.8328 -0.1988
   85MOL    C1343861   3.789   5.037   3.614 -0.2341  0.2868  0.3020
   85MOL    C1443862   3.886   4.954   3.551 -0.3130 -0.0310  0.5270
   85MOL    C1543863   3.949   5.004   3.436 -0.3561  0.1705  0.5879
   85MOL    H1643864   3.867   5.554   3.427  0.2313 -0.7169 -0.9378
   85MOL    H1743865   3.781   5.493   3.558 -1.3789  0.8550  0.5177
   85MOL    H1843866   3.721   5.502   3.272 -0.7335 -1.5069 -1.1856
   85MOL    H1943867   4.129   5.063   3.173  1.2564  0.6423 -2.5015
   85MOL    H2043868   4.200   5.224   3.007  0.7634  3.1651 -1.2207
   85MOL    H2143869   4.084   5.456   3.002 -0.8969  0.9057  1.2522
   85MOL    H2243870   3.884   5.490   3.139  0.8977  0.2397  0.1589
   85MOL    H2343871   3.704   5.239   3.600  2.3411  0.3346  1.5420
   85MOL    H2443872   3.746   5.003   3.707 -0.4970  0.3580  0.2064
   85MOL    H2543873   3.914   4.862   3.600  0.6869  0.5578  1.0653
   85MOL    H2643874   4.032   4.952   3.391  1.0933  2.3082  0.6912
   85MOL    H2743875   3.701   5.619   3.473  0.9320  0.8108  1.3521
   85MOL    C2843876   3.571   5.383   3.360 -0.0696  0.7135 -0.5179
   85MOL    C2943877   3.535   5.288   3.240 -0.4100 -0.2318 -0.4470
   85MOL    N3043878   3.431   5.194   3.276  0.9185  0.1367 -0.3733
   85MOL    C3143879   3.444   5.056   3.285  0.4274  0.0651  0.0619
   85MOL    C3243880   3.319   4.995   3.320 -0.2600 -0.4921 -1.1565
   85MOL    C3343881   3.311   4.852   3.330 -0.0657 -0.4959  0.4867
   85MOL    C3443882   3.424   4.773   3.304 -0.3646 -0.1842 -0.1868
   85MOL    C3543883   3.551   4.833   3.287 -0.4264 -0.1369  0.5132
   85MOL    C3643884   3.559   4.972   3.280  0.3896 -0.3974 -1.5087
   85MOL    C3743885   3.230   5.100   3.348  0.2251 -0.0435  0.1238
   85MOL    C3843886   3.300   5.223   3.323  0.2446  0.3867  1.2086
   85MOL    C3943887   3.232   5.342   3.352 -0.2654 -0.5453  0.5386
   85MOL    C4043888   3.104   5.345   3.399  0.8905 -0.3366  0.9023
   85MOL    C4143889   3.036   5.224   3.422 -0.0391  0.3518 -0.6379
   85MOL    C4243890   3.096   5.104   3.403  0.4729  0.2067  0.1832
   85MOL    H4343891   3.553   5.321   3.448  1.0931 -0.5472 -1.1502
   85MOL    H4443892   3.498   5.464   3.362  1.3656  2.0422 -0.8159
   85MOL    H4543893   3.622   5.225   3.220 -2.0925 -1.8794 -3.0095
   85MOL    H4643894   3.221   4.799   3.356 -0.6266  0.6223  0.8423
   85MOL    H4743895   3.409   4.669   3.325  0.9370 -0.9236 -2.6670
   85MOL    H4843896   3.634   4.763   3.288  0.7142  1.1982  0.6456
   85MOL    H4943897   3.654   5.023   3.289 -1.1200  1.9617  1.8305
   85MOL    H5043898   3.275   5.437   3.325  1.2736 -2.0456 -2.4838
   85MOL    H5143899   3.044   5.434   3.408  2.2150  0.7392 -0.7731
   85MOL    H5243900   2.933   5.228   3.454 -0.3785  2.3093 -1.8721
   85MOL    H5343901   3.051   5.008   3.426 -1.6738  1.0304 -0.4524
   85MOL    C5443902   3.511   5.355   3.111  0.1676 -0.0283  0.2208
   85MOL    C5543903   3.453   5.268   2.995  0.3632 -0.0061 -0.3380
   85MOL    N5643904   3.399   5.352   2.889  0.5236  0.1695 -0.0508
   85MOL    C5743905   3.261   5.364   2.857 -0.0765 -0.5982 -0.1721
   85MOL    C5843906   3.247   5.459   2.760 -0.5596 -0.5709  0.2269
   85MOL    C5943907   3.113   5.490   2.725  0.6749  0.2296  0.6218
   85MOL    C6043908   2.993   5.441   2.782  0.1720  0.5384  0.0299
   85MOL    C6143909   3.011   5.346   2.881 -0.2253  0.0923 -0.1914
   85MOL    C6243910   3.143   5.314   2.920 -0.4779 -0.2277  0.0829
   85MOL    C6343911   3.381   5.499   2.723 -0.8316  0.3088 -0.7099
   85MOL    C6443912   3.472   5.433   2.805 -0.1467  0.3557  0.0361
   85MOL    C6543913   3.609   5.453   2.800  0.6798  0.3286 -0.6942
   85MOL    C6643914   3.664   5.548   2.722 -0.0894 -0.4484 -0.1923
   85MOL    C6743915   3.579   5.615   2.631  0.6961 -0.3085 -0.0704
   85MOL    C6843916   3.438   5.591   2.627 -0.4610  0.2613  0.1256
   85MOL    H6943917   3.427   5.417   3.141 -1.0524 -1.9482  0.8435
   85MOL    H7043918   3.596   5.417   3.081 -0.6066  1.7488  1.5855
   85MOL    H7143919   3.367   5.218   3.038  0.4538  2.6985  3.2274
   85MOL    H7243920   3.101   5.570   2.653  0.3366 -1.1799 -0.9428
   85MOL    H7343921   2.894   5.469   2.752  0.7923  2.5116 -0.2533
   85MOL    H7443922   2.926   5.302   2.932  1.6983 -0.9157  2.2447
   85MOL    H7543923   3.151   5.238   2.997 -1.1215  0.8665  1.2462
   85MOL    H7643924   3.670   5.405   2.876 -1.0859 -0.4772  0.2510
   85MOL    H7743925   3.769   5.570   2.710  0.2286 -1.4853  0.7082
   85MOL    H7843926   3.618   5.690   2.564  0.6094 -0.8294 -0.7050
   85MOL    H7943927   3.370   5.642   2.560  1.1041 -0.2854 -1.9355
   85MOL    C8043928   3.542   5.147   2.936 -0.1927 -0.0761 -0.0352
   85MOL    C8143929   3.491   5.084   2.804 -0.3074  0.5727  0.4414
   85MOL    N8243930   3.586   4.987   2.742  0.0334 -0.2314 -0.3256
   85MOL    C8343931   3.681   5.019   2.639  0.1761 -0.5283  0.7376
   85MOL    C8443932   3.740   4.898   2.592 -0.3777 -0.8365 -0.1329
   85MOL    C8543933   3.823   4.910   2.475  0.0164  0.3829 -0.0567
   85MOL    C8643934   3.861   5.032   2.422 -0.3044 -0.2613 -0.0178
   85MOL    C8743935   3.801   5.152   2.473  0.0894  0.4037  0.1932
   85MOL    C8843936   3.711   5.142   2.579  0.2386  0.0277 -0.2874
   85MOL    C8943937   3.684   4.788   2.674  0.6158 -0.5718  0.3750
   85MOL    C9043938   3.599   4.850   2.770  0.4983 -0.1827 -0.6342
   85MOL    C9143939   3.542   4.774   2.878 -0.6556  0.6013  0.6047
   85MOL    C9243940   3.553   4.633   2.871  0.5642 -0.1794  0.0357
   85MOL    C9343941   3.640   4.570   2.774 -0.2069  0.7283  0.3318
   85MOL    C9443942   3.701   4.650   2.675  0.2790 -0.1108  0.0980
   85MOL    H9543943   3.645   5.180   2.926  0.2927 -1.7845 -0.7600
   85MOL    H9643944   3.557   5.062   3.002 -2.1597 -1.3545 -1.1859
   85MOL    H9743945   3.490   5.160   2.726  0.1430  2.0297  1.8163
   85MOL    H9843946   3.862   4.821   2.428  2.5888  1.3486  0.1848
   85MOL    H9943947   3.933   5.034   2.341 -0.2789  1.7553  0.0314
   85MOL   H10043948   3.834   5.245   2.428  0.4751 -0.1477 -0.6701
   85MOL   H10143949   3.662   5.231   2.616  1.4191  0.3424  0.5472
   85MOL   H10243950   3.482   4.808   2.961 -0.1006 -1.5604  1.9393
   85MOL   H10343951   3.497   4.580   2.947 -0.4987 -1.7194 -1.7727
   85MOL   H10443952   3.650   4.462   2.766  0.3405  0.8390 -0.5116
   85MOL   H10543953   3.771   4.610   2.603 -1.1871  1.8350 -2.5062
   85MOL   C10643954   3.338   5.026   2.799  0.3658 -0.6564 -0.1020
   85MOL   C10743955   3.293   4.938   2.686 -0.2034 -0.0069 -0.0086
   85MOL   N10843956   3.164   4.877   2.702  0.5384  0.1556  0.2064
   85MOL   C10943957   3.140   4.738   2.731 -0.2079  0.3492  0.0408
   85MOL   C11043958   2.997   4.715   2.715 -0.0487 -1.4681  0.1468
   85MOL   C11143959   2.945   4.589   2.739 -0.1650  0.6437 -0.3177
   85MOL   C11243960   3.030   4.479   2.763 -0.1343 -0.1801 -0.1443
   85MOL   C11343961   3.171   4.500   2.776 -0.7343 -0.4688 -0.4331
   85MOL   C11443962   3.227   4.626   2.749  0.3746  0.0783 -0.7317
   85MOL   C11543963   2.933   4.841   2.682  0.1728 -0.4624  0.0883
   85MOL   C11643964   3.040   4.938   2.688  0.0629  0.3124 -0.5421
   85MOL   C11743965   3.013   5.074   2.668  0.0662  0.3818  0.2549
   85MOL   C11843966   2.884   5.113   2.629 -0.1889  0.0502 -0.1898
   85MOL   C11943967   2.780   5.017   2.625  0.6193  0.6345 -0.4858
   85MOL   C12043968   2.805   4.883   2.647 -0.2226 -0.2433  0.1892
   85MOL   H12143969   3.331   4.958   2.884 -0.4743  1.9947  2.0113
   85MOL   H12243970   3.269   5.110   2.812  4.0543  2.4981 -0.1323
   85MOL   H12343971   3.366   4.857   2.688  0.6825  0.7384 -0.8804
   85MOL   H12443972   2.839   4.576   2.718 -0.5897  2.4823  0.5907
   85MOL   H12543973   2.993   4.377   2.768  0.7936 -0.5552 -0.7265
   85MOL   H12643974   3.232   4.412   2.792  0.1129  0.0332 -0.8958
   85MOL   H12743975   3.334   4.619   2.736  0.2598 -0.8613 -1.1484
   85MOL   H12843976   3.092   5.147   2.661  2.4587 -2.0663  1.1370
   85MOL   H12943977   2.855   5.214   2.602 -2.4785  0.1018  2.1891
   85MOL   H13043978   2.678   5.047   2.609  0.2517 -0.1271  0.3685
   85MOL   H13143979   2.725   4.812   2.662  0.2167 -0.8676 -0.4113
   85MOL   C13243980   3.320   5.000   2.543  0.0915  0.1633 -0.2585
   85MOL   C13343981   3.273   4.911   2.431  0.0636  0.4027 -0.1027
   85MOL   N13443982   3.282   4.981   2.305 -0.0078 -0.0523  0.2618
   85MOL   C13543983   3.170   5.043   2.238 -0.6444  0.7805 -0.3017
   85MOL   C13643984   3.213   5.102   2.117  0.2955  0.2005 -0.0456
   85MOL   C13743985   3.115   5.168   2.032  0.5084  0.6556  0.0450
   85MOL   C13843986   2.980   5.158   2.067  0.2221 -0.3087  0.6244
   85MOL   C13943987   2.941   5.086   2.182  0.6526  0.0851  0.5123
   85MOL   C14043988   3.035   5.039   2.278 -0.2590 -0.0661  1.5180
   85MOL   C14143989   3.355   5.085   2.113 -0.1828  0.4927 -0.6455
   85MOL   C14243990   3.389   5.019   2.233 -0.0379  0.1768 -0.3597
   85MOL   C14343991   3.528   5.002   2.266  0.0056 -0.6443 -0.4388
   85MOL   C14443992   3.627   5.046   2.176 -0.5707 -0.5798 -0.4900
   85MOL   C14543993   3.594   5.107   2.056  0.5067  0.4578  0.3408
   85MOL   C14643994   3.461   5.121   2.022 -0.0698 -0.0206 -0.3110
   85MOL   H14743995   3.273   5.098   2.534 -2.8540 -0.9538  2.0286
   85MOL   H14843996   3.427   5.022   2.539  0.0262  0.5922  0.2208
   85MOL   H14943997   3.168   4.891   2.455  0.5297 -1.6691  0.2534
   85MOL   H15043998   3.153   5.208   1.939 -0.2649  0.3181 -0.4185
   85MOL   H15143999   2.903   5.200   2.004  0.2916 -0.4597  0.4366
   85MOL   H15244000   2.835   5.071   2.196  0.8968 -1.8216  0.4917
   85MOL   H15344001   3.001   4.987   2.367 -0.2698 -1.8638  0.4836
   85MOL   H15444002   3.566   4.962   2.359  0.5675 -0.1638 -0.4629
   85MOL   H15544003   3.729   5.028   2.205 -0.6054 -1.4048 -0.8817
   85MOL   H15644004   3.672   5.138   1.988 -0.1976 -0.2926 -0.8217
   85MOL   H15744005   3.445   5.176   1.931  1.3568 -0.4839 -0.8453
   85MOL   C15844006   3.345   4.771   2.426 -0.3395 -0.1887 -0.0682
   85MOL   C15944007   3.282   4.662   2.334 -0.5001 -0.7076 -0.1120
   85MOL   N16044008   3.303   4.688   2.195 -0.3801  0.6773 -0.2877
   85MOL   C16144009   3.203   4.709   2.100  0.4252  0.4397 -0.4238
   85MOL   C16244010   3.258   4.711   1.971 -0.0860 -0.5453 -0.0245
   85MOL   C16344011   3.172   4.711   1.859  0.1839 -0.6797  0.0437
   85MOL   C16444012   3.037   4.732   1.876  0.0598 -0.0888  0.0491
   85MOL   C16544013   2.980   4.746   2.004  0.0202 -0.5123 -0.1990
   85MOL   C16644014   3.062   4.720   2.113 -0.0194 -0.5730 -0.3512
   85MOL   C16744015   3.393   4.694   1.988 -0.2581  0.0496  0.2408
   85MOL   C16844016   3.424   4.683   2.128 -0.0384 -0.3160 -0.1715
   85MOL   C16944017   3.559   4.665   2.171  0.5394 -0.7037  0.2495
   85MOL   C17044018   3.659   4.654   2.075 -0.0886 -0.2690 -0.0920
   85MOL   C17144019   3.636   4.666   1.940 -0.0896 -0.0851  0.2481
   85MOL   C17244020   3.503   4.692   1.898 -0.2104 -0.2638  0.3730
   85MOL   H17344021   3.453   4.765   2.413 -0.2917 -0.2264  0.3236
   85MOL   H17444022   3.327   4.731   2.526  1.3885  0.3266  0.4674
   85MOL   H17544023   3.179   4.687   2.359 -0.3752 -1.8269  1.5820
   85MOL   H17644024   3.219   4.699   1.762  1.0140  2.5693 -0.0150
   85MOL   H17744025   2.974   4.738   1.789  0.8749  0.3309 -0.5174
   85MOL   H17844026   2.875   4.770   2.017  0.3321  0.5453  0.4030
   85MOL   H17944027   3.012   4.736   2.208  0.6388  1.1606 -0.2666
   85MOL   H18044028   3.586   4.662   2.275 -2.8295  2.5376  1.3202
   85MOL   H18144029   3.761   4.650   2.111  0.4643 -1.0369 -1.6799
   85MOL   H18244030   3.705   4.660   1.857 -2.1630 -0.5347 -1.4812
   85MOL   H18344031   3.482   4.700   1.792  0.7758  0.5218  0.2320
   85MOL   C18444032   3.299   4.512   2.368 -0.5374  0.0422 -0.3736
   85MOL   C18544033   3.218   4.414   2.274 -0.2975  0.8779 -0.0086
   85MOL   N18644034   3.276   4.279   2.282  0.0207  0.0086 -0.4555
   85MOL   C18744035   3.370   4.237   2.190  0.7426  0.0711  0.8156
   85MOL   C18844036   3.402   4.102   2.217 -1.0365  0.4345  0.1630
   85MOL   C18944037   3.497   4.043   2.129  0.4969  0.7408  0.0617
   85MOL   C19044038   3.553   4.117   2.027 -0.0978 -0.2269 -0.6481
   85MOL   C19144039   3.516   4.250   1.996  0.3360  0.1410  0.3025
   85MOL   C19244040   3.420   4.306   2.075  0.1690  0.0081  0.4134
   85MOL   C19344041   3.337   4.064   2.337  0.7265  0.2524  0.0076
   85MOL   C19444042   3.262   4.175   2.378  0.3470 -0.5270  0.7300
   85MOL   C19544043   3.186   4.171   2.494  0.1039  0.3438  0.1841
   85MOL   C19644044   3.190   4.055   2.572 -0.0224  0.3569  0.1344
   85MOL   C19744045   3.260   3.940   2.529 -0.0077  0.7810  0.2148
   85MOL   C19844046   3.335   3.945   2.412 -0.5046 -0.8549 -0.3992
   85MOL   H19944047   3.404   4.483   2.368 -0.4859  0.1726  1.1885
   85MOL   H20044048   3.266   4.489   2.470 -2.1291  3.1140 -0.1238
   85MOL   H20144049   3.220   4.452   2.172  1.0652 -0.8814 -0.6647
   85MOL   H20244050   3.537   3.945   2.152  0.6627  1.2098  1.9012
   85MOL   H20344051   3.639   4.073   1.979 -2.0456 -2.5663 -2.0726
   85MOL   H20444052   3.566   4.301   1.916 -0.1821  0.8204  0.4099
   85MOL   H20544053   3.392   4.408   2.053  0.5430 -0.8219 -4.2130
   85MOL   H20644054   3.136   4.262   2.522 -1.9624 -1.0860  1.2261
   85MOL   H20744055   3.148   4.051   2.671  0.3196 -3.8030  0.2025
   85MOL   H20844056   3.258   3.851   2.591  0.2953  0.8696  0.3547
   85MOL   H20944057   3.390   3.855   2.389  0.9682  0.5723 -2.6670
   85MOL   C21044058   3.068   4.415   2.283  0.6089  0.6584 -0.2807
   85MOL   C21144059   2.994   4.310   2.200 -0.2207  0.1263  0.4220
   85MOL   N21244060   2.858   4.284   2.238  0.3127  0.2652 -0.0558
   85MOL   C21344061   2.813   4.163   2.294 -0.4257 -0.5475  0.4029
   85MOL   C21444062   2.675   4.155   2.277  0.4453 -0.5723 -0.5792
   85MOL   C21544063   2.614   4.033   2.299  0.2999  0.2356  0.6588
   85MOL   C21644064   2.686   3.916   2.331  0.5950  0.8779 -0.3308
   85MOL   C21744065   2.818   3.929   2.365 -0.9090 -0.3048  0.0736
   85MOL   C21844066   2.883   4.051   2.347  0.3608 -0.2206  0.0945
   85MOL   C21944067   2.629   4.288   2.250 -0.0454  0.4096  0.5213
   85MOL   C22044068   2.746   4.369   2.229 -0.0466 -0.2422  0.1051
   85MOL   C22144069   2.737   4.505   2.212 -0.0662 -0.1688  0.8487
   85MOL   C22244070   2.612   4.567   2.197  0.1733  0.3526 -0.3796
   85MOL   C22344071   2.498   4.488   2.200  0.5357 -0.2362 -0.1658
   85MOL   C22444072   2.505   4.348   2.223  0.0764  0.4654 -0.8022
   85MOL   H22544073   3.040   4.396   2.387 -2.5921 -1.8967 -1.5306
   85MOL   H22644074   3.021   4.510   2.258 -1.3155  0.1510  1.2733
   85MOL   H22744075   3.049   4.216   2.202 -0.7578 -0.1827  1.2562
   85MOL   H22844076   2.513   4.019   2.264  0.6587  0.0225 -0.3055
   85MOL   H22944077   2.639   3.820   2.345  0.6790  0.9834  0.7573
   85MOL   H23044078   2.878   3.844   2.393  3.5810  2.6871  0.0448
   85MOL   H23144079   2.990   4.065   2.360  0.4146 -0.5384  0.0149
   85MOL   H23244080   2.822   4.568   2.189 -1.0912  1.5755  1.6528
   85MOL   H23344081   2.600   4.671   2.169  4.0549  0.7501 -0.9627
   85MOL   H23444082   2.401   4.534   2.188  0.5390 -0.4135 -0.8832
   85MOL   H23544083   2.419   4.283   2.229  0.1914  0.4489  1.0837
   85MOL   C23644084   3.008   4.346   2.044  0.3687  0.0084  0.4677
   85MOL   C23744085   2.950   4.245   1.941  0.6028  0.4532  0.2373
   85MOL   N23844086   2.968   4.299   1.807 -0.0732  0.8695 -0.3463
   85MOL   C23944087   2.865   4.345   1.721  0.5405 -0.2536  0.2499
   85MOL   C24044088   2.918   4.378   1.595 -0.2091  0.5893 -0.3360
   85MOL   C24144089   2.833   4.421   1.497  0.1241 -0.2594  0.2850
   85MOL   C24244090   2.697   4.419   1.514  0.2942  0.5582 -0.5739
   85MOL   C24344091   2.647   4.394   1.641  0.4767  0.8213  0.6055
   85MOL   C24444092   2.729   4.354   1.749 -0.2803  0.1634  0.9387
   85MOL   C24544093   3.056   4.347   1.601 -0.4044 -0.4877  0.1681
   85MOL   C24644094   3.083   4.310   1.737  0.5433  0.3202  0.4354
   85MOL   C24744095   3.227   4.287   1.769  0.7494  0.7441  0.6695
   85MOL   C24844096   3.328   4.295   1.669  0.1461 -0.5365  0.2708
   85MOL   C24944097   3.293   4.320   1.537  0.6119 -0.5504 -0.3396
   85MOL   C25044098   3.162   4.351   1.502 -0.1236 -0.1658 -0.0909
   85MOL   H25144099   2.949   4.438   2.044 -0.9875 -0.8268 -2.1454
   85MOL   H25244100   3.111   4.372   2.022  0.7464  0.2546  2.4178
   85MOL   H25344101   2.841   4.243   1.953  0.5681  2.0108  0.3639
   85MOL   H25444102   2.866   4.445   1.397 -1.4533  2.3142  0.3359
   85MOL   H25544103   2.632   4.445   1.432 -0.2368  0.0076 -0.3289
   85MOL   H25644104   2.540   4.402   1.658  0.4323 -1.9087  1.9418
   85MOL   H25744105   2.685   4.327   1.844  1.5021 -0.4957  1.5985
   85MOL   H25844106   3.255   4.253   1.868  1.8404 -1.1718 -0.2611
   85MOL   H25944107   3.429   4.265   1.696  0.6238  1.1576  0.3790
   85MOL   H26044108   3.370   4.334   1.463  2.0949 -3.2524  0.6069
   85MOL   H26144109   3.146   4.376   1.398  2.2380  1.4249 -0.1052
   85MOL   C26244110   2.993   4.098   1.947 -0.0038  0.1991  0.0513
   85MOL   C26344111   2.892   3.994   1.882  0.2113 -0.0709  0.3583
   85MOL   N26444112   2.970   3.885   1.826  0.3061 -0.2125  0.1139
   85MOL   C26544113   2.978   3.856   1.686 -1.3426 -0.5892  0.2929
   85MOL   C26644114   3.048   3.728   1.675  0.3763 -0.0687 -0.5266
   85MOL   C26744115   3.073   3.678   1.543 -0.2270 -0.3335 -0.2818
   85MOL   C26844116   3.030   3.753   1.430  0.0382  0.3660 -0.6215
   85MOL   C26944117   2.950   3.867   1.450 -0.2000  0.1104 -0.4467
   85MOL   C27044118   2.929   3.926   1.574  1.1309 -0.2438  0.1630
   85MOL   C27144119   3.084   3.689   1.806  0.6556  0.6103  0.0527
   85MOL   C27244120   3.036   3.785   1.898 -0.0463 -0.1974  0.4928
   85MOL   C27344121   3.067   3.774   2.037  0.3324  0.1191  0.5462
   85MOL   C27444122   3.141   3.666   2.085 -0.1400 -0.5140  1.2990
   85MOL   C27544123   3.190   3.570   1.993 -0.2369  0.2431  0.4260
   85MOL   C27644124   3.161   3.584   1.857  0.4775  0.2467 -0.2228
   85MOL   H27744125   3.082   4.089   1.885  1.9070 -0.8543  2.8351
   85MOL   H27844126   3.019   4.059   2.045  3.0866  1.5453 -0.1602
   85MOL   H27944127   2.857   4.047   1.794 -3.4228 -1.9763  0.5548
   85MOL   H28044128   3.134   3.590   1.531  0.7794  0.2563  0.4947
   85MOL   H28144129   3.046   3.723   1.328 -0.0847 -1.7601 -0.0445
   85MOL   H28244130   2.907   3.915   1.363  1.3698 -1.2866 -2.0419
   85MOL   H28344131   2.879   4.021   1.584  1.4715  0.0280 -0.6177
   85MOL   H28444132   3.025   3.848   2.105 -0.1161  0.0591  0.3367
   85MOL   H28544133   3.168   3.656   2.189 -0.8421 -0.8908  1.4490
   85MOL   H28644134   3.268   3.503   2.027 -1.2694 -2.7345 -2.8012
   85MOL   H28744135   3.195   3.513   1.782  2.6812 -0.2734  1.2371
   85MOL   C28844136   2.764   3.948   1.966  0.0512  0.1896  0.2631
   85MOL   C28944137   2.710   3.803   1.939 -0.1369 -0.2928 -0.3715
   85MOL   N29044138   2.611   3.765   2.045  0.1524 -0.1438 -0.5699
   85MOL   C29144139   2.629   3.644   2.125  1.2782  0.3703  0.1946
   85MOL   C29244140   2.505   3.622   2.196 -0.4828 -0.0627  0.0945
   85MOL   C29344141   2.496   3.503   2.277  0.2578  0.7922 -0.0196
   85MOL   C29444142   2.605   3.410   2.284 -0.4885  0.1411 -0.1332
   85MOL   C29544143   2.722   3.426   2.200  0.5419  0.3262 -0.3365
   85MOL   C29644144   2.736   3.551   2.128 -0.3708  0.4574 -0.7264
   85MOL   C29744145   2.418   3.729   2.166  0.2806 -0.5294 -0.1480
   85MOL   C29844146   2.482   3.807   2.064  0.1473 -0.0259 -0.1322
   85MOL   C29944147   2.405   3.903   2.002 -0.1267 -0.3595 -0.4429
   85MOL   C30044148   2.281   3.944   2.051  0.0946  0.4088 -0.1342
   85MOL   C30144149   2.223   3.882   2.165  0.2684 -0.2418  1.1157
   85MOL   C30244150   2.286   3.772   2.213 -0.2466  0.3080 -0.9981
   85MOL   H30344151   2.786   3.950   2.073  2.3541  0.1884 -0.1830
   85MOL   H30444152   2.681   4.014   1.939 -1.8743 -2.5626 -0.8969
   85MOL   H30544153   2.795   3.738   1.962 -0.4395 -1.1631 -1.6687
   85MOL   H30644154   2.411   3.499   2.344 -0.2073  1.4280 -0.5578
   85MOL   H30744155   2.586   3.312   2.324 -0.3705 -0.2507 -1.0192
   85MOL   H30844156   2.793   3.345   2.200  1.4307  1.0919  0.3467
   85MOL   H30944157   2.822   3.573   2.066  0.6997 -2.5065 -0.3580
   85MOL   H31044158   2.437   3.973   1.926  1.3230 -0.2057  0.2907
   85MOL   H31144159   2.221   4.025   2.012 -0.3086  0.3812  0.4316
   85MOL   H31244160   2.134   3.921   2.212 -0.2682 -0.4232  0.2542
   85MOL   H31344161   2.245   3.726   2.301 -0.5425 -1.4955 -2.0508
   85MOL   C31444162   2.667   3.772   1.792  0.1349 -0.4475 -0.0608
   85MOL   C31544163   2.626   3.622   1.771  0.2814  0.2899 -0.1426
   85MOL   N31644164   2.528   3.607   1.665  0.1764 -0.4119 -0.0127
   85MOL   C31744165   2.393   3.580   1.679 -0.2950  0.6186 -0.0776
   85MOL   C31844166   2.329   3.561   1.555 -0.1495  0.0236  0.0613
   85MOL   C31944167   2.189   3.545   1.560  0.5364  0.4828  0.3039
   85MOL   C32044168   2.112   3.530   1.679 -0.1481 -0.2519  0.0374
   85MOL   C32144169   2.184   3.532   1.799 -0.7127  0.2780  0.4312
   85MOL   C32244170   2.322   3.554   1.801  0.1772  0.8358 -0.6081
   85MOL   C32344171   2.432   3.578   1.459 -0.2929  0.0323  0.3014
   85MOL   C32444172   2.552   3.610   1.527  0.1364 -0.2253 -1.1342
   85MOL   C32544173   2.669   3.634   1.451 -0.4537  0.2134  0.1336
   85MOL   C32644174   2.664   3.617   1.313 -0.6800 -0.1368 -0.1837
   85MOL   C32744175   2.549   3.594   1.244 -0.5948  0.1854 -0.4079
   85MOL   C32844176   2.435   3.563   1.317  0.3230  0.2700  0.0846
   85MOL   H32944177   2.581   3.832   1.764  0.6449 -0.7601 -2.3876
   85MOL   H33044178   2.746   3.802   1.724 -0.0204  2.2954  0.8996
   85MOL   H33144179   2.586   3.592   1.868 -2.0922  1.2125 -0.8146
   85MOL   H33244180   2.135   3.548   1.467  0.9269  0.3202  0.0708
   85MOL   H33344181   2.004   3.526   1.674 -0.2168  2.5856 -2.3687
   85MOL   H33444182   2.132   3.513   1.892 -0.3836 -0.7437  0.4090
   85MOL   H33544183   2.373   3.544   1.896 -2.1349 -0.1962  0.5779
   85MOL   H33644184   2.751   3.678   1.506  2.0273 -0.9797 -2.4466
   85MOL   H33744185   2.756   3.638   1.260 -0.6625  0.2901  0.0129
   85MOL   H33844186   2.546   3.587   1.136  0.3870 -0.5044 -0.3920
   85MOL   H33944187   2.344   3.522   1.275  1.8116  0.7943 -3.8648
   85MOL   C34044188   2.747   3.523   1.757 -0.8945  0.0011 -0.8636
   85MOL   C34144189   2.709   3.377   1.728  0.1983 -0.6905  0.0301
   85MOL   N34244190   2.820   3.305   1.670 -0.0141 -0.2810  0.5551
   85MOL   C34344191   2.825   3.263   1.536 -0.2604  0.5644  0.6194
   85MOL   C34444192   2.949   3.199   1.506  0.3167  0.1578  0.8110
   85MOL   C34544193   2.985   3.172   1.367 -0.2331 -0.3422 -0.4469
   85MOL   C34644194   2.892   3.197   1.261 -0.4190 -0.7760 -0.8079
   85MOL   C34744195   2.769   3.260   1.296 -1.0327 -0.0480 -0.1123
   85MOL   C34844196   2.729   3.282   1.430  0.3873  0.0944  0.5982
   85MOL   C34944197   3.016   3.189   1.636 -0.8314 -0.0837  0.5451
   85MOL   C35044198   2.942   3.268   1.728  0.4227  0.1618 -0.5293
   85MOL   C35144199   2.988   3.286   1.862 -0.1989 -0.6551 -0.5461
   85MOL   C35244200   3.110   3.229   1.901 -0.5810  0.7149 -0.0290
   85MOL   C35344201   3.187   3.161   1.809  0.5686  0.5391  0.4087
   85MOL   C35444202   3.142   3.143   1.675  0.5773  0.1288  0.0789
   85MOL   H35544203   2.817   3.557   1.680  2.8203 -0.4465  2.1676
   85MOL   H35644204   2.815   3.522   1.842  0.1396  2.2875 -1.6128
   85MOL   H35744205   2.632   3.380   1.651 -0.4217 -2.8116  0.5393
   85MOL   H35844206   3.082   3.127   1.354  0.6520  1.8125 -1.4228
   85MOL   H35944207   2.917   3.165   1.161 -1.8044  1.6901 -1.9875
   85MOL   H36044208   2.695   3.282   1.220 -1.7052  0.2330  0.6157
   85MOL   H36144209   2.634   3.332   1.441  1.6915  2.6795  0.5892
   85MOL   H36244210   2.922   3.327   1.937  1.8642  1.2613  0.2714
   85MOL   H36344211   3.157   3.254   1.995 -2.6526  2.9417  0.4683
   85MOL   H36444212   3.284   3.118   1.831  0.0802 -0.1512  1.2295
   85MOL   H36544213   3.209   3.103   1.600  0.0687 -0.2605 -0.1786
   85MOL   C36644214   2.626   3.308   1.830  0.9427  0.1109  0.6366
   85MOL   C36744215   2.591   3.162   1.788 -0.2554  0.4069 -0.2983
   85MOL   N36844216   2.567   3.077   1.900 -0.1666 -0.1431  0.4031
   85MOL   C36944217   2.648   2.976   1.954  0.1597 -0.6530 -0.1167
   85MOL   C37044218   2.593   2.914   2.071  0.2456 -0.5533 -0.8561
   85MOL   C37144219   2.670   2.811   2.132 -0.4046  0.4419  0.6051
   85MOL   C37244220   2.792   2.761   2.085  0.0647  0.3421  0.0560
   85MOL   C37344221   2.840   2.821   1.966 -0.2131  0.2580  0.8064
   85MOL   C37444222   2.767   2.930   1.906 -0.7377  0.3017  0.2233
   85MOL   C37544223   2.472   2.983   2.095  0.7515  0.4880 -0.0703
   85MOL   C37644224   2.460   3.087   1.994  0.4322 -0.3169  0.0857
   85MOL   C37744225   2.345   3.180   1.995 -0.8013  0.0611 -0.7652
   85MOL   C37844226   2.254   3.181   2.103 -0.0538  0.3905  0.3174
   85MOL   C37944227   2.274   3.081   2.202  0.1689  0.8132 -0.4385
   85MOL   C38044228   2.371   2.976   2.195 -0.2128  0.9659  0.3974
   85MOL   H38144229   2.696   3.305   1.914 -1.0684  0.1679  2.3632
   85MOL   H38244230   2.534   3.361   1.853 -0.2722 -0.7304 -2.0702
   85MOL   H38344231   2.683   3.130   1.739 -0.7819 -0.0875 -0.9889
   85MOL   H38444232   2.629   2.761   2.218  1.2835  0.7484  1.5984
   85MOL   H38544233   2.842   2.692   2.151  0.8538  0.0800 -0.8016
   85MOL   H38644234   2.932   2.795   1.916 -0.3018 -2.5258  1.9380
   85MOL   H38744235   2.805   2.986   1.822  0.1733  0.3446  0.6584
   85MOL   H38844236   2.329   3.249   1.913  0.3743 -0.4171 -1.3986
   85MOL   H38944237   2.174   3.251   2.122 -1.3440 -1.0975  0.5316
   85MOL   H39044238   2.217   3.078   2.294  2.5554 -0.0709  1.0485
   85MOL   H39144239   2.380   2.919   2.286  1.1186  2.6890  1.3767
   85MOL   C39244240   2.481   3.157   1.683  0.2193 -0.4615  0.3125
   85MOL   C39344241   2.448   3.022   1.631 -0.2072  0.3808 -0.1083
   85MOL   N39444242   2.328   3.029   1.547  0.3411 -0.6633  0.4635
   85MOL   C39544243   2.218   2.942   1.564  0.0251 -0.4576 -0.5285
   85MOL   C39644244   2.121   2.966   1.468  0.1133  0.0108 -0.2167
   85MOL   C39744245   2.005   2.888   1.467 -0.1090 -0.9897 -0.1234
   85MOL   C39844246   1.976   2.800   1.576 -0.4949 -0.5549 -0.4962
   85MOL   C39944247   2.067   2.792   1.682  0.4521 -1.0121  0.5522
   85MOL   C40044248   2.190   2.860   1.672  0.1312  0.7607 -0.6218
   85MOL   C40144249   2.174   3.063   1.382 -0.0924  0.1779 -0.8430
   85MOL   C40244250   2.312   3.092   1.427  0.4246  0.2769 -0.2790
   85MOL   C40344251   2.393   3.179   1.356  0.2833  0.1961  0.2751
   85MOL   C40444252   2.340   3.238   1.233 -0.4735  0.5473 -0.5125
   85MOL   C40544253   2.213   3.205   1.189 -0.4365 -0.3994 -0.7333
   85MOL   C40644254   2.130   3.121   1.260  0.2851  0.8967 -0.4090
   85MOL   H40744255   2.391   3.205   1.721  1.8807  1.5232  1.8244
   85MOL   H40844256   2.501   3.216   1.593 -4.7633 -1.7602 -1.8435
   85MOL   H40944257   2.418   2.952   1.709  1.4239 -0.3115 -0.0822
   85MOL   H41044258   1.936   2.899   1.384 -1.4951  0.4846  1.2094
   85MOL   H41144259   1.892   2.732   1.573 -0.4250 -0.6233 -0.9970
   85MOL   H41244260   2.049   2.735   1.771  4.9873  0.3240  2.4705
   85MOL   H41344261   2.254   2.855   1.759 -1.0752  0.4919  0.2741
   85MOL   H41444262   2.497   3.197   1.381  0.5118  1.9170 -1.7341
   85MOL   H41544263   2.406   3.308   1.183  1.3227 -1.1909 -0.6437
   85MOL   H41644264   2.182   3.243   1.093  0.1981  1.0704 -0.3741
   85MOL   H41744265   2.030   3.099   1.225  0.5431 -0.5952 -0.2421
   85MOL   C41844266   2.576   2.970   1.565 -0.6459  0.2865  0.1008
   85MOL   C41944267   2.554   2.863   1.449 -0.3379 -0.0729 -0.2086
   85MOL   N42044268   2.675   2.862   1.354  0.2909 -0.6423  0.2279
   85MOL   C42144269   2.671   2.897   1.220  0.1916 -0.1775 -0.2643
   85MOL   C42244270   2.800   2.892   1.161  0.1494  0.5768  0.2168
   85MOL   C42344271   2.813   2.908   1.019 -0.6709  0.1592  0.0469
   85MOL   C42444272   2.709   2.946   0.935  0.5261 -0.6678 -0.1683
   85MOL   C42544273   2.582   2.955   0.994  0.2603  0.7781  0.2906
   85MOL   C42644274   2.566   2.951   1.141  0.3203  0.2435 -0.4929
   85MOL   C42744275   2.888   2.853   1.267 -0.4268 -0.0086 -0.0442
   85MOL   C42844276   2.804   2.828   1.377  0.2252 -0.6510  0.4322
   85MOL   C42944277   2.858   2.778   1.500  0.9007 -0.1117 -0.1398
   85MOL   C43044278   2.996   2.772   1.519  0.6362  0.3122  0.5725
   85MOL   C43144279   3.083   2.807   1.411  0.1673  0.8694 -0.2321
   85MOL   C43244280   3.026   2.842   1.286  0.5359  0.6989  0.5048
   85MOL   H43344281   2.649   3.037   1.519 -2.1407  2.0986  0.3318
   85MOL   H43444282   2.640   2.921   1.638 -0.0739 -0.0149 -0.5966
   85MOL   H43544283   2.470   2.892   1.385  1.3756  1.6251 -1.7988
   85MOL   H43644284   2.913   2.900   0.979 -0.7544  1.0518 -0.3367
   85MOL   H43744285   2.738   2.962   0.832  2.3973 -0.6251  0.3577
   85MOL   H43844286   2.500   2.996   0.937 -0.4801 -2.2150 -0.9345
   85MOL   H43944287   2.466   2.966   1.180 -0.1838 -1.6346 -0.9784
   85MOL   H44044288   2.789   2.757   1.580  0.5298  1.3929 -0.0520
   85MOL   H44144289   3.035   2.749   1.617  0.8479  1.5882  0.8069
   85MOL   H44244290   3.190   2.810   1.424  0.7498  1.2002 -4.2285
   85MOL   H44344291   3.094   2.860   1.204  2.2744 -0.7973  1.5643
   85MOL   C44444292   2.523   2.718   1.505  0.4232  1.1702 -0.2233
   85MOL   C44544293   2.450   2.634   1.400  1.0019  0.6032  0.3878
   85MOL   N44644294   2.442   2.489   1.444 -0.1667  1.1226  0.3251
   85MOL   C44744295   2.501   2.379   1.382 -0.8776  0.0579 -1.0603
   85MOL   C44844296   2.477   2.258   1.455 -0.9112 -0.4703 -0.4460
   85MOL   C44944297   2.530   2.139   1.404 -0.5275 -0.2325 -0.5837
   85MOL   C45044298   2.604   2.137   1.283 -0.8367  0.5030  0.3051
   85MOL   C45144299   2.616   2.256   1.204  0.0298  0.6531 -0.1338
   85MOL   C45244300   2.566   2.373   1.259  0.7534  0.4167  0.4207
   85MOL   C45344301   2.398   2.300   1.566 -0.3115  0.4532 -0.4556
   85MOL   C45444302   2.383   2.438   1.563 -0.0597  0.1655 -0.4769
   85MOL   C45544303   2.311   2.509   1.662 -0.0916 -0.3160  0.2644
   85MOL   C45644304   2.262   2.439   1.771 -0.1081 -0.5948 -0.3872
   85MOL   C45744305   2.277   2.298   1.779  0.0621  0.1562 -0.4515
   85MOL   C45844306   2.347   2.226   1.675 -0.4405  0.3583 -0.1087
   85MOL   H45944307   2.619   2.669   1.521  0.1636  0.5674 -0.5111
   85MOL   H46044308   2.467   2.724   1.598 -0.5022  3.2908 -0.8961
   85MOL   H46144309   2.510   2.634   1.309 -1.1682  0.4258 -1.0773
   85MOL   H46244310   2.525   2.050   1.464 -1.4731  1.6117  2.1657
   85MOL   H46344311   2.644   2.043   1.246 -2.8037 -0.1343 -0.2706
   85MOL   H46444312   2.670   2.263   1.111  0.9963  2.2285  0.5294
   85MOL   H46544313   2.576   2.466   1.205  0.1631  0.1515 -0.1554
   85MOL   H46644314   2.288   2.614   1.652  1.8801  0.1675  0.6930
   85MOL   H46744315   2.208   2.494   1.847 -2.0412 -2.4446 -0.4002
   85MOL   H46844316   2.239   2.238   1.860  2.6793 -2.5367 -1.1251
   85MOL   H46944317   2.367   2.120   1.678  1.6605  0.6843 -1.5088
   85MOL   C47044318   2.305   2.679   1.351 -0.1664  0.4218 -0.9634
   85MOL   C47144319   2.262   2.606   1.223 -0.1404 -0.2645 -0.1987
   85MOL   N47244320   2.113   2.611   1.188 -0.3285 -0.1310 -0.1137
   85MOL   C47344321   2.022   2.508   1.221  0.7405  0.7014  1.1008
   85MOL   C47444322   1.892   2.546   1.182 -0.2735  0.3424 -0.2920
   85MOL   C47544323   1.789   2.451   1.192 -0.4298 -0.6364 -0.8155
   85MOL   C47644324   1.813   2.327   1.251  0.2210  0.3204  0.2948
   85MOL   C47744325   1.940   2.286   1.296 -0.2057  0.3979 -0.0516
   85MOL   C47844326   2.043   2.382   1.280 -0.3226  0.2764  0.9244
   85MOL   C47944327   1.908   2.672   1.119  1.0748 -0.1737  0.1855
   85MOL   C48044328   2.041   2.718   1.135 -0.3030 -0.1381 -0.3146
   85MOL   C48144329   2.079   2.850   1.097  0.1800  0.1644  0.0878
   85MOL   C48244330   1.994   2.932   1.017 -0.0441  0.4379  0.5355
   85MOL   C48344331   1.866   2.882   0.990  0.3212  0.0477 -0.1635
   85MOL   C48444332   1.824   2.753   1.036  0.7438 -0.0265  0.5544
   85MOL   H48544333   2.233   2.656   1.430  0.1472  0.0723 -0.7747
   85MOL   H48644334   2.292   2.785   1.331 -1.2009  0.4709 -0.1234
   85MOL   H48744335   2.282   2.500   1.240  1.6065  0.0183 -0.3755
   85MOL   H48844336   1.697   2.480   1.145 -0.9733 -2.1977 -0.7540
   85MOL   H48944337   1.733   2.255   1.260 -1.5048  2.2699  0.9874
   85MOL   H49044338   1.963   2.187   1.333 -0.8050  1.3968  3.0615
   85MOL   H49144339   2.143   2.355   1.310  0.6692 -0.1762 -2.6097
   85MOL   H49244340   2.177   2.886   1.124 -0.5106 -0.1366  3.1128
   85MOL   H49344341   2.020   3.030   0.982 -1.3526  0.4581 -0.4376
   85MOL   H49444342   1.802   2.948   0.932  0.9946 -0.2757 -1.2818
   85MOL   H49544343   1.725   2.709   1.029 -0.1831  2.2302 -1.3313
   85MOL   C49644344   2.344   2.648   1.101 -0.1393  0.1334 -0.0691
   85MOL   C49744345   2.303   2.589   0.965 -0.5511  0.2682 -0.0682
   85MOL   N49844346   2.397   2.625   0.856 -0.1069  0.1289 -0.1481
   85MOL   C49944347   2.392   2.739   0.789  0.1308 -0.1318  0.1899
   85MOL   C50044348   2.499   2.747   0.696 -0.1730 -0.2792 -1.3065
   85MOL   C50144349   2.511   2.868   0.625 -0.0391 -0.4959  0.2938
   85MOL   C50244350   2.414   2.969   0.632 -0.8540  0.1215 -0.0689
   85MOL   C50344351   2.304   2.959   0.720 -0.0036 -0.3962 -0.4839
   85MOL   C50444352   2.292   2.844   0.797 -0.1940  0.5471  0.2126
   85MOL   C50544353   2.577   2.632   0.718 -0.1456  0.4368  0.2015
   85MOL   C50644354   2.507   2.556   0.816  0.4575  0.2470  0.3431
   85MOL   C50744355   2.567   2.437   0.865 -0.1091 -0.6708 -0.4980
   85MOL   C50844356   2.688   2.393   0.818  0.9493 -0.2134  0.0639
   85MOL   C50944357   2.748   2.459   0.708  0.1161 -0.3322  0.1720
   85MOL   C51044358   2.693   2.578   0.656  0.6202  0.9873 -0.1172
   85MOL   H51144359   2.337   2.756   1.095  0.8931  0.1527 -1.1362
   85MOL   H51244360   2.449   2.624   1.117 -0.2679  1.0664  2.2989
   85MOL   H51344361   2.207   2.628   0.931 -0.9895  0.0757  0.9507
   85MOL   H51444362   2.594   2.892   0.559 -0.3067 -0.9026 -0.1950
   85MOL   H51544363   2.436   3.054   0.570  1.9805  0.2826  1.1010
   85MOL   H51644364   2.231   3.038   0.733  1.9099  1.2803  0.3859
   85MOL   H51744365   2.207   2.831   0.863 -0.4693 -2.2181 -0.6165
   85MOL   H51844366   2.520   2.382   0.945  1.1077  1.4216  1.7361
   85MOL   H51944367   2.738   2.304   0.852  1.5492  0.3421  0.6520
   85MOL   H52044368   2.837   2.409   0.673 -0.3970 -1.9167  1.1039
   85MOL   H52144369   2.742   2.633   0.577  1.9644 -1.1273 -0.7943
   85MOL   H52244370   2.308   2.481   0.974 -0.0424  0.2741 -0.2631
   86MOL     C144371   7.083   5.696   5.920 -0.0632 -0.1086 -0.1068
   86MOL     C244372   7.103   5.808   6.030 -0.1681  0.4949 -0.6614
   86MOL     N344373   7.235   5.795   6.096 -0.0830 -0.1876  0.8071
   86MOL     C444374   7.260   5.763   6.234 -0.2724 -0.1174 -0.0930
   86MOL     C544375   7.400   5.757   6.253 -0.3856 -0.8422  0.9179
   86MOL     C644376   7.452   5.719   6.377  0.1361  0.2845 -0.0295
   86MOL     C744377   7.368   5.691   6.484  0.0985  0.3870 -0.4058
   86MOL     C844378   7.226   5.708   6.469 -0.4308 -0.6876  0.1418
   86MOL     C944379   7.172   5.734   6.343  0.2836  0.2524  0.2686
   86MOL    C1044380   7.468   5.793   6.126 -0.2676 -0.3143  0.6530
   86MOL    C1144381   7.359   5.805   6.034  0.2287 -0.3204 -0.7337
   86MOL    C1244382   7.390   5.834   5.901 -0.6742 -0.7419  0.3763
   86MOL    C1344383   7.523   5.853   5.856 -0.1722  0.3598 -0.0811
   86MOL    C1444384   7.621   5.845   5.949 -0.3323 -0.5516 -0.7242
   86MOL    C1544385   7.599   5.818   6.085 -0.3421  0.6284  0.1237
   86MOL    H1644386   6.976   5.693   5.900 -0.4275 -0.2339  1.7691
   86MOL    H1744387   7.102   5.594   5.952  0.8003 -0.4789 -1.7735
   86MOL    H1844388   7.034   5.777   6.108 -0.2970  0.3163 -0.8454
   86MOL    H1944389   7.559   5.709   6.382  0.0691  0.2079  1.6167
   86MOL    H2044390   7.405   5.664   6.582 -1.7519  2.0216  0.7992
   86MOL    H2144391   7.155   5.685   6.548 -0.6488  0.0137  0.1585
   86MOL    H2244392   7.067   5.753   6.327 -0.2492 -2.7979 -0.0368
   86MOL    H2344393   7.311   5.842   5.828  1.5798  1.4291 -1.9137
   86MOL    H2444394   7.537   5.865   5.749  0.1551 -1.6716 -0.2913
   86MOL    H2544395   7.723   5.858   5.917 -0.6457  2.4366 -0.6881
   86MOL    H2644396   7.679   5.807   6.157 -1.1689 -1.7775  0.7381
   86MOL    H2744397   7.131   5.712   5.824  0.5398  0.5159  0.2922
   86MOL    C2844398   7.051   5.953   6.000 -0.2767  0.4649 -0.7557
   86MOL    C2944399   6.975   6.031   6.113  0.0558  0.1701  0.7149
   86MOL    N3044400   7.052   6.064   6.234  0.0095 -0.2219 -0.8746
   86MOL    C3144401   7.188   6.106   6.248 -1.0000 -0.4532  0.7352
   86MOL    C3244402   7.224   6.099   6.386  1.0165 -0.6635  0.7692
   86MOL    C3344403   7.351   6.139   6.417  0.2482  0.1559 -0.0730
   86MOL    C3444404   7.449   6.181   6.322  0.3411  0.3488 -0.2534
   86MOL    C3544405   7.419   6.178   6.183  0.2390  0.4429  0.3188
   86MOL    C3644406   7.290   6.139   6.148  0.1355 -0.0858  0.6059
   86MOL    C3744407   7.109   6.051   6.457  0.1906 -0.3120  0.0754
   86MOL    C3844408   7.006   6.030   6.366 -0.6974 -0.0463  0.5006
   86MOL    C3944409   6.879   5.980   6.404 -0.0045  0.5176 -0.2489
   86MOL    C4044410   6.857   5.946   6.539  0.0450 -0.1772 -0.1056
   86MOL    C4144411   6.961   5.967   6.632  0.2734 -0.1784  0.2400
   86MOL    C4244412   7.088   6.016   6.595 -0.0702  0.4896 -0.2883
   86MOL    H4344413   7.137   6.005   5.958 -0.4219  0.8353 -0.5929
   86MOL    H4444414   6.981   5.947   5.916 -1.5823  0.0071  0.3549
   86MOL    H4544415   6.899   5.962   6.149 -1.2704  1.2415 -0.0257
   86MOL    H4644416   7.389   6.131   6.517 -0.8649 -2.3419  0.1882
   86MOL    H4744417   7.550   6.202   6.355 -0.3312  0.5189  1.7930
   86MOL    H4844418   7.496   6.195   6.109  1.3403 -2.2632  0.7813
   86MOL    H4944419   7.273   6.145   6.042 -1.1112 -0.2295  0.7889
   86MOL    H5044420   6.800   5.959   6.333 -1.0848 -1.6057  1.5369
   86MOL    H5144421   6.764   5.898   6.565 -1.3311  1.2033 -2.3753
   86MOL    H5244422   6.952   5.942   6.737  3.0558 -1.7413  0.1631
   86MOL    H5344423   7.169   6.026   6.665  1.5996  0.6330 -2.2231
   86MOL    C5444424   6.899   6.152   6.051  0.4258 -0.2313  0.0787
   86MOL    C5544425   6.755   6.111   5.990 -0.5767 -0.0034  0.2736
   86MOL    N5644426   6.656   6.094   6.092 -0.6036  0.0423  0.1125
   86MOL    C5744427   6.614   5.969   6.148  0.1097 -0.0146  0.2091
   86MOL    C5844428   6.524   5.994   6.257  0.2392 -0.5461 -0.1845
   86MOL    C5944429   6.457   5.885   6.321 -0.3785  0.8246  0.5804
   86MOL    C6044430   6.493   5.754   6.288  0.5680 -0.8445 -0.6324
   86MOL    C6144431   6.587   5.734   6.182  0.3772  0.3412 -0.2546
   86MOL    C6244432   6.649   5.838   6.114  0.3313  0.1840 -0.1932
   86MOL    C6344433   6.520   6.138   6.273  0.0162  0.0957 -0.3012
   86MOL    C6444434   6.608   6.194   6.181  0.5173 -0.2932 -0.1860
   86MOL    C6544435   6.624   6.335   6.181  0.7131 -0.0016 -0.2633
   86MOL    C6644436   6.557   6.414   6.272  0.3800  0.6139  0.0268
   86MOL    C6744437   6.467   6.360   6.361 -0.1786  0.0267 -0.7972
   86MOL    C6844438   6.443   6.218   6.360  0.4797  0.3687  0.3383
   86MOL    H6944439   6.889   6.226   6.130  2.3381 -0.9949  1.0581
   86MOL    H7044440   6.967   6.204   5.983  1.9467 -1.6244  0.5032
   86MOL    H7144441   6.768   6.014   5.944  0.3652  0.6983 -0.9734
   86MOL    H7244442   6.385   5.910   6.397 -1.1139  1.2292 -0.2277
   86MOL    H7344443   6.448   5.669   6.337 -1.2638 -1.4462 -3.2087
   86MOL    H7444444   6.629   5.639   6.152  0.4477 -0.2702  1.6847
   86MOL    H7544445   6.725   5.817   6.040 -0.3980 -1.6893 -0.4502
   86MOL    H7644446   6.692   6.374   6.107  0.3562  0.0113 -0.5878
   86MOL    H7744447   6.573   6.520   6.276  1.0012  0.5160  0.2643
   86MOL    H7844448   6.407   6.425   6.424 -1.3307 -0.5269 -1.2937
   86MOL    H7944449   6.360   6.181   6.418  0.2457 -2.3715 -1.6078
   86MOL    C8044450   6.699   6.202   5.879  0.1621  0.4659  0.2398
   86MOL    C8144451   6.773   6.203   5.742 -0.1631  0.8625 -0.1363
   86MOL    N8244452   6.809   6.072   5.694 -0.3167  0.8857 -0.0998
   86MOL    C8344453   6.935   6.040   5.638  0.0205  0.0183  1.0873
   86MOL    C8444454   6.930   5.903   5.590  0.0120  0.0793  0.1317
   86MOL    C8544455   7.046   5.848   5.535 -0.1639  0.2538  0.1863
   86MOL    C8644456   7.169   5.923   5.518  0.4819 -0.1870  1.0123
   86MOL    C8744457   7.167   6.056   5.544  0.0140 -0.2914 -0.3234
   86MOL    C8844458   7.056   6.111   5.614 -0.1524 -0.3978  0.1492
   86MOL    C8944459   6.802   5.852   5.619 -0.3009 -0.3348  0.3637
   86MOL    C9044460   6.726   5.955   5.668  0.4246  0.4452 -0.3482
   86MOL    C9144461   6.590   5.936   5.696  0.2145 -0.1304 -0.5228
   86MOL    C9244462   6.527   5.814   5.668  0.3140 -0.5662  0.2743
   86MOL    C9344463   6.603   5.702   5.629  0.2548 -0.1224 -0.7009
   86MOL    C9444464   6.743   5.721   5.606  0.9079  0.2518 -0.5318
   86MOL    H9544465   6.591   6.192   5.869 -0.0719  2.5387  0.5745
   86MOL    H9644466   6.720   6.301   5.919  1.1106  0.7237 -0.8623
   86MOL    H9744467   6.864   6.262   5.733 -0.3074  0.6309 -4.1945
   86MOL    H9844468   7.044   5.743   5.510  2.5262  0.0823  0.5932
   86MOL    H9944469   7.253   5.884   5.464  0.2558 -0.4340  0.8369
   86MOL   H10044470   7.262   6.107   5.533 -0.5255  1.1384  1.4104
   86MOL   H10144471   7.054   6.217   5.631 -3.5733 -0.2900 -0.6291
   86MOL   H10244472   6.540   6.023   5.734  0.8598  0.9192 -2.0038
   86MOL   H10344473   6.423   5.804   5.695  0.4083 -0.9047  0.5103
   86MOL   H10444474   6.554   5.606   5.618 -0.6040  0.0142  1.6345
   86MOL   H10544475   6.803   5.636   5.576  0.8145 -0.3999  1.1041
   86MOL   C10644476   6.688   6.281   5.636  0.9143  0.1194  0.7781
   86MOL   C10744477   6.674   6.428   5.673  1.1260  0.1847  0.3283
   86MOL   N10844478   6.802   6.487   5.713  0.7342 -0.0795  0.0472
   86MOL   C10944479   6.838   6.544   5.835  0.1608 -0.1530  0.0108
   86MOL   C11044480   6.980   6.569   5.834  0.0674  0.1423 -0.5127
   86MOL   C11144481   7.040   6.602   5.961 -0.0975  0.2986 -0.5057
   86MOL   C11244482   6.962   6.619   6.074  0.4242 -0.0843  0.0905
   86MOL   C11344483   6.819   6.607   6.071 -0.8889  0.4544  0.1983
   86MOL   C11444484   6.760   6.572   5.953  0.0479  0.5644  0.3147
   86MOL   C11544485   7.027   6.546   5.700  0.5293 -0.0078  0.1502
   86MOL   C11644486   6.911   6.499   5.625  0.8493 -0.4226 -0.2416
   86MOL   C11744487   6.929   6.464   5.488  0.0468  0.5167 -0.7502
   86MOL   C11844488   7.054   6.480   5.425 -0.7750  0.6931 -0.3228
   86MOL   C11944489   7.167   6.524   5.497 -0.1368  0.9951 -0.6845
   86MOL   C12044490   7.148   6.559   5.636 -0.3892  0.9205  0.7768
   86MOL   H12144491   6.752   6.280   5.548  1.0963  2.3800  0.8612
   86MOL   H12244492   6.589   6.234   5.636  0.6713  0.5234  3.2332
   86MOL   H12344493   6.612   6.425   5.763  0.3183  2.1324 -0.1252
   86MOL   H12444494   7.148   6.601   5.958 -0.1116  1.8396 -2.1833
   86MOL   H12544495   7.018   6.647   6.162  0.2133 -0.9042  0.4970
   86MOL   H12644496   6.764   6.616   6.163  1.0064 -0.7722  1.4882
   86MOL   H12744497   6.658   6.537   5.952  0.5216 -0.8537 -1.5553
   86MOL   H12844498   6.847   6.434   5.424  0.5837  0.3871 -1.3951
   86MOL   H12944499   7.072   6.450   5.323 -0.2985  0.6848 -0.2409
   86MOL   H13044500   7.265   6.531   5.451 -1.0476 -0.5933 -2.9164
   86MOL   H13144501   7.230   6.599   5.693  0.5393  1.2591 -0.7488
   86MOL   C13244502   6.608   6.513   5.564 -0.0215  0.4029 -0.2178
   86MOL   C13344503   6.460   6.470   5.511 -0.0734 -0.7018  0.2832
   86MOL   N13444504   6.369   6.424   5.619  0.4310  0.5525  0.2387
   86MOL   C13544505   6.306   6.300   5.626  0.8228  0.2090  0.2849
   86MOL   C13644506   6.219   6.301   5.738 -0.2896  0.7451  0.0731
   86MOL   C13744507   6.145   6.187   5.775  1.2603 -0.5285  0.7735
   86MOL   C13844508   6.172   6.068   5.701  0.5001  0.6519  0.1302
   86MOL   C13944509   6.264   6.057   5.590  0.0013  0.6045 -0.0415
   86MOL   C14044510   6.321   6.176   5.550  0.0416  0.1755 -0.0923
   86MOL   C14144511   6.225   6.434   5.797  0.5799 -0.2659  0.2699
   86MOL   C14244512   6.318   6.503   5.722 -0.0051 -0.2955  0.5450
   86MOL   C14344513   6.347   6.640   5.751 -0.1152 -0.0767 -0.0289
   86MOL   C14444514   6.289   6.697   5.862 -0.4776  0.1866  0.2175
   86MOL   C14544515   6.203   6.627   5.953 -0.1542  0.2078  0.3289
   86MOL   C14644516   6.171   6.496   5.915 -0.3426 -0.3553  0.1343
   86MOL   H14744517   6.600   6.614   5.602 -0.9329 -0.2948  1.4881
   86MOL   H14844518   6.665   6.533   5.473  0.1236  0.0174 -0.2134
   86MOL   H14944519   6.477   6.391   5.438 -0.9806  0.5353 -1.2997
   86MOL   H15044520   6.075   6.186   5.856 -0.3880 -1.3227 -0.6205
   86MOL   H15144521   6.119   5.978   5.732 -1.1299  2.5253  3.0581
   86MOL   H15244522   6.281   5.969   5.530  1.7067  1.4850 -0.8947
   86MOL   H15344523   6.388   6.167   5.465  0.4360 -0.7950  0.3097
   86MOL   H15444524   6.413   6.707   5.698 -0.1983 -0.4694 -0.6373
   86MOL   H15544525   6.322   6.796   5.890  0.1569  0.2005 -0.5845
   86MOL   H15644526   6.167   6.685   6.037 -1.3812  0.1003 -0.1234
   86MOL   H15744527   6.096   6.445   5.974  0.6442 -1.5456  0.3728
   86MOL   C15844528   6.399   6.581   5.416 -0.5016  0.6113  0.5199
   86MOL   C15944529   6.269   6.550   5.336 -0.2784 -0.1903 -0.7384
   86MOL   N16044530   6.157   6.613   5.409  0.5094 -0.4293 -0.0844
   86MOL   C16144531   6.052   6.557   5.475 -0.8087  0.5649  0.2293
   86MOL   C16244532   5.967   6.649   5.540  0.6592  0.1248 -0.3967
   86MOL   C16344533   5.850   6.601   5.605  0.2628  0.6318  0.2502
   86MOL   C16444534   5.826   6.462   5.615  0.2140 -0.2842 -0.2460
   86MOL   C16544535   5.913   6.369   5.556  0.4527  0.6457 -0.1958
   86MOL   C16644536   6.019   6.420   5.484  0.2868  0.4633  0.5008
   86MOL   C16744537   6.026   6.780   5.512  0.1024 -0.0054  0.0212
   86MOL   C16844538   6.143   6.755   5.429 -0.1760  0.1163 -0.1968
   86MOL   C16944539   6.221   6.865   5.385 -0.1244  1.2543 -0.3982
   86MOL   C17044540   6.184   6.993   5.429 -0.3904  0.1324  0.5625
   86MOL   C17144541   6.068   7.020   5.498 -0.4955  0.2632 -0.9298
   86MOL   C17244542   5.990   6.911   5.541  0.7610 -0.3284  0.0409
   86MOL   H17344543   6.378   6.670   5.475 -0.1263  1.7177 -0.9934
   86MOL   H17444544   6.481   6.618   5.355 -0.8427  0.2247 -0.1737
   86MOL   H17544545   6.258   6.443   5.353  1.1797 -0.2713 -0.1809
   86MOL   H17644546   5.787   6.672   5.656 -1.0813 -0.8761  0.7618
   86MOL   H17744547   5.746   6.430   5.680 -0.3151  0.1117 -0.7036
   86MOL   H17844548   5.892   6.263   5.560 -0.2505  0.7856 -0.1412
   86MOL   H17944549   6.078   6.353   5.423  0.0770 -1.8377  2.7612
   86MOL   H18044550   6.311   6.843   5.330  0.7281  1.0570  1.0640
   86MOL   H18144551   6.244   7.077   5.398 -3.0124  1.2669 -1.7102
   86MOL   H18244552   6.038   7.121   5.521  0.0935  0.3002 -0.2969
   86MOL   H18344553   5.900   6.931   5.598 -0.0069  1.3785 -1.7243
   86MOL   C18444554   6.278   6.591   5.188  0.0437 -0.5733 -0.0368
   86MOL   C18544555   6.381   6.518   5.104  0.0653 -0.5173  0.3001
   86MOL   N18644556   6.401   6.374   5.144 -0.0382 -0.1919  0.1287
   86MOL   C18744557   6.526   6.314   5.171  0.6557  0.5958  0.5700
   86MOL   C18844558   6.499   6.180   5.212  0.4014  0.0634 -0.1466
   86MOL   C18944559   6.604   6.108   5.272  0.4519  0.4603 -0.6275
   86MOL   C19044560   6.738   6.155   5.271  1.0449  0.4454  0.0005
   86MOL   C19144561   6.767   6.284   5.220  0.4159  0.5603 -0.7561
   86MOL   C19244562   6.658   6.363   5.168  0.3979  0.5467  0.5532
   86MOL   C19344563   6.362   6.158   5.199  0.4788  0.2685 -0.7350
   86MOL   C19444564   6.297   6.278   5.165  0.2508  0.3700  0.7979
   86MOL   C19544565   6.157   6.286   5.153 -0.3614 -0.0792 -0.0330
   86MOL   C19644566   6.085   6.167   5.173 -0.3076 -0.2451 -0.0492
   86MOL   C19744567   6.144   6.047   5.211 -0.0963 -0.2310  0.0779
   86MOL   C19844568   6.283   6.042   5.218 -0.4931 -0.1981 -0.8498
   86MOL   H19944569   6.180   6.563   5.149  0.1437 -0.3675 -0.4342
   86MOL   H20044570   6.275   6.700   5.178  0.1194 -0.6702 -1.1790
   86MOL   H20144571   6.475   6.571   5.116 -0.8240  1.3928 -0.9116
   86MOL   H20244572   6.572   6.019   5.324 -0.7238  2.7840  2.7926
   86MOL   H20344573   6.815   6.096   5.318  0.5702  0.0948  0.3483
   86MOL   H20444574   6.867   6.324   5.225 -0.1659  1.9661 -0.0861
   86MOL   H20544575   6.682   6.463   5.134  0.3390  0.2591 -0.3512
   86MOL   H20644576   6.107   6.375   5.117  0.7810  1.0068  1.0321
   86MOL   H20744577   5.978   6.162   5.161 -0.4867  0.0903  1.3146
   86MOL   H20844578   6.079   5.961   5.218  0.8809 -0.7965  2.7695
   86MOL   H20944579   6.328   5.955   5.264 -0.6892  0.3491  0.4263
   86MOL   C21044580   6.346   6.535   4.956  0.0762  0.2539 -0.5714
   86MOL   C21144581   6.362   6.684   4.900  0.2160  0.6058  0.1989
   86MOL   N21244582   6.500   6.729   4.915  0.3106 -0.2001  0.2853
   86MOL   C21344583   6.538   6.846   4.987 -0.3872  0.2256 -0.4415
   86MOL   C21444584   6.681   6.847   4.994 -0.2276  0.9505  0.5583
   86MOL   C21544585   6.745   6.945   5.077 -0.4464  0.0367  0.4656
   86MOL   C21644586   6.670   7.041   5.142 -0.3752  0.1431 -0.1268
   86MOL   C21744587   6.528   7.037   5.141 -0.6753  0.0391  0.6993
   86MOL   C21844588   6.464   6.940   5.061  0.2898 -0.2973  0.5870
   86MOL   C21944589   6.731   6.737   4.916  0.0329  0.0240  0.2267
   86MOL   C22044590   6.616   6.671   4.869 -0.0206  0.6638 -0.0396
   86MOL   C22144591   6.630   6.558   4.787 -0.1438  0.1121  0.4023
   86MOL   C22244592   6.761   6.506   4.757  0.1275  0.6327 -0.4529
   86MOL   C22344593   6.877   6.568   4.804  0.7530 -0.5903 -0.0482
   86MOL   C22444594   6.865   6.687   4.884 -0.5274 -0.0699  0.4043
   86MOL   H22544595   6.401   6.464   4.894  1.6269  1.1815 -0.2700
   86MOL   H22644596   6.248   6.491   4.934  0.1875  0.3245 -1.2187
   86MOL   H22744597   6.300   6.745   4.965 -0.9683  0.5176 -0.8210
   86MOL   H22844598   6.853   6.954   5.076 -0.4507  0.1440 -2.0428
   86MOL   H22944599   6.721   7.113   5.204 -1.1796 -0.3481  1.1338
   86MOL   H23044600   6.468   7.111   5.191 -1.6261 -1.8999  2.5052
   86MOL   H23144601   6.356   6.937   5.052  0.2703  0.3915  0.5452
   86MOL   H23244602   6.545   6.507   4.745  0.4160 -1.4020  1.0782
   86MOL   H23344603   6.772   6.422   4.690 -0.2595 -0.5198  0.8910
   86MOL   H23444604   6.976   6.533   4.775  1.6504  2.1904 -0.5462
   86MOL   H23544605   6.955   6.740   4.909  0.5422 -2.5117  1.9519
   86MOL   C23644606   6.306   6.709   4.757  0.3283  0.0213  0.0700
   86MOL   C23744607   6.157   6.674   4.707  0.6368  0.5223 -0.9219
   86MOL   N23844608   6.057   6.677   4.814  0.2215  0.5697  0.0862
   86MOL   C23944609   5.968   6.572   4.841  0.0212  0.1151 -0.2479
   86MOL   C24044610   5.906   6.587   4.969 -0.7275  0.3544  0.3777
   86MOL   C24144611   5.822   6.485   5.016  0.2389  0.6799 -0.1695
   86MOL   C24244612   5.818   6.359   4.944 -0.1729 -0.1916 -0.7466
   86MOL   C24344613   5.871   6.351   4.812 -0.2440 -0.4799 -0.5014
   86MOL   C24444614   5.937   6.462   4.759 -0.0531  0.0860 -0.4751
   86MOL   C24544615   5.947   6.714   5.015 -0.0193 -0.2259 -0.2576
   86MOL   C24644616   6.035   6.767   4.914  0.1429  0.4414 -0.2971
   86MOL   C24744617   6.081   6.899   4.921 -0.1065 -0.1665  0.1526
   86MOL   C24844618   6.034   6.980   5.025 -0.0708 -0.2279 -0.6768
   86MOL   C24944619   5.952   6.927   5.127  0.4562  0.1918  0.4281
   86MOL   C25044620   5.909   6.795   5.121  0.1504 -1.1740  0.7397
   86MOL   H25144621   6.317   6.815   4.736 -1.9184 -0.2087 -2.4741
   86MOL   H25244622   6.361   6.659   4.678 -0.6473 -0.3868 -0.3616
   86MOL   H25344623   6.167   6.574   4.666  0.6646  0.7796 -1.5588
   86MOL   H25444624   5.779   6.493   5.114  0.9612  3.4441 -0.0437
   86MOL   H25544625   5.760   6.279   4.990  1.0509  1.4316  3.9157
   86MOL   H25644626   5.858   6.257   4.761  0.1679 -0.2462 -1.0332
   86MOL   H25744627   5.975   6.456   4.658 -0.5433  1.4544 -0.7543
   86MOL   H25844628   6.134   6.947   4.839 -0.9911  1.1764  0.3464
   86MOL   H25944629   6.064   7.084   5.018 -3.2044  0.7513 -0.1275
   86MOL   H26044630   5.919   6.985   5.212 -0.8059  2.3904 -1.5016
   86MOL   H26144631   5.837   6.756   5.192  0.8613 -3.3029  0.3082
   86MOL   C26244632   6.109   6.770   4.601 -0.0446  0.2148  0.2674
   86MOL   C26344633   6.196   6.765   4.466  0.2220  0.8123 -0.2665
   86MOL   N26444634   6.225   6.634   4.416  0.1857 -0.3899 -0.1504
   86MOL   C26544635   6.358   6.586   4.392  0.5731 -0.2219 -0.0338
   86MOL   C26644636   6.343   6.452   4.360 -0.1870  0.8478  0.0677
   86MOL   C26744637   6.467   6.380   4.340  0.4095  0.3749  0.4481
   86MOL   C26844638   6.594   6.434   4.358 -0.1794  0.2031  0.2830
   86MOL   C26944639   6.602   6.568   4.386  0.1783  0.2914  0.1109
   86MOL   C27044640   6.489   6.642   4.407 -0.0930  1.1000 -0.0839
   86MOL   C27144641   6.203   6.422   4.348 -0.1521 -0.3945 -0.7634
   86MOL   C27244642   6.131   6.535   4.387  0.3714 -0.0558  0.4004
   86MOL   C27344643   5.991   6.542   4.379 -0.0175 -0.1972  0.6927
   86MOL   C27444644   5.921   6.430   4.328  0.0015  0.1048  1.1558
   86MOL   C27544645   5.995   6.315   4.293  0.4495 -0.5438 -0.0755
   86MOL   C27644646   6.132   6.308   4.297 -0.2018 -0.1057 -0.3623
   86MOL   H27744647   6.008   6.739   4.574  0.6936 -1.7154 -0.3601
   86MOL   H27844648   6.100   6.875   4.628  2.3548  0.2763  1.0086
   86MOL   H27944649   6.296   6.796   4.494  0.8317 -1.6337  0.3767
   86MOL   H28044650   6.456   6.280   4.301  0.8882  0.1409  0.9145
   86MOL   H28144651   6.683   6.372   4.360 -0.6799 -0.5522 -0.7481
   86MOL   H28244652   6.694   6.618   4.414  1.1845 -1.1192 -0.5985
   86MOL   H28344653   6.500   6.746   4.434  0.9237  0.5176  1.8247
   86MOL   H28444654   5.938   6.629   4.414  0.8964  0.6142  0.0576
   86MOL   H28544655   5.813   6.433   4.332 -0.0599 -0.7356  0.3890
   86MOL   H28644656   5.946   6.235   4.240 -0.8592  0.2880 -0.1635
   86MOL   H28744657   6.186   6.223   4.259 -0.4979  0.4587 -2.1036
   86MOL   C28844658   6.142   6.863   4.355 -0.2218  1.3861 -0.2626
   86MOL   C28944659   6.148   7.013   4.387 -0.1204 -0.7031 -0.5053
   86MOL   N29044660   6.283   7.051   4.429  0.2910  0.9088 -0.1641
   86MOL   C29144661   6.314   7.089   4.559 -0.2348  0.2873  0.3068
   86MOL   C29244662   6.455   7.093   4.569  0.0044 -0.1398  0.1507
   86MOL   C29344663   6.515   7.116   4.699  0.3530  0.2065  1.1091
   86MOL   C29444664   6.435   7.139   4.806  0.8087  0.2771 -0.2997
   86MOL   C29544665   6.297   7.152   4.800  0.7427 -0.5201 -0.4858
   86MOL   C29644666   6.234   7.115   4.679  0.4991 -0.0795 -0.4058
   86MOL   C29744667   6.507   7.082   4.435 -0.1639 -0.0068  0.5883
   86MOL   C29844668   6.399   7.052   4.349 -0.0872 -0.3576  0.1595
   86MOL   C29944669   6.415   7.029   4.211  0.6547  0.4681  0.0705
   86MOL   C30044670   6.543   7.047   4.158  0.7088 -0.1559  0.2191
   86MOL   C30144671   6.649   7.089   4.238 -0.1605  0.6622 -0.4369
   86MOL   C30244672   6.635   7.104   4.377  0.2571 -0.1234  0.6495
   86MOL   H30344673   6.205   6.858   4.266 -0.1667  1.6654 -0.2374
   86MOL   H30444674   6.040   6.835   4.330 -0.2439  2.2863 -1.2090
   86MOL   H30544675   6.084   7.031   4.474  2.3947  2.4647  0.8247
   86MOL   H30644676   6.623   7.120   4.704  0.5517  1.2073 -2.4654
   86MOL   H30744677   6.483   7.167   4.899  1.8240 -0.9015 -0.4525
   86MOL   H30844678   6.234   7.176   4.884 -0.4973 -0.9363 -1.2822
   86MOL   H30944679   6.127   7.111   4.666  0.5229  1.2731 -1.1397
   86MOL   H31044680   6.330   6.995   4.155  0.1792  2.7268 -0.6335
   86MOL   H31144681   6.562   7.020   4.056 -0.2963  2.1086 -0.5970
   86MOL   H31244682   6.751   7.108   4.207 -0.1901  0.4212 -0.6822
   86MOL   H31344683   6.719   7.134   4.436  1.2621 -0.9874 -0.3102
   86MOL   C31444684   6.086   7.101   4.278 -0.3838  1.0935 -0.5860
   86MOL   C31544685   6.082   7.255   4.311 -0.5587  1.0452 -0.2996
   86MOL   N31644686   6.200   7.320   4.259  0.2396 -0.6224 -0.1937
   86MOL   C31744687   6.268   7.418   4.334 -0.0341  0.2546 -0.7029
   86MOL   C31844688   6.380   7.467   4.266 -0.2273  0.1928  0.1628
   86MOL   C31944689   6.476   7.553   4.335 -0.0111 -0.2021  0.3038
   86MOL   C32044690   6.452   7.594   4.466 -0.4738 -0.2459  0.1557
   86MOL   C32144691   6.334   7.555   4.528  0.2143  0.8529 -0.4022
   86MOL   C32244692   6.245   7.465   4.466  0.3125 -0.0153  0.1138
   86MOL   C32344693   6.374   7.414   4.133 -0.2977  0.2607 -0.2515
   86MOL   C32444694   6.258   7.324   4.128  0.1185 -0.4430 -0.1956
   86MOL   C32544695   6.224   7.264   3.999  0.5072 -0.8845 -0.4210
   86MOL   C32644696   6.305   7.289   3.886 -0.7571 -0.2637  0.4157
   86MOL   C32744697   6.430   7.348   3.903  0.5707  0.2493 -0.4614
   86MOL   C32844698   6.461   7.417   4.019  0.4046  0.7563  0.5409
   86MOL   H32944699   6.140   7.079   4.186  0.4834 -3.5227  0.8514
   86MOL   H33044700   5.994   7.050   4.253 -0.4231  1.4182 -1.1081
   86MOL   H33144701   6.074   7.261   4.419 -1.9983 -1.2826 -0.2260
   86MOL   H33244702   6.561   7.600   4.289 -0.4544  1.2971  1.0028
   86MOL   H33344703   6.527   7.662   4.504 -1.4510  0.4443  0.8748
   86MOL   H33444704   6.313   7.590   4.627  3.2313 -1.0320  0.9911
   86MOL   H33544705   6.155   7.435   4.519  0.9249 -3.0959 -0.4874
   86MOL   H33644706   6.135   7.202   3.992 -1.1297  1.2098  1.1971
   86MOL   H33744707   6.280   7.247   3.790 -0.7646 -0.2715  0.4211
   86MOL   H33844708   6.498   7.352   3.820  1.2023  1.5795  0.1102
   86MOL   H33944709   6.549   7.479   4.017  1.5262 -0.8164 -1.9019
   86MOL   C34044710   5.956   7.326   4.263  0.8549  0.0935 -1.3055
   86MOL   C34144711   5.819   7.250   4.278 -0.3892 -0.1771 -0.1871
   86MOL   N34244712   5.815   7.165   4.401 -0.7707 -0.5325 -0.1459
   86MOL   C34344713   5.776   7.030   4.418 -0.5357 -0.7023 -0.0713
   86MOL   C34444714   5.780   6.998   4.557 -0.5289  0.5127 -0.4909
   86MOL   C34544715   5.749   6.866   4.599  0.5612 -1.0178 -0.1133
   86MOL   C34644716   5.714   6.769   4.512  0.0986  0.5037 -0.7566
   86MOL   C34744717   5.695   6.798   4.377  0.3696 -0.1676 -0.4912
   86MOL   C34844718   5.736   6.923   4.330  0.5203 -0.0610 -0.1498
   86MOL   C34944719   5.803   7.117   4.630 -0.1416 -0.2690  0.4821
   86MOL   C35044720   5.816   7.220   4.532  0.1554 -0.9783 -0.2570
   86MOL   C35144721   5.831   7.354   4.579  0.3093  1.0556 -0.3757
   86MOL   C35244722   5.831   7.389   4.717  0.2910 -0.5000 -0.5068
   86MOL   C35344723   5.817   7.289   4.812 -0.6248  0.6217 -0.1018
   86MOL   C35444724   5.810   7.154   4.772 -0.1145 -0.0305  0.0506
   86MOL   H35544725   5.936   7.423   4.309  2.3449 -0.7395  1.1783
   86MOL   H35644726   5.964   7.358   4.159  1.7522 -0.3968 -1.3911
   86MOL   H35744727   5.819   7.180   4.194 -0.0424 -2.6303  1.8157
   86MOL   H35844728   5.743   6.855   4.706 -2.2925 -0.8059 -0.2172
   86MOL   H35944729   5.690   6.670   4.546  2.2385  0.3845  0.5075
   86MOL   H36044730   5.650   6.724   4.312 -0.2361 -1.7120  1.6513
   86MOL   H36144731   5.720   6.943   4.226 -0.7809  1.3019  0.2954
   86MOL   H36244732   5.852   7.437   4.514  0.4441  1.4003  0.1030
   86MOL   H36344733   5.877   7.485   4.733  2.1774 -1.2707 -1.1975
   86MOL   H36444734   5.826   7.328   4.912  1.3728  2.8088 -1.0825
   86MOL   H36544735   5.802   7.077   4.848  0.2091  0.6948  0.8341
   86MOL   C36644736   5.693   7.333   4.258  0.4710  0.2430  0.5136
   86MOL   C36744737   5.671   7.393   4.121 -0.3616  0.1912  0.3343
   86MOL   N36844738   5.713   7.314   4.013  0.6096  0.1865 -0.4758
   86MOL   C36944739   5.821   7.342   3.923 -0.1466  0.5577  0.7294
   86MOL   C37044740   5.814   7.256   3.808 -0.1392 -0.5105 -0.2878
   86MOL   C37144741   5.900   7.262   3.697 -0.0856 -0.3837  0.2402
   86MOL   C37244742   5.992   7.374   3.694 -0.2309  0.8971  0.2171
   86MOL   C37344743   5.999   7.464   3.804  0.4641 -0.3673  0.6071
   86MOL   C37444744   5.912   7.450   3.913 -0.3806  0.2948  0.3928
   86MOL   C37544745   5.708   7.164   3.839  0.7494  0.6026 -0.5912
   86MOL   C37644746   5.653   7.198   3.965  0.1663 -0.2988 -0.0855
   86MOL   C37744747   5.549   7.115   4.013  0.2147 -0.1077 -0.4566
   86MOL   C37844748   5.507   7.001   3.950  0.5102  0.8132 -0.4834
   86MOL   C37944749   5.570   6.960   3.835 -0.1370  0.0927  0.7228
   86MOL   C38044750   5.668   7.046   3.782 -0.5942 -0.5344  0.4416
   86MOL   H38144751   5.605   7.269   4.267  0.8784 -0.4016 -0.0207
   86MOL   H38244752   5.684   7.405   4.339 -0.1235 -0.0234  0.6844
   86MOL   H38344753   5.735   7.480   4.106  0.1210  0.3696  3.1094
   86MOL   H38444754   5.886   7.191   3.616 -0.6539  2.2427 -2.0380
   86MOL   H38544755   6.052   7.397   3.607  0.1371  2.6883  0.9147
   86MOL   H38644756   6.064   7.550   3.795 -0.3131  0.3349  1.5978
   86MOL   H38744757   5.907   7.534   3.981 -0.3195  0.4944  0.1505
   86MOL   H38844758   5.495   7.145   4.102  2.1016  0.3638  0.5545
   86MOL   H38944759   5.430   6.939   3.993 -0.8298  1.6307 -1.6590
   86MOL   H39044760   5.541   6.866   3.791 -0.8450  0.1834  0.9975
   86MOL   H39144761   5.726   7.020   3.694 -1.3529 -1.4883  0.2142
   86MOL   C39244762   5.530   7.455   4.103  0.6112 -0.7984 -0.1624
   86MOL   C39344763   5.502   7.581   4.188 -0.4544 -0.4032 -0.3311
   86MOL   N39444764   5.574   7.703   4.137 -0.1867 -0.3151 -0.3134
   86MOL   C39544765   5.664   7.781   4.209  0.3112 -0.4822  0.3989
   86MOL   C39644766   5.721   7.885   4.128 -0.2201  0.0411 -0.5359
   86MOL   C39744767   5.820   7.963   4.187  0.8610 -0.0788 -0.5454
   86MOL   C39844768   5.866   7.949   4.319  0.0760  0.9721 -0.2227
   86MOL   C39944769   5.811   7.846   4.397  0.3083  0.0042  0.2649
   86MOL   C40044770   5.707   7.767   4.349  0.5788  0.0966 -0.1726
   86MOL   C40144771   5.656   7.874   4.002 -0.4407  0.2960 -0.1041
   86MOL   C40244772   5.562   7.763   4.010  0.3631  0.2938 -0.0996
   86MOL   C40344773   5.482   7.733   3.897 -1.3441 -0.0076 -0.8059
   86MOL   C40444774   5.492   7.812   3.781 -0.4153 -0.8619 -0.1374
   86MOL   C40544775   5.581   7.924   3.776 -0.8345  0.3609  0.1793
   86MOL   C40644776   5.666   7.954   3.885  0.4052 -0.1395  0.2882
   86MOL   H40744777   5.519   7.475   3.997 -2.0852 -1.4878 -0.0630
   86MOL   H40844778   5.462   7.373   4.128  0.3506 -0.4846  0.1826
   86MOL   H40944779   5.542   7.559   4.287  0.0409 -2.5546 -0.9867
   86MOL   H41044780   5.860   8.048   4.133  1.3334  1.8835  2.7408
   86MOL   H41144781   5.946   8.010   4.356  0.2500  1.2051 -0.9887
   86MOL   H41244782   5.851   7.826   4.495 -0.3862 -2.1152  0.1367
   86MOL   H41344783   5.684   7.684   4.414  1.4356  0.9092  1.1691
   86MOL   H41444784   5.417   7.647   3.895 -1.2362 -0.1163  0.0993
   86MOL   H41544785   5.435   7.798   3.690  2.1359 -2.8324 -1.4800
   86MOL   H41644786   5.597   7.981   3.686 -1.8287  1.8918  0.9466
   86MOL   H41744787   5.737   8.035   3.882  1.0046 -0.6784 -0.0715
   86MOL   C41844788   5.353   7.611   4.208  0.9392  0.6145  0.1238
   86MOL   C41944789   5.260   7.510   4.279  0.1968 -0.1642 -0.1630
   86MOL   N42044790   5.324   7.458   4.401  0.1581 -0.3369 -0.8626
   86MOL   C42144791   5.359   7.322   4.430 -0.3463 -0.0145  0.7617
   86MOL   C42244792   5.421   7.317   4.554 -0.1106  0.0812 -0.5452
   86MOL   C42344793   5.461   7.188   4.597 -0.0372 -0.3671  0.2627
   86MOL   C42444794   5.434   7.071   4.523 -0.2078  0.1019  0.5737
   86MOL   C42544795   5.366   7.084   4.405  1.0255 -1.3180  0.3404
   86MOL   C42644796   5.335   7.204   4.350  0.3401 -0.1574 -0.6935
   86MOL   C42744797   5.436   7.449   4.608  0.8379  0.1765  0.2083
   86MOL   C42844798   5.366   7.535   4.513 -0.5586  0.0467 -0.9309
   86MOL   C42944799   5.355   7.672   4.537 -0.0316 -0.3063 -0.0217
   86MOL   C43044800   5.403   7.726   4.660 -0.0192 -0.1934 -0.0449
   86MOL   C43144801   5.472   7.644   4.747  0.0037 -0.2397  0.5101
   86MOL   C43244802   5.491   7.507   4.727 -0.0333  0.0637  0.2459
   86MOL   H43344803   5.340   7.704   4.262 -1.0904  0.7188 -0.5121
   86MOL   H43444804   5.310   7.623   4.109 -2.0634 -1.5675  1.0850
   86MOL   H43544805   5.253   7.423   4.215  1.3109 -0.9354  0.7410
   86MOL   H43644806   5.525   7.190   4.684 -0.3743  2.0528  0.4897
   86MOL   H43744807   5.476   6.976   4.554  0.8159  0.6442  0.8676
   86MOL   H43844808   5.355   6.998   4.341 -1.1794  0.4605 -1.7680
   86MOL   H43944809   5.301   7.209   4.247 -1.7292  1.9679  0.0260
   86MOL   H44044810   5.308   7.740   4.468 -1.4241 -2.8364 -1.6562
   86MOL   H44144811   5.393   7.833   4.669 -0.5574 -0.2531  0.0973
   86MOL   H44244812   5.496   7.679   4.847 -0.1276  0.7442  0.2061
   86MOL   H44344813   5.529   7.450   4.810 -0.6478  1.8645  1.7911
   86MOL   C44444814   5.115   7.573   4.307 -0.3978 -0.0696 -0.6991
   86MOL   C44544815   5.031   7.606   4.181 -0.1735  0.2177 -0.1051
   86MOL   N44644816   5.012   7.479   4.106  0.0091  0.0739  0.0809
   86MOL   C44744817   5.062   7.455   3.971  0.0295  0.1497 -0.5876
   86MOL   C44844818   5.039   7.315   3.943 -0.0576  0.2622 -0.3086
   86MOL   C44944819   5.103   7.254   3.832  0.3146 -0.0080 -0.5544
   86MOL   C45044820   5.175   7.329   3.740  0.0283 -0.2428 -0.5126
   86MOL   C45144821   5.176   7.470   3.752  0.2017 -0.2377  0.1919
   86MOL   C45244822   5.123   7.534   3.871 -0.3989 -0.3513  0.0102
   86MOL   C45344823   4.959   7.256   4.046 -0.0531  0.3097  0.0153
   86MOL   C45444824   4.943   7.364   4.134  0.0059 -0.1262  0.2387
   86MOL   C45544825   4.869   7.339   4.254  0.5803 -0.0921  0.4396
   86MOL   C45644826   4.816   7.217   4.284 -0.0799  0.3906  0.3021
   86MOL   C45744827   4.845   7.109   4.201  0.0701 -0.2640 -0.0402
   86MOL   C45844828   4.917   7.128   4.086  0.1217 -0.2342 -0.1710
   86MOL   H45944829   5.061   7.496   4.360  1.1332 -0.7013 -0.0110
   86MOL   H46044830   5.105   7.665   4.365 -2.3928  1.4300 -3.3403
   86MOL   H46144831   5.104   7.664   4.124  0.7345  0.5489  1.3736
   86MOL   H46244832   5.089   7.147   3.821 -1.8603  0.1612  0.2380
   86MOL   H46344833   5.219   7.282   3.654 -0.9295  0.1049 -1.2012
   86MOL   H46444834   5.221   7.527   3.672  1.4177 -0.9946  0.3246
   86MOL   H46544835   5.121   7.641   3.888  1.3267 -0.1660 -0.9032
   86MOL   H46644836   4.859   7.423   4.321  1.0952 -0.2095  0.6626
   86MOL   H46744837   4.749   7.200   4.368 -1.7131 -2.3835 -1.5155
   86MOL   H46844838   4.806   7.012   4.229 -0.8083  0.3495  0.8864
   86MOL   H46944839   4.947   7.051   4.017 -1.4878 -0.1455 -0.9892
   86MOL   C47044840   4.897   7.681   4.189  0.9031 -0.3169  0.2980
   86MOL   C47144841   4.891   7.830   4.236  0.3783  0.1977 -0.4904
   86MOL   N47244842   5.018   7.897   4.227  0.1611 -0.2375  0.1576
   86MOL   C47344843   5.092   7.955   4.335 -0.0890 -0.3449 -0.0320
   86MOL   C47444844   5.218   7.999   4.287  0.0044 -0.0764 -0.0730
   86MOL   C47544845   5.311   8.049   4.374 -0.4429  0.7616 -0.0683
   86MOL   C47644846   5.287   8.052   4.509 -0.0243 -0.6374 -0.1469
   86MOL   C47744847   5.157   8.022   4.558  0.1649 -1.2136  0.3251
   86MOL   C47844848   5.061   7.973   4.468  0.1273 -0.2803 -0.0685
   86MOL   C47944849   5.209   7.994   4.141  0.5577 -0.7684 -1.0306
   86MOL   C48044850   5.091   7.922   4.109 -0.4590 -0.1215 -0.5472
   86MOL   C48144851   5.049   7.903   3.976 -0.3565  0.3997  0.0361
   86MOL   C48244852   5.139   7.931   3.873 -0.9490 -0.2318  0.1258
   86MOL   C48344853   5.255   7.999   3.904 -0.2843 -0.4277  0.3317
   86MOL   C48444854   5.294   8.026   4.038  0.0423  0.3381  0.4960
   86MOL   H48544855   4.880   7.689   4.082 -1.9428 -1.2590  0.6366
   86MOL   H48644856   4.822   7.613   4.229  1.0502 -0.1949  0.7872
   86MOL   H48744857   4.889   7.812   4.344 -0.3298 -0.8983 -0.6841
   86MOL   H48844858   5.403   8.092   4.339  0.4067 -1.0577 -0.1349
   86MOL   H48944859   5.367   8.073   4.579  0.2272 -1.7391 -0.1034
   86MOL   H49044860   5.144   8.026   4.665  0.4282  0.6603  0.3051
   86MOL   H49144861   4.960   7.948   4.499  0.1729 -0.2057  0.1465
   86MOL   H49244862   4.949   7.867   3.955 -0.9811  2.5789 -0.7878
   86MOL   H49344863   5.120   7.912   3.769 -0.5309 -0.0985  0.0236
   86MOL   H49444864   5.315   8.032   3.820 -0.4008 -0.1257  0.3667
   86MOL   H49544865   5.380   8.085   4.066  0.3901 -0.0714  0.2940
   86MOL   C49644866   4.773   7.921   4.195 -0.1475 -0.4010 -0.3567
   86MOL   C49744867   4.636   7.865   4.236 -0.4583  0.0593  0.3644
   86MOL   N49844868   4.627   7.805   4.363 -0.1689 -0.5622 -0.5849
   86MOL   C49944869   4.600   7.666   4.391 -0.6595  0.3886  0.6432
   86MOL   C50044870   4.602   7.649   4.530  0.4479 -0.1797  0.4294
   86MOL   C50144871   4.560   7.522   4.576 -0.5564 -0.0624  0.2512
   86MOL   C50244872   4.515   7.416   4.493  0.6875  0.3205 -0.4188
   86MOL   C50344873   4.516   7.435   4.354  0.2627  0.6226 -0.7464
   86MOL   C50444874   4.564   7.565   4.301  0.5273 -0.0390 -0.5549
   86MOL   C50544875   4.642   7.775   4.592  0.0252  0.4547  1.0464
   86MOL   C50644876   4.641   7.873   4.485  0.1732 -0.0368 -0.3050
   86MOL   C50744877   4.672   8.010   4.511 -0.3481  0.0126  0.0611
   86MOL   C50844878   4.684   8.062   4.641 -0.1953  0.1553 -0.5413
   86MOL   C50944879   4.694   7.966   4.743  0.4362 -0.2210  0.5216
   86MOL   C51044880   4.672   7.829   4.721  0.3322  0.5617 -0.8196
   86MOL   H51144881   4.787   8.022   4.236 -0.2828 -0.8096  0.7262
   86MOL   H51244882   4.765   7.927   4.087 -1.4580 -0.5059 -0.2753
   86MOL   H51344883   4.605   7.791   4.163  0.6087  2.3356 -2.5130
   86MOL   H51444884   4.579   7.503   4.681  1.1365 -1.1463 -0.2284
   86MOL   H51544885   4.487   7.324   4.542  0.3083  1.3764  1.3775
   86MOL   H51644886   4.495   7.360   4.279  1.5031 -0.1471 -0.3416
   86MOL   H51744887   4.569   7.587   4.195  0.8944 -3.2812 -1.2375
   86MOL   H51844888   4.691   8.088   4.439 -1.0134 -0.7731 -0.9775
   86MOL   H51944889   4.690   8.168   4.660 -1.1888 -0.3308  2.8644
   86MOL   H52044890   4.704   8.003   4.843 -1.2005  0.6974  0.3682
   86MOL   H52144891   4.664   7.759   4.802 -2.6712 -0.6497 -2.0740
   86MOL   H52244892   4.559   7.940   4.220  0.3782  0.9833  0.5647
   87MOL     C144893   4.307   2.057   3.519 -0.3651  0.1403  0.5404
   87MOL     C244894   4.324   2.212   3.534 -0.1149 -0.0953  0.4236
   87MOL     N344895   4.440   2.272   3.457  0.1485 -0.5476 -0.0505
   87MOL     C444896   4.498   2.390   3.496  0.7089 -0.0553 -0.5907
   87MOL     C544897   4.590   2.431   3.400  0.6061  0.9010 -0.3819
   87MOL     C644898   4.661   2.554   3.425  0.6896  0.1176 -0.2278
   87MOL     C744899   4.635   2.639   3.537 -0.1574  0.1801 -0.3489
   87MOL     C844900   4.539   2.593   3.629 -0.0237 -0.2160 -0.3056
   87MOL     C944901   4.473   2.469   3.611 -0.7696 -0.2239 -0.2410
   87MOL    C1044902   4.586   2.340   3.290 -0.2454 -0.3811 -0.0530
   87MOL    C1144903   4.490   2.243   3.324 -0.3056  1.1321  0.4189
   87MOL    C1244904   4.470   2.134   3.234  0.1994 -0.3447  0.0983
   87MOL    C1344905   4.536   2.123   3.111 -0.0357  0.3807  0.6226
   87MOL    C1444906   4.633   2.215   3.087 -0.6375  0.0356  0.1977
   87MOL    C1544907   4.661   2.320   3.175  0.4326 -0.7717  0.1096
   87MOL    H1644908   4.258   2.018   3.429 -0.6083 -0.6980  1.0337
   87MOL    H1744909   4.247   2.015   3.599 -0.7313 -0.8431 -0.2392
   87MOL    H1844910   4.346   2.234   3.638 -1.0345 -0.3792  0.6807
   87MOL    H1944911   4.733   2.574   3.348  1.4950 -3.3040 -0.4235
   87MOL    H2044912   4.683   2.736   3.549 -0.4254  0.2792 -0.0539
   87MOL    H2144913   4.502   2.667   3.699  0.0157 -1.2177  0.7911
   87MOL    H2244914   4.396   2.453   3.685  0.4817  1.2394  1.4480
   87MOL    H2344915   4.400   2.057   3.262 -0.0011 -0.9927 -2.0499
   87MOL    H2444916   4.523   2.039   3.044 -0.4240 -0.4248  1.6946
   87MOL    H2544917   4.693   2.207   2.998 -0.3733 -0.8607  0.4515
   87MOL    H2644918   4.726   2.401   3.145 -2.0980  0.6737 -1.6214
   87MOL    H2744919   4.407   2.012   3.515 -0.0846  0.6703  1.4548
   87MOL    C2844920   4.190   2.280   3.489  0.4346  0.1128  0.3883
   87MOL    C2944921   4.062   2.266   3.585 -0.0675 -0.2326  0.1810
   87MOL    N3044922   4.089   2.330   3.715 -0.2125  0.0826 -0.2110
   87MOL    C3144923   4.097   2.267   3.834 -0.8144  0.0985  0.1294
   87MOL    C3244924   4.102   2.361   3.941 -0.0842 -0.0645 -0.0511
   87MOL    C3344925   4.116   2.319   4.074  0.5336 -0.4133  0.2078
   87MOL    C3444926   4.119   2.178   4.103  0.2583  0.8791 -0.3402
   87MOL    C3544927   4.102   2.087   3.997 -0.4587  0.0841 -0.6418
   87MOL    C3644928   4.095   2.135   3.865 -0.0398  0.0158 -0.3039
   87MOL    C3744929   4.099   2.487   3.876 -0.1097  0.0543 -0.1710
   87MOL    C3844930   4.099   2.465   3.739 -0.0875 -0.8423  0.3196
   87MOL    C3944931   4.110   2.573   3.644 -0.1524  0.6067  0.0372
   87MOL    C4044932   4.104   2.703   3.693  0.2732  0.0661  0.6717
   87MOL    C4144933   4.094   2.729   3.826 -0.0418 -0.3625  0.5236
   87MOL    C4244934   4.098   2.618   3.916 -0.7116 -0.6316  0.4060
   87MOL    H4344935   4.213   2.387   3.480 -0.7583  0.3210 -0.2519
   87MOL    H4444936   4.172   2.257   3.384  1.0284  0.5524  0.1869
   87MOL    H4544937   4.037   2.160   3.586 -0.1769 -0.2153  2.7378
   87MOL    H4644938   4.110   2.398   4.147 -1.4615 -0.7133  0.3762
   87MOL    H4744939   4.122   2.148   4.207 -1.7659  0.5791 -0.3468
   87MOL    H4844940   4.090   1.987   4.037 -0.2045  0.5804  0.7185
   87MOL    H4944941   4.086   2.061   3.786 -0.3339 -0.9331  0.6004
   87MOL    H5044942   4.121   2.552   3.538  1.6510 -0.0861  0.3440
   87MOL    H5144943   4.098   2.798   3.642  1.4327 -0.8477 -1.2357
   87MOL    H5244944   4.097   2.830   3.863  0.6560 -1.4588  3.6241
   87MOL    H5344945   4.101   2.638   4.022  4.0072 -1.9079  0.6310
   87MOL    C5444946   3.930   2.322   3.520  0.4316 -0.0129  0.7270
   87MOL    C5544947   3.799   2.317   3.609 -0.0762 -0.1258 -0.3192
   87MOL    N5644948   3.678   2.357   3.537 -0.3580  0.2037 -0.4592
   87MOL    C5744949   3.617   2.481   3.559 -0.3544 -0.2041 -0.2234
   87MOL    C5844950   3.495   2.482   3.481 -0.0415  0.3705 -0.0990
   87MOL    C5944951   3.417   2.595   3.495  0.6086  0.8967 -0.1202
   87MOL    C6044952   3.443   2.703   3.583 -0.1069 -0.1333  0.3566
   87MOL    C6144953   3.564   2.697   3.650 -0.1220 -0.2877 -0.2965
   87MOL    C6244954   3.653   2.588   3.645  0.4726  0.1986  0.7582
   87MOL    C6344955   3.487   2.356   3.416 -0.6149 -0.6102  0.4531
   87MOL    C6444956   3.603   2.281   3.449 -0.5750 -0.1696 -0.1498
   87MOL    C6544957   3.618   2.151   3.398  0.6596  0.5834  0.3132
   87MOL    C6644958   3.527   2.093   3.313  0.3066  0.8726 -0.5194
   87MOL    C6744959   3.415   2.166   3.274 -0.2959 -0.2499  0.2161
   87MOL    C6844960   3.397   2.298   3.322  0.4752  1.0972  0.5277
   87MOL    H6944961   3.948   2.424   3.487 -1.7917  0.4970  0.9644
   87MOL    H7044962   3.910   2.269   3.427 -2.4214  2.7830 -0.3398
   87MOL    H7144963   3.817   2.397   3.682 -2.1634  0.8717 -0.8587
   87MOL    H7244964   3.324   2.611   3.442 -0.0057 -0.8110  0.4254
   87MOL    H7344965   3.366   2.776   3.605  0.2753 -0.0500  1.4277
   87MOL    H7444966   3.589   2.780   3.715  0.0038  1.4851 -2.5395
   87MOL    H7544967   3.739   2.590   3.710 -0.0664 -0.1093  1.4845
   87MOL    H7644968   3.695   2.087   3.440  0.8040  0.0216 -0.7752
   87MOL    H7744969   3.553   1.991   3.290  0.8086  0.4740  1.7014
   87MOL    H7844970   3.348   2.116   3.206  0.2944  0.1015 -0.6351
   87MOL    H7944971   3.311   2.356   3.293 -1.6353 -1.6148  1.1953
   87MOL    C8044972   3.770   2.193   3.694  0.3299 -0.2460 -0.3089
   87MOL    C8144973   3.638   2.194   3.783  0.3102  1.0016 -0.0931
   87MOL    N8244974   3.593   2.057   3.806  0.0835  0.3533  0.3838
   87MOL    C8344975   3.489   1.989   3.741  0.5508  0.2379 -0.6785
   87MOL    C8444976   3.496   1.851   3.787  0.0852  0.2234  0.3794
   87MOL    C8544977   3.412   1.760   3.731 -0.0602 -0.6338 -0.8773
   87MOL    C8644978   3.313   1.801   3.636  0.2928  0.3456  0.3965
   87MOL    C8744979   3.301   1.936   3.595  0.1909 -0.6348  0.3301
   87MOL    C8844980   3.385   2.029   3.652  0.1771  0.0723  0.2174
   87MOL    C8944981   3.608   1.841   3.882 -0.8312 -0.5663 -0.0350
   87MOL    C9044982   3.661   1.969   3.895 -0.1620 -0.3762 -0.6889
   87MOL    C9144983   3.781   1.992   3.974 -0.3054 -0.0135 -0.3350
   87MOL    C9244984   3.826   1.884   4.062 -0.2097  0.4422  0.1169
   87MOL    C9344985   3.768   1.757   4.046 -0.2405  0.3271  0.0272
   87MOL    C9444986   3.659   1.733   3.961  0.3310  0.0661  0.2320
   87MOL    H9544987   3.776   2.108   3.627  0.7417 -0.0148 -0.5687
   87MOL    H9644988   3.859   2.177   3.755  1.2011  0.1776 -1.4462
   87MOL    H9744989   3.556   2.234   3.724  0.5273  0.0701 -1.0439
   87MOL    H9844990   3.415   1.655   3.757 -1.1557 -0.9548 -1.9672
   87MOL    H9944991   3.253   1.722   3.593  2.4264 -0.7911 -0.5843
   87MOL   H10044992   3.222   1.961   3.526  0.1591  1.1260  0.9519
   87MOL   H10144993   3.382   2.129   3.610  0.1790 -0.1337 -0.2728
   87MOL   H10244994   3.822   2.092   3.982 -0.1504 -0.1153  0.1745
   87MOL   H10344995   3.915   1.891   4.123 -1.4499 -0.1861  2.0451
   87MOL   H10444996   3.805   1.676   4.108  0.1217  0.6514  0.2320
   87MOL   H10544997   3.612   1.637   3.952  2.7129 -1.1240 -0.0608
   87MOL   C10644998   3.632   2.288   3.904 -0.1665  0.6171  0.1844
   87MOL   C10744999   3.517   2.263   4.003 -0.2920 -0.3734  0.2296
   87MOL   N10845000   3.541   2.325   4.141 -0.3068 -0.2272 -0.2449
   87MOL   C10945001   3.599   2.263   4.252  1.0165  0.0780 -0.2918
   87MOL   C11045002   3.605   2.355   4.361  0.5275 -0.8913 -0.2713
   87MOL   C11145003   3.665   2.313   4.482  0.1228 -0.1733 -0.0973
   87MOL   C11245004   3.709   2.182   4.500  0.3403  0.7406  0.4843
   87MOL   C11345005   3.694   2.088   4.396  0.3998  0.1517  0.1836
   87MOL   C11445006   3.639   2.127   4.275 -0.6092 -0.5430 -0.1107
   87MOL   C11545007   3.548   2.481   4.324  0.0662  0.5715  0.7514
   87MOL   C11645008   3.513   2.461   4.181  0.2866  0.4150  0.4153
   87MOL   C11745009   3.463   2.574   4.113 -0.7753 -0.5665  0.0901
   87MOL   C11845010   3.442   2.701   4.172  0.1893  0.2162 -0.4070
   87MOL   C11945011   3.466   2.715   4.310 -0.0955 -0.3187  1.0055
   87MOL   C12045012   3.530   2.613   4.385  0.5595 -0.0049  0.0352
   87MOL   H12145013   3.724   2.282   3.963  1.0837  1.3236 -1.6421
   87MOL   H12245014   3.639   2.388   3.863  0.6518  0.9146  1.0301
   87MOL   H12345015   3.520   2.157   4.025  2.5524 -0.7647 -1.8238
   87MOL   H12445016   3.684   2.378   4.566 -0.6359  0.6791 -0.5902
   87MOL   H12545017   3.758   2.153   4.591  0.6255 -2.0058 -0.4763
   87MOL   H12645018   3.739   1.991   4.411  1.6532  0.8082  0.6657
   87MOL   H12745019   3.643   2.054   4.195 -0.0811  0.6684 -1.2114
   87MOL   H12845020   3.444   2.565   4.007  0.6256 -2.3672 -0.0219
   87MOL   H12945021   3.408   2.789   4.120 -0.1383 -0.0734 -0.6820
   87MOL   H13045022   3.443   2.809   4.357  0.9483  1.2270 -1.4584
   87MOL   H13145023   3.546   2.618   4.492  3.3699 -1.7284 -0.2321
   87MOL   C13245024   3.375   2.288   3.949  0.7362 -0.2400 -0.4524
   87MOL   C13345025   3.261   2.230   4.037 -0.7192  0.4561  0.1844
   87MOL   N13445026   3.143   2.310   4.026 -0.2048  0.4381 -0.5633
   87MOL   C13545027   3.072   2.367   4.132  0.5503 -0.3735 -0.4764
   87MOL   C13645028   2.969   2.449   4.082  0.2556 -0.0513  0.3730
   87MOL   C13745029   2.913   2.547   4.176 -0.4579  0.2515 -0.4200
   87MOL   C13845030   2.932   2.532   4.315  0.0834 -0.2229 -0.1088
   87MOL   C13945031   3.016   2.429   4.367  0.3727 -0.2249  0.2306
   87MOL   C14045032   3.089   2.354   4.270  0.0202  0.0228  0.0615
   87MOL   C14145033   2.967   2.427   3.940  0.3989  0.3066 -0.0405
   87MOL   C14245034   3.072   2.336   3.904  0.3911  0.5243 -0.6814
   87MOL   C14345035   3.093   2.291   3.771 -0.1012  0.1384 -0.2630
   87MOL   C14445036   3.007   2.329   3.668  0.5872 -0.3549 -0.3132
   87MOL   C14545037   2.897   2.415   3.701 -0.4125  0.7845  0.3324
   87MOL   C14645038   2.883   2.468   3.834 -0.5110  0.2648 -0.8957
   87MOL   H14745039   3.357   2.394   3.934  0.5932  0.2986  3.1440
   87MOL   H14845040   3.374   2.248   3.847 -1.3953  1.3332 -1.0835
   87MOL   H14945041   3.289   2.226   4.143  0.0784 -3.4759 -0.1306
   87MOL   H15045042   2.838   2.617   4.142  0.4343  1.9179  0.9662
   87MOL   H15145043   2.875   2.586   4.389 -0.7800  0.2198 -1.0812
   87MOL   H15245044   3.028   2.423   4.474  0.5836 -0.0146  0.2187
   87MOL   H15345045   3.164   2.287   4.309 -2.0518 -0.8934  2.6016
   87MOL   H15445046   3.182   2.233   3.751 -0.1440  0.1533 -0.5067
   87MOL   H15545047   3.015   2.294   3.566 -0.2288  0.2604 -0.5966
   87MOL   H15645048   2.820   2.421   3.625  1.8450  0.8873 -2.0316
   87MOL   H15745049   2.793   2.522   3.859 -1.7245 -2.1253  0.0221
   87MOL   C15845050   3.233   2.084   4.006 -0.1436  0.2627  0.1161
   87MOL   C15945051   3.105   2.008   4.053 -0.1273  0.0767  0.1769
   87MOL   N16045052   3.108   1.875   4.000 -0.1056  0.0767 -0.0432
   87MOL   C16145053   3.039   1.832   3.887 -0.1035 -0.4535 -0.2922
   87MOL   C16245054   3.075   1.698   3.863 -0.5805  0.1516 -0.2665
   87MOL   C16345055   3.013   1.630   3.752  0.1752  0.1224  0.9219
   87MOL   C16445056   2.915   1.692   3.677  0.1315 -0.0037 -0.3259
   87MOL   C16545057   2.894   1.831   3.691  0.3220 -0.8505 -0.2097
   87MOL   C16645058   2.956   1.901   3.797  0.1597 -0.1049  0.2055
   87MOL   C16745059   3.163   1.659   3.964 -0.2344  0.5822  0.0886
   87MOL   C16845060   3.197   1.774   4.036  0.4218 -0.3009  0.1715
   87MOL   C16945061   3.300   1.764   4.129 -0.1436 -0.7526  0.4744
   87MOL   C17045062   3.362   1.644   4.160 -0.3514  0.0830  0.2193
   87MOL   C17145063   3.324   1.529   4.090 -0.1113 -0.1740  0.2522
   87MOL   C17245064   3.222   1.528   3.994  0.2779  0.2897 -0.1417
   87MOL   H17345065   3.231   2.090   3.897  2.6167 -2.9953 -0.2248
   87MOL   H17445066   3.319   2.026   4.040 -0.5318  0.4106  1.3583
   87MOL   H17545067   3.023   2.064   4.009  0.9290  0.1154 -1.8105
   87MOL   H17645068   3.033   1.524   3.745 -2.0714 -0.2586 -0.2201
   87MOL   H17745069   2.869   1.635   3.598  2.5051  1.3377 -2.7785
   87MOL   H17845070   2.826   1.881   3.624  0.5039 -1.0678 -0.5604
   87MOL   H17945071   2.926   2.005   3.796 -1.2221 -0.5021  0.2801
   87MOL   H18045072   3.331   1.850   4.186 -0.0623  1.2051 -2.3908
   87MOL   H18145073   3.442   1.631   4.231 -1.0365 -3.3748  0.4585
   87MOL   H18245074   3.383   1.441   4.111 -1.1467 -0.6264  1.3387
   87MOL   H18345075   3.197   1.437   3.942 -0.4919  0.7639 -0.6161
   87MOL   C18445076   3.087   2.012   4.210 -0.3939  0.1231  0.8252
   87MOL   C18545077   2.999   1.901   4.274 -0.2578 -0.3052  0.8852
   87MOL   N18645078   3.017   1.897   4.413  0.1636  0.0981 -0.5623
   87MOL   C18745079   3.102   1.817   4.486 -0.0483 -1.0295 -0.1887
   87MOL   C18845080   3.102   1.856   4.624  0.5556  0.2398 -0.1202
   87MOL   C18945081   3.173   1.773   4.713  0.3594 -0.3726 -0.1419
   87MOL   C19045082   3.241   1.659   4.672 -0.3553  0.1334  0.7572
   87MOL   C19145083   3.232   1.613   4.541  0.6452  0.4056 -0.2313
   87MOL   C19245084   3.168   1.698   4.443  0.2006 -0.4823 -0.6324
   87MOL   C19345085   3.015   1.971   4.636 -0.0309  0.5568  0.2521
   87MOL   C19445086   2.971   2.000   4.504 -0.1961  0.7231 -0.7592
   87MOL   C19545087   2.895   2.117   4.487 -0.5645 -0.1108  0.1626
   87MOL   C19645088   2.857   2.195   4.593 -0.1784 -0.5070  0.2164
   87MOL   C19745089   2.892   2.164   4.722 -0.7966  0.1519 -0.0175
   87MOL   C19845090   2.975   2.049   4.748 -0.3842 -0.0856  0.4527
   87MOL   H19945091   3.190   2.012   4.247 -0.4027 -1.5552  0.9035
   87MOL   H20045092   3.042   2.107   4.237  1.6543  1.5121 -0.4656
   87MOL   H20145093   3.039   1.808   4.234  1.6045 -0.5379  3.1513
   87MOL   H20245094   3.156   1.802   4.816 -2.2809 -0.2149 -0.5842
   87MOL   H20345095   3.288   1.593   4.743  0.3157  0.1505  0.3397
   87MOL   H20445096   3.281   1.521   4.511 -0.1220  0.7604 -2.6738
   87MOL   H20545097   3.161   1.664   4.341 -0.6671  1.5643 -1.2581
   87MOL   H20645098   2.865   2.144   4.387  1.1478  2.8054  0.3789
   87MOL   H20745099   2.805   2.286   4.567  0.6922 -0.7336 -2.4889
   87MOL   H20845100   2.864   2.223   4.808  2.7468  2.3942 -0.3220
   87MOL   H20945101   2.997   2.011   4.847 -0.1318  2.1126  1.2804
   87MOL   C21045102   2.850   1.904   4.228  0.2979  0.6396 -0.0893
   87MOL   C21145103   2.775   1.765   4.258 -0.6497 -0.0764 -0.2102
   87MOL   N21245104   2.632   1.774   4.222 -0.1259  0.5513  0.0752
   87MOL   C21345105   2.523   1.772   4.317  0.5569 -0.9916  0.0803
   87MOL   C21445106   2.398   1.775   4.243 -0.0469  0.7852 -0.2229
   87MOL   C21545107   2.277   1.759   4.313 -0.2328  0.2920  0.7285
   87MOL   C21645108   2.272   1.744   4.452 -0.9653  0.2196  0.4524
   87MOL   C21745109   2.394   1.746   4.518 -0.0076  0.1241  0.3071
   87MOL   C21845110   2.519   1.772   4.458 -0.3852  0.4103  0.1816
   87MOL   C21945111   2.427   1.785   4.109 -0.0136  0.2060 -0.0193
   87MOL   C22045112   2.570   1.791   4.098 -0.3545  0.1794 -0.3120
   87MOL   C22145113   2.630   1.807   3.969  0.5260  0.7703  0.1274
   87MOL   C22245114   2.547   1.814   3.854  0.6349  0.6158  1.1820
   87MOL   C22345115   2.408   1.801   3.868  0.1234  0.0943  0.3295
   87MOL   C22445116   2.351   1.786   3.994  0.6895 -0.3638 -0.4158
   87MOL   H22545117   2.794   1.974   4.290 -0.4392 -0.9510  1.0764
   87MOL   H22645118   2.839   1.927   4.122 -0.4498  1.8108  0.2353
   87MOL   H22745119   2.782   1.745   4.365  0.6225 -1.3352 -0.5133
   87MOL   H22845120   2.192   1.726   4.256 -2.1690 -0.1352  3.7661
   87MOL   H22945121   2.180   1.716   4.502  0.2598 -1.7210  1.7013
   87MOL   H23045122   2.398   1.736   4.626 -1.6676  0.1699  0.3803
   87MOL   H23145123   2.610   1.763   4.516 -1.0234  0.1570  1.1614
   87MOL   H23245124   2.736   1.815   3.951  0.3039 -0.6892 -1.9579
   87MOL   H23345125   2.594   1.832   3.759  0.2206 -1.4144  0.5707
   87MOL   H23445126   2.350   1.812   3.777 -0.1967  1.6435  0.6938
   87MOL   H23545127   2.243   1.777   4.003  0.5365  0.6526 -1.2139
   87MOL   C23645128   2.847   1.647   4.183 -0.3077  0.8852 -0.1273
   87MOL   C23745129   2.777   1.512   4.168 -0.5212 -0.2370  0.1672
   87MOL   N23845130   2.862   1.416   4.108  0.1399  0.6996  0.1173
   87MOL   C23945131   2.848   1.367   3.974  0.2317 -0.7077 -0.0108
   87MOL   C24045132   2.950   1.270   3.944  0.6003  0.1697 -0.0304
   87MOL   C24145133   2.959   1.211   3.813 -0.0438 -0.1034 -0.2448
   87MOL   C24245134   2.861   1.247   3.716  0.1547  0.2973 -0.0824
   87MOL   C24345135   2.762   1.334   3.750 -0.4909  0.1506 -0.2212
   87MOL   C24445136   2.751   1.392   3.877  0.0820 -0.8460  0.1096
   87MOL   C24545137   3.031   1.264   4.066  0.1755  0.8376  1.0011
   87MOL   C24645138   2.968   1.345   4.163  0.6039  0.5497  0.6706
   87MOL   C24745139   3.027   1.354   4.295  0.8104 -0.5951  0.4309
   87MOL   C24845140   3.144   1.287   4.322 -0.3098  0.6519 -0.3966
   87MOL   C24945141   3.214   1.220   4.221 -0.1791  0.0641 -0.1468
   87MOL   C25045142   3.153   1.201   4.092 -0.7704  0.4015 -0.3305
   87MOL   H25145143   2.872   1.671   4.080 -1.5488  1.9904 -0.1841
   87MOL   H25245144   2.943   1.625   4.231  1.1911 -0.5546 -3.5793
   87MOL   H25345145   2.695   1.539   4.101  0.0700  0.3429 -0.3246
   87MOL   H25445146   3.047   1.155   3.786  1.9385  3.1571 -0.8933
   87MOL   H25545147   2.870   1.214   3.614  0.4221 -0.9680  0.3427
   87MOL   H25645148   2.702   1.383   3.675  0.4323 -0.6393 -1.5015
   87MOL   H25745149   2.675   1.465   3.902  0.7235 -0.2570  0.3522
   87MOL   H25845150   2.977   1.407   4.376  0.2570  1.3322 -1.1324
   87MOL   H25945151   3.185   1.303   4.420  1.2511 -3.4754 -0.2805
   87MOL   H26045152   3.311   1.176   4.240 -0.5600 -0.0118  1.7961
   87MOL   H26145153   3.201   1.144   4.013 -1.6434  1.9914 -2.0236
   87MOL   C26245154   2.710   1.455   4.305  0.6602  0.2214  0.1455
   87MOL   C26345155   2.639   1.317   4.286  0.0115  0.0546  0.4457
   87MOL   N26445156   2.603   1.259   4.415  0.4975 -0.0180 -0.2504
   87MOL   C26545157   2.677   1.161   4.477 -0.1492 -0.1323 -0.0143
   87MOL   C26645158   2.602   1.113   4.591 -0.1602 -0.5240  0.5374
   87MOL   C26745159   2.658   1.003   4.670 -0.6046  0.3745  0.0675
   87MOL   C26845160   2.779   0.945   4.627  0.1405  0.1815 -0.2625
   87MOL   C26945161   2.857   0.998   4.523  0.5499  0.4451 -0.6312
   87MOL   C27045162   2.800   1.102   4.447 -0.8829 -0.3497 -0.4783
   87MOL   C27145163   2.495   1.202   4.614  0.4030  0.1021  0.0397
   87MOL   C27245164   2.494   1.290   4.505 -0.1842  0.1081  0.7650
   87MOL   C27345165   2.386   1.382   4.490 -0.7457  0.4610  0.1316
   87MOL   C27445166   2.286   1.388   4.588  0.2513 -0.5451 -0.0682
   87MOL   C27545167   2.282   1.299   4.697 -0.4444 -0.3116  0.8855
   87MOL   C27645168   2.388   1.199   4.709 -0.7488 -0.7665 -0.4802
   87MOL   H27745169   2.783   1.443   4.385  0.2715 -0.9766  0.3183
   87MOL   H27845170   2.635   1.524   4.344  0.0349 -0.2941 -0.1404
   87MOL   H27945171   2.711   1.251   4.238 -1.0606 -0.3325 -0.6818
   87MOL   H28045172   2.601   0.967   4.755 -0.5729 -0.3803 -0.2345
   87MOL   H28145173   2.814   0.851   4.668  1.2001 -0.6747 -2.9816
   87MOL   H28245174   2.943   0.945   4.485  0.5328 -1.1079  1.4261
   87MOL   H28345175   2.859   1.134   4.363  0.7205  1.7635  1.3925
   87MOL   H28445176   2.398   1.452   4.409 -0.9349 -0.6637 -0.8977
   87MOL   H28545177   2.208   1.462   4.572 -0.1174 -1.3417 -2.1642
   87MOL   H28645178   2.194   1.306   4.759 -0.3656  2.6301  0.7086
   87MOL   H28745179   2.396   1.126   4.788 -0.6292 -2.0704 -1.6882
   87MOL   C28845180   2.522   1.328   4.179  0.1065 -0.1807  0.5206
   87MOL   C28945181   2.407   1.220   4.183  0.3268  0.2822 -0.3508
   87MOL   N29045182   2.290   1.251   4.104 -0.1030  0.0385  0.9032
   87MOL   C29145183   2.161   1.284   4.151  0.4932 -0.4497 -0.1988
   87MOL   C29245184   2.076   1.318   4.040  0.2541 -0.3112  0.7824
   87MOL   C29345185   1.938   1.348   4.070 -0.7259  0.3939  0.0137
   87MOL   C29445186   1.886   1.351   4.199  0.0732 -0.3942  0.7709
   87MOL   C29545187   1.968   1.314   4.305 -0.1360  0.6194  0.0175
   87MOL   C29645188   2.107   1.279   4.279  0.2909  0.0031 -0.0064
   87MOL   C29745189   2.158   1.304   3.919  0.4714 -0.8699 -0.5965
   87MOL   C29845190   2.284   1.264   3.963  0.4683 -0.2126 -0.9896
   87MOL   C29945191   2.390   1.249   3.864 -0.1931 -0.1352  0.1610
   87MOL   C30045192   2.367   1.267   3.726 -0.3163 -0.2065  0.2732
   87MOL   C30145193   2.241   1.309   3.695 -0.5443 -0.9119  1.0785
   87MOL   C30245194   2.134   1.317   3.784  0.8094 -0.6772  0.5706
   87MOL   H30345195   2.478   1.428   4.183  0.1063 -0.2502  3.6325
   87MOL   H30445196   2.563   1.329   4.078 -0.0478  0.5170  0.4658
   87MOL   H30545197   2.375   1.221   4.288  1.4529 -0.4302  0.0080
   87MOL   H30645198   1.868   1.370   3.991 -1.5432  0.9630  0.8854
   87MOL   H30745199   1.784   1.379   4.222 -0.3833  0.2252 -1.8695
   87MOL   H30845200   1.923   1.307   4.403  1.2462 -0.3771  0.5994
   87MOL   H30945201   2.161   1.233   4.360  1.0311 -0.6576 -0.8651
   87MOL   H31045202   2.482   1.208   3.905 -0.0909 -0.3637 -0.2973
   87MOL   H31145203   2.443   1.244   3.652 -0.2027 -0.6412  0.5235
   87MOL   H31245204   2.229   1.331   3.590 -1.6647 -0.7261  1.2424
   87MOL   H31345205   2.034   1.333   3.746  1.0711 -0.0959  0.1178
   87MOL   C31445206   2.457   1.077   4.151 -0.7884 -0.1644  0.6289
   87MOL   C31545207   2.357   0.965   4.178  0.9783 -0.2689  0.4745
   87MOL   N31645208   2.400   0.843   4.111 -0.0081 -1.0232 -0.1773
   87MOL   C31745209   2.342   0.788   3.991 -0.0894 -0.3548 -1.0670
   87MOL   C31845210   2.416   0.668   3.951 -0.2110  0.0605  0.0236
   87MOL   C31945211   2.372   0.597   3.841 -0.1789 -0.2909  0.6773
   87MOL   C32045212   2.265   0.641   3.755  0.1337 -0.2209 -0.8012
   87MOL   C32145213   2.204   0.761   3.784  0.1471  0.9079 -0.3114
   87MOL   C32245214   2.235   0.830   3.900  0.0297  0.0927  0.0705
   87MOL   C32345215   2.520   0.652   4.046  0.0914  0.0227 -0.0727
   87MOL   C32445216   2.504   0.755   4.147 -0.5777 -0.3003 -0.0804
   87MOL   C32545217   2.582   0.754   4.268  0.3417  0.2345 -0.2338
   87MOL   C32645218   2.684   0.661   4.279 -0.7337 -0.3469  0.7257
   87MOL   C32745219   2.697   0.557   4.179  0.1569 -0.4846 -0.1893
   87MOL   C32845220   2.617   0.560   4.061 -0.1528  0.1673 -0.1390
   87MOL   H32945221   2.499   1.072   4.051  0.8375  1.6891  1.1855
   87MOL   H33045222   2.536   1.063   4.224 -0.7289 -2.2563  0.1869
   87MOL   H33145223   2.268   1.000   4.126  0.7227  0.4123  1.3564
   87MOL   H33245224   2.428   0.514   3.801  1.4558  1.9677 -1.9563
   87MOL   H33345225   2.249   0.588   3.662  1.6252 -0.1949 -1.0818
   87MOL   H33445226   2.119   0.799   3.730 -0.2388 -1.6551 -1.5418
   87MOL   H33545227   2.183   0.922   3.922  0.4611  0.2952  0.2676
   87MOL   H33645228   2.564   0.824   4.349  1.1060  1.7003 -1.3135
   87MOL   H33745229   2.757   0.667   4.358  0.1581  2.8470 -0.2601
   87MOL   H33845230   2.774   0.484   4.197 -0.4082 -1.5986 -2.2139
   87MOL   H33945231   2.627   0.487   3.982  0.1822 -0.4891  0.5035
   87MOL   C34045232   2.310   0.942   4.323 -0.0854 -0.6990 -0.9477
   87MOL   C34145233   2.227   0.809   4.354  0.3698  0.9499  0.4023
   87MOL   N34245234   2.203   0.798   4.500  0.0234  0.1767 -0.2348
   87MOL   C34345235   2.263   0.703   4.585 -0.2777  0.0542  0.2388
   87MOL   C34445236   2.208   0.720   4.717  0.2587  0.1657  0.0656
   87MOL   C34545237   2.241   0.624   4.817 -0.2593 -0.0246  0.2242
   87MOL   C34645238   2.331   0.520   4.791 -0.3730  0.1438 -0.0389
   87MOL   C34745239   2.385   0.505   4.661  0.1516  0.1544  0.0665
   87MOL   C34845240   2.353   0.596   4.556 -0.7704  0.0834  0.0986
   87MOL   C34945241   2.131   0.834   4.718  0.9030  0.7382 -0.2279
   87MOL   C35045242   2.123   0.879   4.582 -0.1793 -0.3395 -0.3616
   87MOL   C35145243   2.048   0.991   4.547 -0.3775  0.5294 -0.2882
   87MOL   C35245244   1.983   1.064   4.649 -0.0212  0.0717 -0.2013
   87MOL   C35345245   1.991   1.022   4.784  0.7558  0.3104 -0.2253
   87MOL   C35445246   2.058   0.902   4.816 -0.1382  0.0740  0.2664
   87MOL   H35545247   2.381   0.959   4.404 -0.7403  0.2875 -0.5789
   87MOL   H35645248   2.236   1.019   4.342  1.2702  0.0772  1.3188
   87MOL   H35745249   2.277   0.715   4.331 -2.6399 -0.5062 -0.4079
   87MOL   H35845250   2.203   0.639   4.917  0.5340  1.2927  0.3485
   87MOL   H35945251   2.372   0.446   4.857 -1.0270 -0.3584 -0.1824
   87MOL   H36045252   2.450   0.422   4.641 -0.2630 -1.0688  3.4398
   87MOL   H36145253   2.394   0.566   4.461 -0.1968 -0.4910  0.5223
   87MOL   H36245254   2.041   1.027   4.445 -2.1561  3.5398  0.8349
   87MOL   H36345255   1.936   1.155   4.615 -0.5364 -0.1261 -0.0112
   87MOL   H36445256   1.951   1.082   4.864  0.3079  0.2329 -0.3898
   87MOL   H36545257   2.038   0.883   4.921 -1.4974 -0.7335 -0.1322
   87MOL   C36645258   2.098   0.803   4.265 -0.2784  0.5773  0.0982
   87MOL   C36745259   2.011   0.688   4.304 -0.0837  0.6455 -0.5935
   87MOL   N36845260   1.883   0.699   4.244  0.4744  0.3202 -0.1466
   87MOL   C36945261   1.772   0.749   4.309  0.3707  0.1869 -0.6861
   87MOL   C37045262   1.657   0.744   4.224  0.0004  0.4593 -0.6076
   87MOL   C37145263   1.533   0.792   4.275 -0.4710 -0.2200 -0.1892
   87MOL   C37245264   1.522   0.842   4.405 -0.1423  0.0357 -0.3139
   87MOL   C37345265   1.634   0.851   4.491  0.1819  0.5763 -0.4043
   87MOL   C37445266   1.758   0.806   4.441  0.3574 -0.3044  0.6611
   87MOL   C37545267   1.697   0.690   4.098 -0.7662  0.2827  0.2179
   87MOL   C37645268   1.842   0.676   4.109 -0.1293 -0.2663 -0.1098
   87MOL   C37745269   1.916   0.646   3.994  0.4266 -0.3632 -0.0466
   87MOL   C37845270   1.855   0.632   3.870 -0.3582 -0.4960 -0.1005
   87MOL   C37945271   1.716   0.634   3.851 -0.9571  0.0926  0.1996
   87MOL   C38045272   1.637   0.666   3.972 -0.3819 -0.5177  0.4610
   87MOL   H38145273   2.033   0.890   4.273 -1.1979 -0.1781  0.9369
   87MOL   H38245274   2.123   0.793   4.160 -0.2295  0.4117  0.1255
   87MOL   H38345275   1.999   0.706   4.411  2.0038 -0.3830 -0.1490
   87MOL   H38445276   1.440   0.780   4.221 -0.4026 -1.2424 -0.0804
   87MOL   H38545277   1.426   0.877   4.442 -0.4470 -3.1000  2.0813
   87MOL   H38645278   1.627   0.894   4.589 -1.2471 -2.4618  0.8904
   87MOL   H38745279   1.842   0.811   4.509  0.6086  0.2860  0.3079
   87MOL   H38845280   2.024   0.643   3.999  0.5011  0.5725 -0.9786
   87MOL   H38945281   1.916   0.625   3.781 -1.1352  0.8580 -0.7743
   87MOL   H39045282   1.667   0.635   3.755  0.9065 -0.7489 -0.7900
   87MOL   H39145283   1.530   0.678   3.969 -0.2270  0.6855 -1.2599
   87MOL   C39245284   2.070   0.543   4.285  0.2049  0.6990 -0.3439
   87MOL   C39345285   1.980   0.415   4.305 -0.8096 -0.2657  0.3852
   87MOL   N39445286   2.057   0.291   4.272 -1.1413 -0.1467 -0.0821
   87MOL   C39545287   2.040   0.206   4.167  0.7235  0.1750  0.9990
   87MOL   C39645288   2.135   0.100   4.174 -0.5333 -0.2681 -0.3131
   87MOL   C39745289   2.138   0.003   4.067  0.1943 -0.1809  0.8155
   87MOL   C39845290   2.045   0.014   3.970 -0.0033 -0.0955  0.1720
   87MOL   C39945291   1.948   0.115   3.966  0.1743 -0.5033  0.2136
   87MOL   C40045292   1.950   0.220   4.062 -0.1733  0.0548 -0.1893
   87MOL   C40145293   2.208   0.121   4.287 -0.1604 -0.0904 -0.8963
   87MOL   C40245294   2.162   0.236   4.348  0.2164 -0.5668 -0.7590
   87MOL   C40345295   2.213   0.270   4.476  0.4046  0.0495 -0.5811
   87MOL   C40445296   2.330   0.211   4.525 -0.8761 -0.0726 -0.4844
   87MOL   C40545297   2.380   0.097   4.460 -0.1816  0.7395 -0.6111
   87MOL   C40645298   2.318   0.050   4.340  0.0472 -0.2074  0.3239
   87MOL   H40745299   2.111   0.535   4.184  0.3945 -0.2084 -0.1937
   87MOL   H40845300   2.151   0.538   4.357 -0.0377 -0.3255 -0.1429
   87MOL   H40945301   1.906   0.421   4.225  0.9060  0.6799 -1.1854
   87MOL   H41045302   2.219   8.160   4.058 -0.9332 -1.7180  2.5219
   87MOL   H41145303   2.052   8.182   3.880 -1.4094 -2.0327  1.2711
   87MOL   H41245304   1.876   0.114   3.885  0.5052 -3.1406 -0.1025
   87MOL   H41345305   1.875   0.298   4.055 -0.9668 -0.4821  1.8031
   87MOL   H41445306   2.166   0.357   4.521 -0.0925  0.1418 -1.2676
   87MOL   H41545307   2.363   0.241   4.623 -1.7849  0.0470 -0.2072
   87MOL   H41645308   2.458   0.043   4.511 -0.1083 -0.1072 -1.6156
   87MOL   H41745309   2.343   8.188   4.286 -2.2635 -0.9481  0.4067
   87MOL   C41845310   1.903   0.403   4.444 -0.2413 -0.0329  0.0560
   87MOL   C41945311   1.839   0.266   4.472 -0.2491  0.6914 -0.2488
   87MOL   N42045312   1.805   0.253   4.617  0.4693 -0.0834  0.3805
   87MOL   C42145313   1.858   0.159   4.705  0.3484  0.5305 -0.4846
   87MOL   C42245314   1.797   0.172   4.833  0.2181 -0.9064  0.9835
   87MOL   C42345315   1.839   0.089   4.938  0.3735 -1.1379  0.6942
   87MOL   C42445316   1.944   8.225   4.920  0.0214 -0.7421 -0.3269
   87MOL   C42545317   2.010   8.216   4.793  0.0633  0.8594  0.2946
   87MOL   C42645318   1.959   0.062   4.681 -0.3490  0.3261  0.3524
   87MOL   C42745319   1.702   0.276   4.822  0.4268 -0.7860 -0.2311
   87MOL   C42845320   1.709   0.329   4.688  0.3929  0.1510 -1.0594
   87MOL   C42945321   1.626   0.436   4.659 -0.7525  0.1772  0.4264
   87MOL   C43045322   1.540   0.492   4.752 -0.2342 -0.2174  0.2166
   87MOL   C43145323   1.525   0.439   4.880  0.4772  0.2536  0.3484
   87MOL   C43245324   1.601   0.328   4.915 -0.3894  1.2347  0.7563
   87MOL   H43345325   1.969   0.434   4.526  1.9595  0.3662 -1.8010
   87MOL   H43445326   1.827   0.478   4.463  0.1182  0.1003  1.0055
   87MOL   H43545327   1.922   0.199   4.449  0.1746  0.6807  1.2514
   87MOL   H43645328   1.782   0.103   5.029 -2.0732  1.2901 -1.1126
   87MOL   H43745329   1.978   8.170   5.007 -1.2397 -1.8726 -0.5287
   87MOL   H43845330   2.095   8.151   4.780 -0.7152 -0.5807  2.1742
   87MOL   H43945331   2.021   0.064   4.593  2.1347  0.2638  2.0321
   87MOL   H44045332   1.631   0.475   4.559  0.1152  0.5166  0.6047
   87MOL   H44145333   1.485   0.573   4.707  1.7976  1.1610  0.1670
   87MOL   H44245334   1.456   0.486   4.948 -1.9300 -0.5091 -1.4977
   87MOL   H44345335   1.590   0.279   5.010 -1.1938  2.9466  1.5780
   87MOL   C44445336   1.722   0.232   4.375  0.6491 -0.1737 -0.9157
   87MOL   C44545337   1.630   0.109   4.400 -0.2410  0.5062 -0.2200
   87MOL   N44645338   1.513   0.100   4.315  0.1771  0.3081 -0.7402
   87MOL   C44745339   1.385   0.086   4.361  0.6010 -0.1454  0.2202
   87MOL   C44845340   1.304   0.064   4.245 -0.0591 -0.2995 -0.4040
   87MOL   C44945341   1.165   0.068   4.264  0.1986  0.5052  0.0079
   87MOL   C45045342   1.104   0.065   4.387  0.2830 -0.3667 -0.3159
   87MOL   C45145343   1.184   0.087   4.502 -0.8987  0.4929  0.0244
   87MOL   C45245344   1.322   0.096   4.488  0.2764  0.5227 -0.3153
   87MOL   C45345345   1.386   0.058   4.129  0.4262 -0.1446  0.4541
   87MOL   C45445346   1.512   0.095   4.176  0.0343  0.2619 -0.2158
   87MOL   C45545347   1.617   0.093   4.085  0.4133  0.8278 -0.2780
   87MOL   C45645348   1.590   0.083   3.941  0.7021  0.8036 -0.8456
   87MOL   C45745349   1.461   0.055   3.891 -0.8322 -0.3693 -0.5398
   87MOL   C45845350   1.362   0.038   3.991  0.7096  0.2696 -1.0065
   87MOL   H45945351   1.659   0.319   4.385 -0.2159 -0.9118  0.1546
   87MOL   H46045352   1.760   0.240   4.273 -0.4249 -0.9181 -1.3888
   87MOL   H46145353   1.583   0.122   4.498 -1.6352  1.8974 -1.0539
   87MOL   H46245354   1.104   0.074   4.175  1.2472 -2.5894 -0.9997
   87MOL   H46345355   1.001   0.032   4.380  0.2618  0.0256 -2.1409
   87MOL   H46445356   1.144   0.090   4.603  0.4750  2.0882  0.5554
   87MOL   H46545357   1.387   0.103   4.573 -0.4324 -0.5948  0.3375
   87MOL   H46645358   1.720   0.091   4.120  0.6201 -0.7451 -0.9321
   87MOL   H46745359   1.670   0.096   3.869  0.9439 -2.5579 -1.2732
   87MOL   H46845360   1.452   0.054   3.783  0.3706  1.4087 -0.6794
   87MOL   H46945361   1.260   0.013   3.966 -0.2345 -0.0653  2.8304
   87MOL   C47045362   1.714   8.205   4.408 -0.3471 -0.6666 -0.0174
   87MOL   C47145363   1.629   8.067   4.407  0.4478  0.1689 -0.5013
   87MOL   N47245364   1.696   7.951   4.348  0.5728 -0.5218 -0.1945
   87MOL   C47345365   1.642   7.870   4.251  0.8489  0.5209  0.0977
   87MOL   C47445366   1.739   7.772   4.219  0.5369  0.5593  0.0817
   87MOL   C47545367   1.705   7.671   4.130 -0.1490  0.0074  0.5340
   87MOL   C47645368   1.576   7.663   4.077  0.0510  0.3461  0.0932
   87MOL   C47745369   1.482   7.764   4.102  0.5728 -0.0752 -0.4745
   87MOL   C47845370   1.515   7.864   4.193  0.0677  0.8016 -0.0267
   87MOL   C47945371   1.858   7.799   4.289 -0.1190  0.3603  0.1745
   87MOL   C48045372   1.830   7.907   4.370  0.2683 -0.7957 -0.4216
   87MOL   C48145373   1.932   7.954   4.463 -0.2080  0.0882 -0.6658
   87MOL   C48245374   2.057   7.888   4.474  0.4581 -0.0828 -0.1454
   87MOL   C48345375   2.077   7.772   4.392  0.0132  0.0299 -0.4313
   87MOL   C48445376   1.985   7.742   4.297  0.5211 -0.0646 -0.5674
   87MOL   H48545377   1.793   8.193   4.333 -0.0327 -1.8345  0.4999
   87MOL   H48645378   1.778   8.211   4.496 -1.4525 -2.6205  0.9442
   87MOL   H48745379   1.544   8.083   4.341  1.8010 -0.4628 -2.4669
   87MOL   H48845380   1.784   7.601   4.109  0.4035  0.0058  2.5246
   87MOL   H48945381   1.553   7.595   3.997  1.0812 -0.9871  0.9079
   87MOL   H49045382   1.379   7.756   4.071  0.4613 -1.4907  0.2201
   87MOL   H49145383   1.437   7.933   4.222 -2.1816 -1.5226 -0.4770
   87MOL   H49245384   1.919   8.046   4.519 -1.9612 -0.9204  0.6314
   87MOL   H49345385   2.133   7.919   4.543 -0.9266  2.2170  0.4202
   87MOL   H49445386   2.171   7.718   4.395 -0.1468 -0.2636 -0.6490
   87MOL   H49545387   2.003   7.658   4.232 -1.5764 -1.2441  0.3068
   87MOL   C49645388   1.572   8.028   4.547 -0.8554 -0.1413  0.5566
   87MOL   C49745389   1.454   7.930   4.543  0.8538  0.5484  0.2931
   87MOL   N49845390   1.418   7.878   4.673  0.0539  0.4721  0.3582
   87MOL   C49945391   1.451   7.750   4.715 -0.7238  0.2159 -0.4687
   87MOL   C50045392   1.410   7.727   4.852 -0.9269  0.4754 -0.0161
   87MOL   C50145393   1.443   7.607   4.916 -0.2921  0.1859  0.2850
   87MOL   C50245394   1.520   7.514   4.848  0.1201  0.1233  0.1086
   87MOL   C50345395   1.558   7.531   4.717 -0.0974 -0.1791 -0.2587
   87MOL   C50445396   1.534   7.656   4.657  0.1086  0.2378  0.2755
   87MOL   C50545397   1.357   7.852   4.888  0.1054 -0.2347 -0.6248
   87MOL   C50645398   1.361   7.946   4.779  0.3503  0.1710 -0.1728
   87MOL   C50745399   1.303   8.078   4.802 -0.5314  0.1044  0.6149
   87MOL   C50845400   1.248   8.109   4.923  0.4022  0.0983  0.3032
   87MOL   C50945401   1.232   8.015   5.027  0.0361  0.0335 -0.0943
   87MOL   C51045402   1.294   7.892   5.009  0.1400  0.6471 -0.2166
   87MOL   H51145403   1.646   7.976   4.608  0.3326  1.7874  0.8268
   87MOL   H51245404   1.550   8.117   4.607  0.1060  0.4191  0.0809
   87MOL   H51345405   1.466   7.849   4.471 -1.4148  0.6474 -0.2484
   87MOL   H51445406   1.414   7.579   5.016  2.1613  0.3585  1.0790
   87MOL   H51545407   1.551   7.425   4.900  1.1452  0.8694  0.8037
   87MOL   H51645408   1.629   7.463   4.672  0.5852 -0.0296  0.5892
   87MOL   H51745409   1.596   7.672   4.570  0.0830  0.0388  0.2214
   87MOL   H51845410   1.314   8.153   4.725  2.2978 -1.3887 -0.5034
   87MOL   H51945411   1.198   8.204   4.935 -0.3702 -0.4291  1.3435
   87MOL   H52045412   1.200   8.044   5.126  0.8242  0.2364  0.1122
   87MOL   H52145413   1.292   7.821   5.090 -0.7675 -2.1389 -2.6163
   87MOL   H52245414   1.362   7.975   4.504 -0.2660  0.3874  2.6740
   88MOL     C145415   2.184   7.767   7.405 -0.4113 -0.4067  0.0732
   88MOL     C245416   2.319   7.799   7.487  0.1242 -0.3704  0.0398
   88MOL     N345417   2.434   7.780   7.405  0.6440  0.0230 -0.2548
   88MOL     C445418   2.539   7.689   7.434 -0.0405 -0.0661  0.5701
   88MOL     C545419   2.638   7.705   7.332  0.5207 -0.0014 -0.1844
   88MOL     C645420   2.742   7.611   7.334 -0.2759 -0.3549  0.3965
   88MOL     C745421   2.756   7.516   7.433  0.4304 -0.0300 -0.4188
   88MOL     C845422   2.665   7.505   7.534  0.1161 -0.3950 -0.9300
   88MOL     C945423   2.556   7.592   7.539 -0.0219 -0.3682 -0.1160
   88MOL    C1045424   2.594   7.815   7.244 -0.0020 -0.1595  0.2564
   88MOL    C1145425   2.465   7.857   7.290  0.0424 -0.7277 -0.0359
   88MOL    C1245426   2.388   7.957   7.220  0.8989  0.5254 -0.0283
   88MOL    C1345427   2.434   8.010   7.100 -0.5308  0.2439  0.1866
   88MOL    C1445428   2.559   7.974   7.050 -0.1968  0.0062 -0.8532
   88MOL    C1545429   2.639   7.886   7.132 -0.1897 -0.0631  0.0884
   88MOL    H1645430   2.117   7.713   7.471 -1.1505  0.2497 -0.1200
   88MOL    H1745431   2.205   7.703   7.319  1.4959  1.4779 -0.9297
   88MOL    H1845432   2.340   7.726   7.565  0.0980 -1.5039 -0.9979
   88MOL    H1945433   2.812   7.612   7.252 -0.9380  2.1870 -0.2047
   88MOL    H2045434   2.842   7.451   7.439  0.3581 -0.1578 -0.7353
   88MOL    H2145435   2.689   7.441   7.618 -2.1042  0.4281  0.4064
   88MOL    H2245436   2.490   7.587   7.623 -0.4807 -2.5227 -0.5859
   88MOL    H2345437   2.295   7.996   7.258  0.9608  0.5326  0.1160
   88MOL    H2445438   2.374   8.084   7.049  0.7281  0.0544 -1.5905
   88MOL    H2545439   2.598   8.008   6.955 -0.0134 -0.8823 -1.0978
   88MOL    H2645440   2.734   7.856   7.092  1.7554  3.5236  1.7634
   88MOL    H2745441   2.119   7.849   7.372 -1.3739 -1.7633 -1.4683
   88MOL    C2845442   2.311   7.944   7.553  0.3895 -0.5149  0.0884
   88MOL    C2945443   2.441   8.027   7.570  0.4057 -0.4498  0.1055
   88MOL    N3045444   2.407   8.163   7.610  0.1801 -0.1236  0.7951
   88MOL    C3145445   2.418   0.047   7.524  0.4147  0.1496  0.5199
   88MOL    C3245446   2.369   0.157   7.594  0.6513 -0.0499  0.2496
   88MOL    C3345447   2.370   0.283   7.523  0.0358 -0.4268 -0.1869
   88MOL    C3445448   2.428   0.294   7.397 -0.6957 -0.4116 -0.1274
   88MOL    C3545449   2.475   0.177   7.325 -0.7699 -0.0619  0.3201
   88MOL    C3645450   2.465   0.056   7.388 -0.2594 -0.2510 -0.5203
   88MOL    C3745451   2.330   0.115   7.725 -0.0602  0.6316  0.2829
   88MOL    C3845452   2.343   8.203   7.731 -0.0506  0.3354  0.3110
   88MOL    C3945453   2.304   8.128   7.843 -0.1894  1.0718 -0.3889
   88MOL    C4045454   2.249   8.203   7.957  0.0847 -0.1607  0.1205
   88MOL    C4145455   2.232   0.115   7.951  0.0541 -0.2386 -0.3531
   88MOL    C4245456   2.270   0.182   7.834  1.0761  0.5237 -0.3448
   88MOL    H4345457   2.248   8.004   7.488 -0.9569  0.1613  1.9595
   88MOL    H4445458   2.261   7.916   7.646  0.1971 -1.8594 -0.4010
   88MOL    H4545459   2.475   8.039   7.467 -2.2866  1.3876 -0.6117
   88MOL    H4645460   2.320   0.369   7.565 -1.8247 -1.9416  0.7863
   88MOL    H4745461   2.422   0.391   7.351 -1.7845  0.3573  1.5920
   88MOL    H4845462   2.511   0.186   7.224  0.0805  1.6722  0.7600
   88MOL    H4945463   2.509   8.198   7.337  0.1350 -0.8010  0.7244
   88MOL    H5045464   2.310   8.022   7.860 -3.3300  0.8048 -0.5169
   88MOL    H5145465   2.209   8.158   8.046  1.8639  1.0726  1.5885
   88MOL    H5245466   2.163   0.160   8.022  1.9494 -0.4845  1.6968
   88MOL    H5345467   2.261   0.289   7.824  1.2646  0.6343  0.5829
   88MOL    C5445468   2.564   7.977   7.653  0.0874 -0.4539 -0.0777
   88MOL    C5545469   2.697   8.050   7.615 -0.5237  0.0810 -0.0799
   88MOL    N5645470   2.794   8.023   7.727 -0.5709  0.1398  1.2943
   88MOL    C5745471   2.836   8.118   7.816 -0.0256  0.3030 -0.8959
   88MOL    C5845472   2.938   8.061   7.900  0.1467 -0.1422 -0.2539
   88MOL    C5945473   3.002   8.147   7.988 -0.8513 -0.2329  0.7854
   88MOL    C6045474   2.969   0.057   7.994 -0.0796  0.7789 -0.2551
   88MOL    C6145475   2.863   0.112   7.919  0.2369  0.5177 -0.1490
   88MOL    C6245476   2.802   0.033   7.822 -0.4908 -0.4215 -0.5838
   88MOL    C6345477   2.945   7.923   7.864 -0.1497  0.3664  0.2114
   88MOL    C6445478   2.858   7.906   7.753  0.1363  0.6343 -0.0951
   88MOL    C6545479   2.851   7.777   7.692 -0.2264  0.9346  0.2128
   88MOL    C6645480   2.921   7.671   7.743  0.2204 -0.0299  0.2882
   88MOL    C6745481   3.008   7.685   7.847 -0.2469  0.2013 -0.5487
   88MOL    C6845482   3.020   7.808   7.909 -0.6836 -0.1758 -0.3599
   88MOL    H6945483   2.558   8.000   7.759 -0.4193 -1.7601  0.1875
   88MOL    H7045484   2.561   7.871   7.627 -0.8099 -0.4488  0.0027
   88MOL    H7145485   2.673   8.156   7.619 -0.2281  0.1036  1.4406
   88MOL    H7245486   3.083   8.105   8.045  0.8396  1.3891 -0.3380
   88MOL    H7345487   3.010   0.114   8.076 -1.7750  1.3770  0.2022
   88MOL    H7445488   2.847   0.218   7.938  1.1302  0.6924 -0.3338
   88MOL    H7545489   2.723   0.075   7.761  0.8838  2.0969 -0.7130
   88MOL    H7645490   2.786   7.760   7.607  0.1567  0.3171  0.0411
   88MOL    H7745491   2.913   7.576   7.693 -1.2252  0.0055  0.4416
   88MOL    H7845492   3.066   7.603   7.888 -1.5494 -0.4115  0.0935
   88MOL    H7945493   3.084   7.826   7.994  0.7783 -1.6667 -1.1292
   88MOL    C8045494   2.754   8.012   7.474  0.9745 -0.2935  0.1987
   88MOL    C8145495   2.895   8.061   7.443  0.6182 -0.0100 -0.5784
   88MOL    N8245496   2.938   8.025   7.306  0.3418 -0.2280 -0.3466
   88MOL    C8345497   3.032   7.927   7.278  0.9316  0.0826  0.1999
   88MOL    C8445498   3.052   7.926   7.136 -0.3995 -0.2919  0.7129
   88MOL    C8545499   3.141   7.829   7.085 -0.1356  0.2404 -0.8561
   88MOL    C8645500   3.222   7.746   7.172  0.1432 -0.0147 -0.7045
   88MOL    C8745501   3.195   7.748   7.312 -1.0017 -0.0849  0.2566
   88MOL    C8845502   3.099   7.840   7.360 -0.2158 -0.9613  0.1189
   88MOL    C8945503   2.965   8.026   7.079  0.4613 -0.7230  0.1156
   88MOL    C9045504   2.896   8.087   7.189 -0.5285  0.4081 -0.3349
   88MOL    C9145505   2.810   8.196   7.158  0.1435 -0.4526  0.0031
   88MOL    C9245506   2.779   8.223   7.025  0.7618  0.3108 -0.0476
   88MOL    C9345507   2.846   8.163   6.919 -0.1578 -0.0529  0.3472
   88MOL    C9445508   2.940   8.062   6.944  0.9640  0.2147 -0.9470
   88MOL    H9545509   2.747   7.905   7.458 -1.1862 -0.0025 -0.9962
   88MOL    H9645510   2.687   8.057   7.401  0.3877 -0.0256  0.8932
   88MOL    H9745511   2.943   7.988   7.508  0.3977  1.4586  1.2752
   88MOL    H9845512   3.156   7.817   6.979 -1.1210 -0.1955 -0.9534
   88MOL    H9945513   3.292   7.679   7.125 -0.7579 -1.6009  0.1751
   88MOL   H10045514   3.263   7.696   7.378  0.9292 -0.2264 -1.7559
   88MOL   H10145515   3.076   7.832   7.465  0.8211 -0.5248  0.3875
   88MOL   H10245516   2.748   0.018   7.232  1.5215 -0.3555  1.1040
   88MOL   H10345517   2.697   0.063   7.003 -0.3925 -0.5426  1.4515
   88MOL   H10445518   2.817   8.184   6.817 -0.2065 -1.5751  0.0324
   88MOL   H10545519   2.982   8.009   6.860  0.7430  1.0494 -1.5836
   88MOL   C10645520   2.933   8.203   7.485 -0.8595 -0.3263  0.5723
   88MOL   C10745521   3.079   0.002   7.495  0.9385 -0.0223 -0.0118
   88MOL   N10845522   3.115   0.147   7.472 -0.3423 -0.1947  0.0144
   88MOL   C10945523   3.137   0.202   7.347  0.1722 -0.1041  0.3510
   88MOL   C11045524   3.149   0.346   7.354  0.5102  0.0814 -0.4250
   88MOL   C11145525   3.171   0.418   7.235  0.1801  0.0402 -0.0793
   88MOL   C11245526   3.189   0.349   7.114 -0.5944 -0.1322 -0.1201
   88MOL   C11345527   3.170   0.209   7.101  0.2331  0.2369  0.2667
   88MOL   C11445528   3.143   0.142   7.222  0.5829  1.1267  0.8871
   88MOL   C11545529   3.131   0.375   7.493 -0.0628 -0.0323  0.3798
   88MOL   C11645530   3.107   0.254   7.563  0.3722 -0.0793  0.1926
   88MOL   C11745531   3.080   0.255   7.702 -0.0045  0.3714  0.6028
   88MOL   C11845532   3.082   0.375   7.782  0.3155 -0.5863  0.5662
   88MOL   C11945533   3.110   0.494   7.710 -0.2073 -0.8145 -0.2822
   88MOL   C12045534   3.136   0.496   7.569 -0.5010 -0.6960  0.2296
   88MOL   H12145535   2.894   0.041   7.407 -3.1180 -1.7758  0.4207
   88MOL   H12245536   2.876   0.010   7.571 -1.4269  1.8818 -0.6387
   88MOL   H12345537   3.134   8.174   7.419  0.3899  0.5984 -0.8735
   88MOL   H12445538   3.198   0.523   7.241  0.6123 -0.1531  1.5627
   88MOL   H12545539   3.219   0.403   7.026 -0.5943 -1.2985 -0.8499
   88MOL   H12645540   3.190   0.151   7.013 -1.3126  0.7216 -0.4047
   88MOL   H12745541   3.133   0.035   7.214 -1.2950  1.3907 -0.5505
   88MOL   H12845542   3.066   0.161   7.753 -3.5136  0.4835  0.0071
   88MOL   H12945543   3.070   0.365   7.889  1.6669 -0.2419  0.7617
   88MOL   H13045544   3.121   0.588   7.762 -1.8742 -1.1981  0.8159
   88MOL   H13145545   3.160   0.589   7.520 -2.9380 -0.3675 -0.3948
   88MOL   C13245546   3.142   8.171   7.620  0.8056  0.6089 -1.0058
   88MOL   C13345547   3.287   8.212   7.639 -0.9327  0.0880  0.0230
   88MOL   N13445548   3.336   8.141   7.757 -0.3078  0.0913 -0.6797
   88MOL   C13545549   3.354   8.189   7.888 -0.1115 -0.0772  0.1386
   88MOL   C13645550   3.403   8.088   7.973 -0.4765 -0.3360 -0.2324
   88MOL   C13745551   3.439   8.118   8.104 -0.4632 -0.5199  0.5250
   88MOL   C13845552   3.421   0.024   8.154 -0.1040 -0.0549  0.1521
   88MOL   C13945553   3.372   0.120   8.064 -0.6985 -0.0385  0.1719
   88MOL   C14045554   3.336   0.094   7.932 -0.0230 -0.3048  0.3729
   88MOL   C14145555   3.404   7.967   7.885 -0.0195 -0.5227  0.1357
   88MOL   C14245556   3.361   8.007   7.758  0.2050 -0.6210  0.0250
   88MOL   C14345557   3.363   7.911   7.657 -0.1867  1.2203 -0.2185
   88MOL   C14445558   3.402   7.782   7.678 -0.9139  0.6184 -0.1409
   88MOL   C14545559   3.447   7.742   7.802  0.7229  0.2364 -0.8631
   88MOL   C14645560   3.454   7.836   7.903  0.1081  0.0509  0.1313
   88MOL   H14745561   3.084   8.194   7.710 -0.1002  0.4069 -1.5264
   88MOL   H14845562   3.127   8.063   7.612 -1.0810  0.6119  1.6634
   88MOL   H14945563   3.288   0.088   7.674 -0.2908 -0.0540  0.4322
   88MOL   H15045564   3.464   8.039   8.174 -0.5682  0.0220  1.1849
   88MOL   H15145565   3.452   0.042   0.029 -0.4070  0.2560  0.1913
   88MOL   H15245566   3.358   0.217   8.108 -1.7562  0.0235 -0.3024
   88MOL   H15345567   3.298   0.175   7.872  1.9075 -0.7484 -1.5244
   88MOL   H15445568   3.323   7.942   7.561 -0.6397 -0.7434 -0.6855
   88MOL   H15545569   3.399   7.708   7.599  4.9631  0.9142 -0.8444
   88MOL   H15645570   3.485   7.641   7.807 -0.0320 -0.1012 -1.6472
   88MOL   H15745571   3.508   7.807   7.991 -0.2592  1.2635  0.7744
   88MOL   C15845572   3.386   8.208   7.523 -0.1921  0.5679  0.3606
   88MOL   C15945573   3.538   0.006   7.560  0.0187  0.3364 -0.4803
   88MOL   N16045574   3.638   8.195   7.459 -0.3759 -0.9207  0.0842
   88MOL   C16145575   3.708   8.078   7.466  0.2131  0.9515 -0.1528
   88MOL   C16245576   3.796   8.067   7.358  0.8829 -0.6753  1.0100
   88MOL   C16345577   3.878   7.951   7.354  0.2077 -0.6419  0.9843
   88MOL   C16445578   3.866   7.838   7.441 -0.4737 -0.4780  0.0749
   88MOL   C16545579   3.781   7.852   7.549 -0.2525  0.5232 -0.8299
   88MOL   C16645580   3.703   7.968   7.560  0.1739 -0.5394  0.0129
   88MOL   C16745581   3.777   8.187   7.278 -0.0484 -0.2928 -0.0098
   88MOL   C16845582   3.686   0.042   7.352 -0.2835  0.2041 -0.1754
   88MOL   C16945583   3.654   0.172   7.305 -0.1931 -0.0937 -0.3652
   88MOL   C17045584   3.699   0.215   7.175 -0.4143  0.2423 -0.1151
   88MOL   C17145585   3.788   0.132   7.100  0.3095  0.3658 -0.4658
   88MOL   C17245586   3.836   0.013   7.155  0.7949 -0.1061  1.0175
   88MOL   H17345587   3.388   8.112   7.472 -0.5428 -0.0164  1.4360
   88MOL   H17445588   3.354   0.040   7.437 -0.7121  1.9337  1.4791
   88MOL   H17545589   3.555   8.173   7.649  5.2031  4.0207  1.2858
   88MOL   H17645590   3.938   7.932   7.266 -0.5293 -1.0661  0.5658
   88MOL   H17745591   3.930   7.753   7.422 -0.9237 -0.7087 -0.4484
   88MOL   H17845592   3.771   7.769   7.616  1.5877 -0.6847 -2.0245
   88MOL   H17945593   3.629   7.977   7.638 -1.2258  0.8139 -1.4591
   88MOL   H18045594   3.593   0.237   7.366  2.4077 -0.2635  2.5566
   88MOL   H18145595   3.664   0.313   7.149 -0.3400 -0.2781 -2.2245
   88MOL   H18245596   3.838   0.170   7.013  0.9933 -0.8581 -0.6122
   88MOL   H18345597   3.903   8.180   7.097 -0.3712  0.4315 -0.9450
   88MOL   C18445598   3.563   0.143   7.628 -0.4484 -0.3905  0.4636
   88MOL   C18545599   3.692   0.155   7.701 -0.2515  0.0685 -0.3191
   88MOL   N18645600   3.746   0.294   7.680 -0.5059 -0.0181 -0.4674
   88MOL   C18745601   3.851   0.331   7.589  0.4609 -0.3240  0.3301
   88MOL   C18845602   3.871   0.474   7.597 -0.6679  0.2478 -0.1710
   88MOL   C18945603   3.978   0.531   7.523  0.5081  0.0902  0.1698
   88MOL   C19045604   4.060   0.451   7.435 -0.0094  0.0001  0.0869
   88MOL   C19145605   4.037   0.314   7.426 -0.5699 -0.9317 -0.1388
   88MOL   C19245606   3.934   0.251   7.508  0.2027  0.0054 -0.4348
   88MOL   C19345607   3.771   0.522   7.682 -0.4084  0.5845  0.2529
   88MOL   C19445608   3.690   0.418   7.716  0.2271  0.3798  0.6031
   88MOL   C19545609   3.576   0.444   7.796  0.1781 -0.2214 -0.1233
   88MOL   C19645610   3.540   0.574   7.833  0.5732  0.3748  0.8367
   88MOL   C19745611   3.621   0.683   7.808 -0.8081 -0.3955  0.4915
   88MOL   C19845612   3.743   0.655   7.729 -0.4422 -0.0293 -1.0336
   88MOL   H19945613   3.554   0.222   7.553  2.8854 -2.4806 -2.3062
   88MOL   H20045614   3.485   0.156   7.703 -1.2807 -2.8125  0.0665
   88MOL   H20145615   3.763   0.093   7.647  0.2206 -1.6999  2.1947
   88MOL   H20245616   3.993   0.637   7.537 -1.2071  0.3728  0.0070
   88MOL   H20345617   4.137   0.504   7.381  1.3143 -1.3785  0.5876
   88MOL   H20445618   4.090   0.258   7.350  0.7826 -0.4698  0.4407
   88MOL   H20545619   3.904   0.148   7.507 -0.8047  0.2961 -0.9074
   88MOL   H20645620   3.503   0.373   7.832  0.3754  0.3496  1.4176
   88MOL   H20745621   3.450   0.588   7.891  0.5997  0.6264  0.8201
   88MOL   H20845622   3.603   0.784   7.843  0.1340 -0.2268  0.5019
   88MOL   H20945623   3.813   0.733   7.701  0.0619 -1.2253 -3.2245
   88MOL   C21045624   3.681   0.104   7.844 -0.8814 -1.1919  0.2759
   88MOL   C21145625   3.804   0.104   7.942 -0.6651  0.5287  0.5426
   88MOL   N21245626   3.784   0.019   8.059  0.0106  0.0953  0.4238
   88MOL   C21345627   3.771   0.050   8.197  0.4165 -0.2062  0.2804
   88MOL   C21445628   3.762   8.154   0.042 -0.0431  0.0628 -0.6292
   88MOL   C21545629   3.751   8.157   0.180  0.6897 -0.1288 -0.4532
   88MOL   C21645630   3.732   0.052   0.250 -0.6547  0.1044 -0.1560
   88MOL   C21745631   3.758   0.169   0.181 -0.5144  0.7271 -0.4309
   88MOL   C21845632   3.771   0.170   0.043 -0.0492 -0.1686  0.1891
   88MOL   C21945633   3.768   8.047   8.173 -0.1731  0.2689 -0.0637
   88MOL   C22045634   3.778   8.109   8.044  0.2681 -0.3118 -1.4315
   88MOL   C22145635   3.795   8.030   7.931  0.3162 -0.5384 -0.2405
   88MOL   C22245636   3.806   7.888   7.943 -0.0768  0.4726  0.2367
   88MOL   C22345637   3.788   7.826   8.068  1.1196  0.2290 -0.1028
   88MOL   C22445638   3.769   7.906   8.181 -0.3662  0.9411  0.4167
   88MOL   H22545639   3.597   0.147   7.899 -0.0049  1.1710 -0.2245
   88MOL   H22645640   3.652   8.226   7.841  0.6876 -1.6851  1.4398
   88MOL   H22745641   3.810   0.202   7.989 -1.5892  0.1356  1.4798
   88MOL   H22845642   3.728   8.063   0.228 -3.4104  0.1166 -1.7601
   88MOL   H22945643   3.705   0.044   0.354  2.2425  0.8810  0.7019
   88MOL   H23045644   3.757   0.262   0.237  1.5557  0.0245  0.8460
   88MOL   H23145645   3.788   0.261   8.214 -0.4609  0.4747  1.1066
   88MOL   H23245646   3.815   8.063   7.830  2.1407 -0.4156  0.1498
   88MOL   H23345647   3.835   7.826   7.859  3.3882  0.1933  1.5837
   88MOL   H23445648   3.810   7.721   8.079 -0.8160 -0.1275  0.5387
   88MOL   H23545649   3.748   7.864   0.051 -0.7081  1.8510  0.7420
   88MOL   C23645650   3.945   0.090   7.881 -0.1960  0.3399  0.5397
   88MOL   C23745651   4.039   0.206   7.892  0.7765 -0.2443 -0.1869
   88MOL   N23845652   4.067   0.251   8.027  0.1755  0.2514 -0.3176
   88MOL   C23945653   4.028   0.371   8.088 -0.0445  0.0615 -0.1362
   88MOL   C24045654   4.079   0.386   8.214  0.8729 -0.6040  0.0294
   88MOL   C24145655   4.045   0.500   0.062 -0.0500  0.3503  0.4635
   88MOL   C24245656   3.973   0.604   0.006  0.4396 -0.6794  0.7159
   88MOL   C24345657   3.926   0.589   8.101 -0.2265  0.3696 -0.3180
   88MOL   C24445658   3.946   0.472   8.033 -0.5843 -0.1008  0.1018
   88MOL   C24545659   4.154   0.263   0.010 -0.1320  0.4845  0.8047
   88MOL   C24645660   4.140   0.181   8.123 -0.3098 -0.4991  0.8606
   88MOL   C24745661   4.202   0.058   8.112 -1.0710 -0.5620 -0.0870
   88MOL   C24845662   4.272   0.008   8.225  0.0598  0.4866 -0.7723
   88MOL   C24945663   4.295   0.087   0.111 -0.2175  0.8300 -0.2729
   88MOL   C25045664   4.236   0.218   0.116  0.4619  0.7780 -0.5156
   88MOL   H25145665   3.992   0.005   7.931  1.2599  0.4920 -0.5368
   88MOL   H25245666   3.945   0.055   7.778 -0.4968  1.6517  0.0827
   88MOL   H25345667   3.984   0.289   7.849  0.9451 -0.2605 -0.4309
   88MOL   H25445668   4.087   0.511   0.161  1.7686 -0.6990 -0.1641
   88MOL   H25545669   3.956   0.684   0.077 -1.7676 -1.5280  1.1679
   88MOL   H25645670   3.859   0.665   8.062 -2.1085 -1.6837 -1.2007
   88MOL   H25745671   3.916   0.465   7.929 -1.9605  1.4669  0.3853
   88MOL   H25845672   4.175   8.221   8.030 -0.5787  1.0766 -1.5504
   88MOL   H25945673   4.315   8.136   8.224  3.7384  1.9762 -0.6317
   88MOL   H26045674   4.354   0.054   0.196  0.3705  1.8865 -0.2703
   88MOL   H26145675   4.247   0.284   0.200 -3.6659  4.6493 -2.8083
   88MOL   C26245676   4.166   0.185   7.811 -0.8787 -0.1538 -0.0779
   88MOL   C26345677   4.279   0.292   7.827 -0.5733  0.5304 -0.6154
   88MOL   N26445678   4.406   0.229   7.796 -0.1152 -0.1432  0.4668
   88MOL   C26545679   4.504   0.196   7.891  0.1273 -0.3305 -0.2770
   88MOL   C26645680   4.611   0.127   7.826 -0.1301  0.4332 -0.1516
   88MOL   C26745681   4.718   0.072   7.899  0.7224  0.3435 -0.2171
   88MOL   C26845682   4.723   0.094   8.037 -0.1884 -0.0089 -0.1114
   88MOL   C26945683   4.616   0.160   8.108 -0.0722 -0.6596  0.3325
   88MOL   C27045684   4.508   0.210   8.038  0.4621 -0.5905 -0.2910
   88MOL   C27145685   4.581   0.122   7.682  0.1254  0.2893 -0.2200
   88MOL   C27245686   4.452   0.179   7.672  0.3869 -0.3196 -0.0732
   88MOL   C27345687   4.384   0.175   7.547  0.7027  0.8555 -0.1787
   88MOL   C27445688   4.442   0.115   7.433 -0.0157 -0.3283 -0.7431
   88MOL   C27545689   4.571   0.069   7.439 -0.2043  0.5175 -0.7979
   88MOL   C27645690   4.634   0.069   7.565 -0.7143  0.1719 -0.8746
   88MOL   H27745691   4.215   0.091   7.838  0.7608  1.2967  2.2198
   88MOL   H27845692   4.129   0.182   7.708 -2.5940  0.4825  0.5023
   88MOL   H27945693   4.282   0.313   7.934  1.9569 -1.5233 -0.2224
   88MOL   H28045694   4.795   0.018   7.846  1.2950 -0.8134  1.7439
   88MOL   H28145695   4.810   0.064   8.095 -0.0260 -0.8798 -0.8054
   88MOL   H28245696   4.629   0.177   8.214  2.9632 -4.5098  0.6705
   88MOL   H28345697   4.433   0.269   8.090  0.8244  2.0294 -2.6522
   88MOL   H28445698   4.287   0.221   7.534  0.5490  0.2045 -1.4431
   88MOL   H28545699   4.387   0.113   7.340  0.5086 -1.2008 -1.0379
   88MOL   H28645700   4.629   0.022   7.361 -1.2422  0.4249 -1.5254
   88MOL   H28745701   4.738   0.040   7.573 -0.5288  1.0830  0.0760
   88MOL   C28845702   4.240   0.419   7.745 -0.4708 -0.0505  0.1619
   88MOL   C28945703   4.362   0.516   7.734  0.5299  0.2999 -0.0689
   88MOL   N29045704   4.328   0.621   7.630  0.0344  0.1515  0.2193
   88MOL   C29145705   4.375   0.628   7.501  0.4694  0.6805  0.1888
   88MOL   C29245706   4.335   0.746   7.438 -0.1301 -0.7959  0.3263
   88MOL   C29345707   4.383   0.773   7.303  0.1870 -0.0948  0.5106
   88MOL   C29445708   4.485   0.696   7.241  0.0394  0.2343  0.0994
   88MOL   C29545709   4.518   0.569   7.310  0.4180 -0.5089  0.5642
   88MOL   C29645710   4.462   0.540   7.433  1.0594 -0.0850 -0.3371
   88MOL   C29745711   4.249   0.811   7.530 -0.2127  0.5234  0.5108
   88MOL   C29845712   4.232   0.725   7.641  0.5356 -0.2583 -0.5323
   88MOL   C29945713   4.158   0.765   7.748  0.3250  0.1120 -0.5485
   88MOL   C30045714   4.100   0.887   7.750 -0.1376 -0.1141  0.1939
   88MOL   C30145715   4.109   0.974   7.641 -0.2560  0.2649 -0.3804
   88MOL   C30245716   4.184   0.935   7.530 -0.0846  0.3276  0.8398
   88MOL   H30345717   4.212   0.388   7.645 -0.5671  0.0767  0.1487
   88MOL   H30445718   4.148   0.462   7.786 -0.3495  0.1877  0.1855
   88MOL   H30545719   4.449   0.461   7.698  1.8266  0.5643  2.5005
   88MOL   H30645720   4.363   0.862   7.245 -2.3904 -0.0522  1.3975
   88MOL   H30745721   4.532   0.716   7.146  0.9391  0.0850  0.5107
   88MOL   H30845722   4.598   0.513   7.263  1.0683 -0.2650  1.3633
   88MOL   H30945723   4.492   0.446   7.479 -1.4358 -1.5426 -1.5601
   88MOL   H31045724   4.138   0.709   7.838  0.2512  1.9825  0.6267
   88MOL   H31145725   4.045   0.914   7.839 -1.8494  0.2361 -0.9509
   88MOL   H31245726   4.066   1.073   7.647 -1.3397 -0.3041  1.6117
   88MOL   H31345727   4.194   1.002   7.446  1.4821 -1.0421 -0.1079
   88MOL   C31445728   4.398   0.574   7.874 -0.1617 -0.4995 -0.8056
   88MOL   C31545729   4.505   0.684   7.867  0.3453  0.9034 -0.3735
   88MOL   N31645730   4.524   0.746   8.005 -0.0533  0.1948  0.1538
   88MOL   C31745731   4.526   0.884   8.024  0.4024  0.3329 -0.0667
   88MOL   C31845732   4.555   0.905   8.162 -0.0045 -0.8923  0.1829
   88MOL   C31945733   4.564   1.036   8.210  0.1108  0.3300  0.1697
   88MOL   C32045734   4.537   1.148   8.126  0.2708  0.0552 -0.7665
   88MOL   C32145735   4.508   1.123   7.993 -0.2570 -0.6919  0.1021
   88MOL   C32245736   4.510   0.995   7.941 -0.2055  1.3026  0.9795
   88MOL   C32345737   4.572   0.782   0.001 -0.7030 -0.0830 -0.2770
   88MOL   C32445738   4.564   0.684   8.123  0.6708  0.0451  0.0136
   88MOL   C32545739   4.603   0.551   8.153 -0.4936  0.4775  0.1152
   88MOL   C32645740   4.635   0.516   0.056 -0.2961  0.4343  0.1875
   88MOL   C32745741   4.629   0.609   0.162  0.0221 -0.7687 -0.3445
   88MOL   C32845742   4.600   0.746   0.134  0.0053  0.0835  0.7412
   88MOL   H32945743   4.309   0.607   7.927  0.7416  2.0844 -0.7975
   88MOL   H33045744   4.438   0.491   7.932  0.6604 -0.3461 -1.1459
   88MOL   H33145745   4.463   0.763   7.805  0.8456  0.2806 -1.5251
   88MOL   H33245746   4.590   1.054   0.086 -1.1523 -0.0956  0.5823
   88MOL   H33345747   4.549   1.246   8.171  0.0110  0.3128 -1.2504
   88MOL   H33445748   4.492   1.213   7.936 -0.6526  1.1642  2.9858
   88MOL   H33545749   4.498   0.979   7.835 -1.3414 -1.6662  1.5056
   88MOL   H33645750   4.590   0.474   8.078 -0.1112 -0.5383  1.0882
   88MOL   H33745751   4.663   0.413   0.074 -3.1296 -0.6057 -1.0152
   88MOL   H33845752   4.659   0.566   0.257 -1.7499 -0.9590  0.1410
   88MOL   H33945753   4.605   0.819   0.213  0.4954  0.9846 -0.1129
   88MOL   C34045754   4.640   0.641   7.811 -0.6536 -0.3130 -0.2904
   88MOL   C34145755   4.732   0.757   7.775 -0.0952  0.6011 -0.5249
   88MOL   N34245756   4.868   0.710   7.769  0.1296  0.1093 -0.0038
   88MOL   C34345757   4.969   0.749   7.856 -0.0472 -0.8644  0.7859
   88MOL   C34445758   5.091   0.689   7.817  0.2101 -0.0819 -0.5835
   88MOL   C34545759   5.213   0.726   7.881  0.2661 -0.0497  0.3176
   88MOL   C34645760   5.212   0.805   7.993 -0.5231  0.0371 -0.1774
   88MOL   C34745761   5.089   0.864   8.037  0.3326 -0.3890  0.0027
   88MOL   C34845762   4.971   0.830   7.972  0.0599  0.1083  0.2004
   88MOL   C34945763   5.059   0.590   7.711 -0.5601 -0.3289 -0.0831
   88MOL   C35045764   4.921   0.614   7.680 -0.3661 -0.2643 -0.4368
   88MOL   C35145765   4.862   0.543   7.572  0.1371  0.6540 -0.3040
   88MOL   C35245766   4.930   0.450   7.497 -0.1805 -0.7024  1.1880
   88MOL   C35345767   5.067   0.429   7.529  1.2058 -0.2546 -0.5666
   88MOL   C35445768   5.135   0.496   7.636  0.2398 -0.2510  0.3373
   88MOL   H35545769   4.683   0.569   7.881 -0.1143  0.4980  0.2070
   88MOL   H35645770   4.619   0.588   7.718 -2.4180 -2.0476  1.0444
   88MOL   H35745771   4.731   0.823   7.861  0.9055 -1.0942  0.8383
   88MOL   H35845772   5.306   0.678   7.855 -0.2242 -1.5446  1.2610
   88MOL   H35945773   5.307   0.833   8.038  0.4451 -0.4030 -1.9013
   88MOL   H36045774   5.097   0.933   8.120  1.3903  0.5114 -0.8284
   88MOL   H36145775   4.878   0.870   8.007  0.2455  3.2737 -2.6717
   88MOL   H36245776   4.759   0.566   7.549 -0.0848 -1.3035 -1.4104
   88MOL   H36345777   4.877   0.386   7.429  0.1765 -0.3377  0.5594
   88MOL   H36445778   5.111   0.348   7.472 -0.4056  0.0488 -2.2807
   88MOL   H36545779   5.240   0.480   7.655  1.0140  1.7010 -2.0033
   88MOL   C36645780   4.689   0.836   7.649 -0.1089  0.8079  0.0943
   88MOL   C36745781   4.786   0.953   7.615  0.4536  0.1834 -0.0332
   88MOL   N36845782   4.777   0.990   7.474  0.5116 -0.0294 -0.3981
   88MOL   C36945783   4.878   0.969   7.380 -0.0893  0.1276  0.1110
   88MOL   C37045784   4.839   1.013   7.248  0.4804  0.2140 -0.0783
   88MOL   C37145785   4.925   1.001   7.139  0.3041  0.3208  0.9968
   88MOL   C37245786   5.056   0.953   7.149 -0.1880  0.1974  0.5558
   88MOL   C37345787   5.094   0.902   7.276  0.4007  0.4142 -0.7013
   88MOL   C37445788   5.004   0.910   7.389  0.2642  0.4067  0.1482
   88MOL   C37545789   4.702   1.049   7.267  0.0012  0.5562  0.5213
   88MOL   C37645790   4.668   1.049   7.408 -0.4077  0.0396  0.0897
   88MOL   C37745791   4.540   1.087   7.450 -0.1176  0.6322 -0.1071
   88MOL   C37845792   4.444   1.137   7.356 -0.0650 -0.5990  0.2435
   88MOL   C37945793   4.478   1.131   7.219  0.5467 -0.2745 -0.2282
   88MOL   C38045794   4.604   1.092   7.177  0.0771 -0.5064 -0.0063
   88MOL   H38145795   4.693   0.772   7.561  2.9395 -1.6634  1.8724
   88MOL   H38245796   4.588   0.875   7.662 -0.2444 -0.1714  2.4194
   88MOL   H38345797   4.887   0.914   7.631 -0.3352 -1.9375 -0.0469
   88MOL   H38445798   4.891   1.027   7.040  3.1854 -3.0897 -1.0385
   88MOL   H38545799   5.114   0.961   7.059 -0.7551  0.7418  0.2288
   88MOL   H38645800   5.186   0.848   7.291 -0.2564 -0.3697  0.5486
   88MOL   H38745801   5.046   0.876   7.483 -0.7121 -1.8182 -0.2144
   88MOL   H38845802   4.512   1.066   7.552 -0.5019  0.3627 -0.2688
   88MOL   H38945803   4.347   1.173   7.387  0.8070  1.8033  0.2493
   88MOL   H39045804   4.411   1.166   7.142 -2.8293 -1.1932  2.1852
   88MOL   H39145805   4.629   1.102   7.072 -1.6118  2.0919 -0.1814
   88MOL   C39245806   4.774   1.077   7.710 -0.0881  0.1182 -0.1729
   88MOL   C39345807   4.873   1.189   7.707 -0.1245 -0.8565 -0.0957
   88MOL   N39445808   4.829   1.295   7.799 -0.2787  0.1302 -0.3192
   88MOL   C39545809   4.773   1.414   7.763  0.8753 -0.5345  0.1411
   88MOL   C39645810   4.746   1.486   7.878 -0.1499 -0.1543 -0.2032
   88MOL   C39745811   4.674   1.606   7.863  0.3454  0.0485  0.0461
   88MOL   C39845812   4.641   1.660   7.734  0.8823  0.3804 -0.0594
   88MOL   C39945813   4.678   1.587   7.621  0.3712  0.5619 -0.4284
   88MOL   C40045814   4.741   1.464   7.634 -0.0472 -0.1885 -0.1153
   88MOL   C40145815   4.791   1.410   7.993  0.6384  0.4815  0.4190
   88MOL   C40245816   4.842   1.286   7.936  0.2049 -0.3055  0.3454
   88MOL   C40345817   4.881   1.183   8.018 -0.2686  0.7031  0.3033
   88MOL   C40445818   4.882   1.197   8.154  0.2436 -0.1285 -0.6163
   88MOL   C40545819   4.856   1.322   8.211  0.1902 -0.1014  0.2069
   88MOL   C40645820   4.803   1.423   8.135  0.1413 -0.3476  0.3053
   88MOL   H40745821   4.671   1.112   7.700  0.7337  2.3746 -1.2422
   88MOL   H40845822   4.775   1.036   7.811 -1.2362  1.1556  0.2756
   88MOL   H40945823   4.860   1.238   7.610  0.6911  0.0855  0.2677
   88MOL   H41045824   4.659   1.666   7.951  0.8338  1.9244 -1.1129
   88MOL   H41145825   4.598   1.759   7.731  0.8189  0.3327 -0.6380
   88MOL   H41245826   4.654   1.614   7.520  0.1568  2.3101  0.0864
   88MOL   H41345827   4.765   1.406   7.547 -0.0943  0.2626 -0.4307
   88MOL   H41445828   4.912   1.086   7.981 -1.1303  0.7666 -0.6190
   88MOL   H41545829   4.927   1.124   8.220 -0.8725 -0.3401 -0.0594
   88MOL   H41645830   4.870   1.338   0.090 -1.3546 -0.8364  0.5234
   88MOL   H41745831   4.782   1.520   8.176  2.0972  0.1815  0.0677
   88MOL   C41845832   5.022   1.154   7.722  0.2252 -0.1474 -0.4930
   88MOL   C41945833   5.120   1.268   7.695  0.7864  0.6896  0.2560
   88MOL   N42045834   5.242   1.251   7.772 -0.0970  0.1529 -0.0882
   88MOL   C42145835   5.289   1.341   7.868 -0.4563 -0.3945 -0.0442
   88MOL   C42245836   5.414   1.294   7.916 -0.4208 -0.4751  0.2714
   88MOL   C42345837   5.481   1.380   8.003 -0.1609 -0.0342  0.0275
   88MOL   C42445838   5.434   1.505   8.042 -0.4683 -0.0323  0.8705
   88MOL   C42545839   5.315   1.550   7.989 -0.0366  0.3394 -0.0596
   88MOL   C42645840   5.238   1.468   7.907 -0.0874  0.1305  0.1556
   88MOL   C42745841   5.433   1.161   7.864 -0.0489 -0.9003 -0.0073
   88MOL   C42845842   5.323   1.133   7.781  0.7204 -0.2047 -0.5680
   88MOL   C42945843   5.317   1.005   7.716 -0.5296 -0.1800  0.1252
   88MOL   C43045844   5.424   0.913   7.730 -0.1899 -0.3855  0.5866
   88MOL   C43145845   5.527   0.933   7.819  0.2386 -0.2252 -0.7227
   88MOL   C43245846   5.530   1.059   7.883 -0.0177  0.5606  0.4567
   88MOL   H43345847   5.037   1.117   7.823  0.5368 -1.3259 -0.9719
   88MOL   H43445848   5.046   1.076   7.651 -0.8951  0.5945 -1.7136
   88MOL   H43545849   5.077   1.360   7.734  0.1030  0.0513  1.0282
   88MOL   H43645850   5.572   1.339   8.044 -0.4762 -0.0531  0.7168
   88MOL   H43745851   5.496   1.576   8.094  0.2163  1.3477 -1.7399
   88MOL   H43845852   5.282   1.649   8.015 -0.7409  0.4112 -1.1735
   88MOL   H43945853   5.149   1.517   7.871 -1.9800 -2.0410  1.7109
   88MOL   H44045854   5.239   0.994   7.642 -2.2956  2.1341  1.5574
   88MOL   H44145855   5.432   0.827   7.665  0.1032 -0.4959  0.7714
   88MOL   H44245856   5.604   0.858   7.832  0.1000 -0.7885 -2.9634
   88MOL   H44345857   5.610   1.077   7.953  0.2261  2.2984 -0.2387
   88MOL   C44445858   5.137   1.282   7.544  0.7237 -0.4365 -0.1379
   88MOL   C44545859   5.277   1.304   7.490  0.9826  0.5190 -0.2741
   88MOL   N44645860   5.279   1.288   7.344  0.5255  0.5365 -0.0570
   88MOL   C44745861   5.344   1.184   7.271  0.3659 -0.0481 -0.5821
   88MOL   C44845862   5.330   1.216   7.137 -0.2185  1.0960 -0.6052
   88MOL   C44945863   5.399   1.125   7.045  0.4696 -0.6381 -0.8644
   88MOL   C45045864   5.474   1.009   7.092  0.9784  0.6413 -0.8533
   88MOL   C45145865   5.484   0.985   7.231  0.2807 -0.2861  0.4554
   88MOL   C45245866   5.408   1.071   7.320 -0.1488 -0.3012  0.2918
   88MOL   C45345867   5.248   1.336   7.121 -0.7182 -0.2705 -0.2414
   88MOL   C45445868   5.218   1.378   7.255 -0.0352 -0.0333 -0.0686
   88MOL   C45545869   5.146   1.500   7.272  0.6022  0.0307  0.8580
   88MOL   C45645870   5.094   1.569   7.163 -0.7108 -0.2712 -0.3343
   88MOL   C45745871   5.125   1.527   7.031 -0.1939 -0.1969 -0.6245
   88MOL   C45845872   5.201   1.413   7.009 -0.0738 -0.1484 -0.1235
   88MOL   H45945873   5.101   1.196   7.489 -0.4796  0.2629 -0.4707
   88MOL   H46045874   5.065   1.361   7.520  0.7926 -0.7949 -1.5226
   88MOL   H46145875   5.339   1.220   7.523  1.8131  1.3169  0.1906
   88MOL   H46245876   5.394   1.162   6.944 -0.6050  1.5263 -0.0563
   88MOL   H46345877   5.516   0.944   7.016  0.1480 -2.9671  1.6520
   88MOL   H46445878   5.537   0.898   7.266 -0.5411 -0.4810  1.2203
   88MOL   H46545879   5.423   1.046   7.424  0.3677  0.5851  0.4364
   88MOL   H46645880   5.115   1.544   7.366 -1.1550  0.9527 -0.1226
   88MOL   H46745881   5.038   1.656   7.193 -1.1967 -0.5329 -0.4906
   88MOL   H46845882   5.103   1.593   6.949 -0.7337 -0.9572 -1.1019
   88MOL   H46945883   5.233   1.379   6.911  2.0151 -2.2367  1.2424
   88MOL   C47045884   5.351   1.429   7.525 -0.2470  0.5091 -0.9377
   88MOL   C47145885   5.504   1.427   7.502  0.7327 -0.0116 -0.3690
   88MOL   N47245886   5.550   1.567   7.505 -0.4607  0.3179  0.2646
   88MOL   C47345887   5.546   1.654   7.400  0.2685 -0.1392 -0.2491
   88MOL   C47445888   5.595   1.781   7.433 -0.0503  0.6338  0.1762
   88MOL   C47545889   5.597   1.882   7.327 -0.4907 -0.2551 -0.1471
   88MOL   C47645890   5.559   1.853   7.196  0.5236  0.8103  0.3116
   88MOL   C47745891   5.502   1.726   7.169  0.6521  0.1220  0.1476
   88MOL   C47845892   5.501   1.628   7.270 -0.3594  0.3990  0.3046
   88MOL   C47945893   5.630   1.774   7.571 -0.1608  0.1342  0.7243
   88MOL   C48045894   5.594   1.640   7.616 -0.3122 -0.1115 -0.1978
   88MOL   C48145895   5.608   1.610   7.755 -0.1906 -0.4160  0.0756
   88MOL   C48245896   5.656   1.708   7.845 -0.2219 -0.5783  0.1412
   88MOL   C48345897   5.683   1.837   7.800  0.0476 -0.5063  0.4813
   88MOL   C48445898   5.682   1.871   7.660  0.2172  0.1513 -0.5845
   88MOL   H48545899   5.304   1.520   7.487  0.6222  1.3734  0.0563
   88MOL   H48645900   5.339   1.441   7.632 -2.1319  1.7611 -1.2630
   88MOL   H48745901   5.517   1.391   7.400  3.0880  0.7836 -0.3712
   88MOL   H48845902   5.617   1.983   7.358 -1.1740 -0.1381 -0.0711
   88MOL   H48945903   5.556   1.938   7.130  3.2564  0.5174 -0.2629
   88MOL   H49045904   5.454   1.709   7.074  0.3543  1.9001 -0.0335
   88MOL   H49145905   5.457   1.537   7.230  0.5038  0.6583 -1.2680
   88MOL   H49245906   5.585   1.514   7.800 -1.1737 -0.5838 -0.7614
   88MOL   H49345907   5.661   1.693   7.952 -0.5868 -0.8159  0.1270
   88MOL   H49445908   5.725   1.908   7.870 -0.4965 -0.4032  0.7049
   88MOL   H49545909   5.718   1.964   7.619  0.2566  0.6163  0.4887
   88MOL   C49645910   5.584   1.328   7.593 -0.2722 -0.2784  0.3638
   88MOL   C49745911   5.733   1.316   7.570 -0.2481  0.1232  0.0726
   88MOL   N49845912   5.800   1.221   7.662  1.1893 -0.1031  0.0674
   88MOL   C49945913   5.794   1.084   7.648 -0.0821 -0.1349 -0.4057
   88MOL   C50045914   5.857   1.018   7.756  0.2599 -0.0177 -0.6688
   88MOL   C50145915   5.870   0.876   7.753  0.4730 -0.4707  0.2260
   88MOL   C50245916   5.809   0.797   7.662  0.4384  0.5640  0.1894
   88MOL   C50345917   5.741   0.858   7.553  0.4083  0.7470 -0.1131
   88MOL   C50445918   5.731   1.004   7.549  0.7935  0.3301 -0.1232
   88MOL   C50545919   5.888   1.120   7.853 -0.2057  0.0292  0.4471
   88MOL   C50645920   5.868   1.247   7.781 -0.0129  0.2274  0.3963
   88MOL   C50745921   5.900   1.369   7.843 -0.1545 -1.0688 -0.5564
   88MOL   C50845922   5.957   1.369   7.973 -0.0854 -0.5005 -0.1547
   88MOL   C50945923   5.978   1.250   8.040  0.4447 -0.8271 -0.2269
   88MOL   C51045924   5.943   1.127   7.982 -0.0726  0.2157  0.7028
   88MOL   H51145925   5.559   1.353   7.696 -0.5469 -1.0914  0.4990
   88MOL   H51245926   5.553   1.224   7.592  1.3363 -0.7900  1.2161
   88MOL   H51345927   5.783   1.410   7.591 -0.4848  0.5974 -1.4001
   88MOL   H51445928   5.927   0.831   7.833 -0.8614 -0.8906  0.9641
   88MOL   H51545929   5.808   0.689   7.673 -2.0336  0.5450  0.2235
   88MOL   H51645930   5.699   0.792   7.478 -3.2357  2.8465 -0.0455
   88MOL   H51745931   5.685   1.046   7.461  0.4960 -1.2640 -0.7422
   88MOL   H51845932   5.887   1.465   7.795  0.0778 -0.3650  0.7533
   88MOL   H51945933   5.991   1.459   8.022 -0.2424 -1.1481  1.1741
   88MOL   H52045934   6.027   1.257   8.137  2.8029 -2.4827 -1.2569
   88MOL   H52145935   5.966   1.032   8.027 -1.1951 -0.3994 -0.0038
   88MOL   H52245936   5.747   1.285   7.466  2.7397  1.7793 -0.0691
   89MOL     C145937   5.641   8.227   2.914  0.1313 -0.1514  1.4595
   89MOL     C245938   5.569   8.173   2.793 -0.6670 -0.9021  0.1203
   89MOL     N345939   5.425   8.188   2.803  0.3261  0.8239  0.3676
   89MOL     C445940   5.335   8.084   2.786 -0.1805 -0.3551 -0.0798
   89MOL     C545941   5.206   8.141   2.785 -0.3191  0.2366 -0.4311
   89MOL     C645942   5.098   8.052   2.762  0.0633 -0.3954  0.0024
   89MOL     C745943   5.113   7.914   2.755 -0.0613 -0.5598  0.3637
   89MOL     C845944   5.242   7.853   2.751  0.6710  0.0915  0.0380
   89MOL     C945945   5.352   7.942   2.772  0.2470 -0.3523  0.0885
   89MOL    C1045946   5.221   0.056   2.803  0.1651 -0.3612  0.5452
   89MOL    C1145947   5.360   0.082   2.817 -0.0078 -0.6963  0.0701
   89MOL    C1245948   5.406   0.216   2.838 -0.1022 -0.2504  0.1461
   89MOL    C1345949   5.320   0.327   2.859  0.0546 -0.3774 -0.2486
   89MOL    C1445950   5.186   0.303   2.833  0.1677 -0.1811  0.1821
   89MOL    C1545951   5.135   0.169   2.806  0.4216  0.4554  0.4715
   89MOL    H1645952   5.587   8.215   3.008 -1.5618 -2.0313  0.2890
   89MOL    H1745953   5.660   0.107   2.903 -1.0335 -0.1013 -0.2707
   89MOL    H1845954   5.583   8.066   2.804  0.3529 -0.7007  0.8204
   89MOL    H1945955   4.997   8.089   2.752  0.5536  0.6034 -1.3360
   89MOL    H2045956   5.026   7.854   2.733 -1.8632  2.3765 -0.8521
   89MOL    H2145957   5.254   7.747   2.738 -0.1193  0.0418 -0.2939
   89MOL    H2245958   5.454   7.906   2.775 -0.2187 -2.0729 -2.8247
   89MOL    H2345959   5.509   0.243   2.853  0.6200 -2.8205 -0.0151
   89MOL    H2445960   5.364   0.425   2.873  2.0936 -1.3448  0.3538
   89MOL    H2545961   5.117   0.385   2.842 -0.7713 -0.9967  0.6699
   89MOL    H2645962   5.031   0.147   2.788  0.3697  0.1144  1.1839
   89MOL    H2745963   5.739   8.180   2.920 -0.4725 -1.5205  0.6961
   89MOL    C2845964   5.633   8.223   2.661 -0.6166  0.0427 -0.4318
   89MOL    C2945965   5.557   8.178   2.522  0.6058 -0.2264  0.2755
   89MOL    N3045966   5.586   0.052   2.419  0.0069  0.1950  0.1803
   89MOL    C3145967   5.507   0.159   2.379  0.4625 -0.3920 -0.1522
   89MOL    C3245968   5.576   0.223   2.273 -0.2360 -0.2523  0.3789
   89MOL    C3345969   5.515   0.338   2.213  0.1436 -0.2818 -0.1790
   89MOL    C3445970   5.392   0.387   2.263 -0.3556 -0.3736  0.1436
   89MOL    C3545971   5.324   0.323   2.372 -0.5968 -0.1288  0.3486
   89MOL    C3645972   5.378   0.204   2.424 -0.1653 -0.2719 -0.0246
   89MOL    C3745973   5.694   0.150   2.245  0.2343 -0.0331  0.0795
   89MOL    C3845974   5.710   0.055   2.351  0.8406  0.7193 -1.1188
   89MOL    C3945975   5.823   8.202   2.361  0.2323  0.1031  0.3107
   89MOL    C4045976   5.926   8.219   2.270 -0.2845  0.7980  1.1028
   89MOL    C4145977   5.922   0.088   2.172  0.4196  0.0140  0.1177
   89MOL    C4245978   5.803   0.166   2.159 -0.4464 -0.0336 -0.6194
   89MOL    H4345979   5.642   0.104   2.664 -1.1013  0.1847 -2.8403
   89MOL    H4445980   5.735   8.185   2.653 -1.0824 -1.4144  0.3603
   89MOL    H4545981   5.454   8.205   2.545 -0.1061 -0.8261 -2.0383
   89MOL    H4645982   5.569   0.394   2.138 -2.4688  1.1241 -1.0391
   89MOL    H4745983   5.344   0.478   2.230 -0.6398 -0.2980  0.7613
   89MOL    H4845984   5.226   0.362   2.397 -0.1687  1.4850 -0.3856
   89MOL    H4945985   5.327   0.151   2.504  0.2094  0.0888  0.4556
   89MOL    H5045986   5.830   8.138   2.447  0.6798 -1.4679 -0.8795
   89MOL    H5145987   6.019   8.167   2.286  0.8379  2.1093 -0.9343
   89MOL    H5245988   6.009   0.118   2.117 -0.0420  2.5705  0.7188
   89MOL    H5345989   5.798   0.241   2.081 -1.9982 -0.9834 -1.4769
   89MOL    C5445990   5.561   8.035   2.476  0.0233  0.7198 -1.1094
   89MOL    C5545991   5.456   8.002   2.369 -1.0463 -0.0685  0.5523
   89MOL    N5645992   5.487   7.873   2.297  0.1592  0.3269 -0.0710
   89MOL    C5745993   5.566   7.858   2.184  0.1234 -0.1230 -1.1182
   89MOL    C5845994   5.587   7.725   2.154 -0.1237 -0.0205  0.3455
   89MOL    C5945995   5.661   7.687   2.039 -0.1666  0.1090  0.3940
   89MOL    C6045996   5.723   7.788   1.966  0.1974  0.0752  0.0309
   89MOL    C6145997   5.708   7.923   1.994 -0.6004 -0.6636 -0.6247
   89MOL    C6245998   5.633   7.957   2.105  0.0746  0.0941 -0.1207
   89MOL    C6345999   5.513   7.645   2.253  0.5389 -0.3210 -0.5126
   89MOL    C6446000   5.465   7.740   2.345 -0.3777 -0.4426  0.8793
   89MOL    C6546001   5.405   7.701   2.465 -1.1823 -0.3723 -0.0055
   89MOL    C6646002   5.379   7.569   2.492 -0.5930 -0.9673  0.3472
   89MOL    C6746003   5.413   7.468   2.398 -0.4014 -0.7482 -0.6956
   89MOL    C6846004   5.482   7.506   2.279  0.6211 -0.3462  0.3476
   89MOL    H6946005   5.665   8.006   2.458 -0.8358 -1.1631 -3.2807
   89MOL    H7046006   5.537   7.970   2.561  1.4371  0.6912 -0.7155
   89MOL    H7146007   5.471   8.082   2.297 -0.1670 -0.1631  0.6280
   89MOL    H7246008   5.676   7.586   2.001  2.3681  0.3391  0.7027
   89MOL    H7346009   5.794   7.770   1.886  0.8762  1.4663  0.3043
   89MOL    H7446010   5.748   8.002   1.932 -0.5049  0.0711  0.3696
   89MOL    H7546011   5.619   8.062   2.130 -0.7986  0.0013 -0.2021
   89MOL    H7646012   5.373   7.784   2.527 -1.4329  1.2381 -2.2652
   89MOL    H7746013   5.333   7.548   2.587 -0.6335  2.7708  1.2495
   89MOL    H7846014   5.393   7.365   2.422 -2.2065 -0.4057 -0.6841
   89MOL    H7946015   5.493   7.431   2.203 -1.3267  2.1368 -2.4968
   89MOL    C8046016   5.310   8.023   2.418  0.4264  0.6301 -0.1462
   89MOL    C8146017   5.203   7.996   2.310  0.2353 -0.3200  0.6060
   89MOL    N8246018   5.072   7.978   2.369  0.3968 -0.0259 -0.0874
   89MOL    C8346019   4.998   7.856   2.360 -0.1831  0.2166 -0.0016
   89MOL    C8446020   4.875   7.879   2.419  0.4470  0.2505 -0.0473
   89MOL    C8546021   4.784   7.772   2.428  0.2313 -0.1250  0.8277
   89MOL    C8646022   4.815   7.653   2.365  0.1864  0.9337  0.5888
   89MOL    C8746023   4.944   7.632   2.308  0.1969  0.7276 -0.2736
   89MOL    C8846024   5.037   7.734   2.308  0.3388  0.7647  0.0877
   89MOL    C8946025   4.864   8.016   2.459  0.0780 -0.3332  0.3453
   89MOL    C9046026   4.992   8.077   2.427  0.1981 -0.5628 -0.4488
   89MOL    C9146027   5.010   8.215   2.456  0.5030 -0.0811  0.3200
   89MOL    C9246028   4.906   0.070   2.501 -0.2951 -0.8183 -0.3908
   89MOL    C9346029   4.782   0.013   2.539 -0.3784 -0.9222 -0.5634
   89MOL    C9446030   4.768   8.094   2.523 -0.6979  0.0975 -0.5098
   89MOL    H9546031   5.289   7.978   2.516  2.1650 -1.0698 -0.5115
   89MOL    H9646032   5.288   8.123   2.454 -0.7426 -0.0665  1.1368
   89MOL    H9746033   5.228   7.903   2.259 -0.2678 -0.2914  0.2922
   89MOL    H9846034   4.689   7.793   2.475 -0.7925  0.2243 -1.3467
   89MOL    H9946035   4.738   7.578   2.363 -0.2974  1.4385 -2.2000
   89MOL   H10046036   4.963   7.535   2.264 -0.7172  0.5561 -0.3049
   89MOL   H10146037   5.137   7.719   2.270 -0.2287  0.3265 -1.2534
   89MOL   H10246038   5.101   0.033   2.420 -0.4535  2.1804  0.6724
   89MOL   H10346039   4.918   0.174   2.527 -0.7006 -0.0575 -3.0710
   89MOL   H10446040   4.703   0.074   2.581  1.1101  0.2130  0.6613
   89MOL   H10546041   4.679   8.048   2.563  0.1518 -1.6670 -0.5790
   89MOL   C10646042   5.206   8.103   2.188 -0.1779 -0.3556  0.1543
   89MOL   C10746043   5.149   8.051   2.060  0.1166 -0.0521 -0.0779
   89MOL   N10846044   5.089   8.162   1.989 -0.2107  0.6468 -0.5032
   89MOL   C10946045   4.954   8.191   1.985  0.1304 -0.4369  0.0448
   89MOL   C11046046   4.932   0.087   1.913 -0.2884 -0.3160 -0.2343
   89MOL   C11146047   4.796   0.128   1.887 -0.3443  0.5707 -0.0780
   89MOL   C11246048   4.689   0.048   1.929 -0.6479 -0.6062 -0.3974
   89MOL   C11346049   4.711   8.156   1.997 -0.5786  0.3826  0.6282
   89MOL   C11446050   4.843   8.114   2.022 -0.0015 -0.1034  1.2958
   89MOL   C11546051   5.063   0.137   1.885 -0.1175  0.3260  0.1570
   89MOL   C11646052   5.159   0.043   1.932  0.0385  0.0345 -1.2844
   89MOL   C11746053   5.300   0.068   1.914 -0.6981  0.2017 -0.4445
   89MOL   C11846054   5.345   0.181   1.847 -0.6516 -0.2090 -0.4844
   89MOL   C11946055   5.252   0.269   1.799  0.1555  0.2387 -0.1799
   89MOL   C12046056   5.111   0.247   1.815  0.1279 -0.7753  0.4941
   89MOL   H12146057   5.167   8.198   2.226  4.3140  1.5437  0.4126
   89MOL   H12246058   5.307   8.140   2.170 -1.0352  1.1608 -1.7531
   89MOL   H12346059   5.070   7.985   2.095 -0.7112  0.9605 -0.0099
   89MOL   H12446060   4.771   0.211   1.822 -4.6584 -1.1563 -0.7631
   89MOL   H12546061   4.587   0.076   1.904 -0.6101 -0.3500 -0.2670
   89MOL   H12646062   4.629   8.087   2.012 -0.1137 -0.2118  0.4634
   89MOL   H12746063   4.859   8.016   2.064  0.0570  0.0791  1.7021
   89MOL   H12846064   5.382   0.004   1.942 -0.4794  0.5747 -0.2303
   89MOL   H12946065   5.451   0.198   1.833 -0.6069  0.2565  0.4051
   89MOL   H13046066   5.276   0.358   1.743  3.4388 -0.9369 -0.7465
   89MOL   H13146067   5.044   0.325   1.781  0.1578 -1.1831 -0.5321
   89MOL   C13246068   5.251   7.964   1.978  1.0731  0.2154 -0.0360
   89MOL   C13346069   5.221   7.917   1.835 -0.1145 -0.4505  0.5404
   89MOL   N13446070   5.324   7.822   1.790 -0.5315  0.0218  0.2973
   89MOL   C13546071   5.436   7.859   1.717 -0.5007 -0.5172 -0.3129
   89MOL   C13646072   5.525   7.753   1.697 -0.8901  0.7034 -0.9021
   89MOL   C13746073   5.638   7.769   1.612  0.2694  0.2504  0.1694
   89MOL   C13846074   5.663   7.892   1.548  0.2196 -0.3470 -0.2177
   89MOL   C13946075   5.575   8.002   1.572 -0.3596  0.4758 -0.0080
   89MOL   C14046076   5.467   7.988   1.660 -0.9528  0.1261  0.0406
   89MOL   C14146077   5.473   7.649   1.783 -0.0026  0.0050  0.1856
   89MOL   C14246078   5.343   7.692   1.834 -0.3552 -0.1171 -0.0581
   89MOL   C14346079   5.271   7.618   1.925  0.3686  0.5952  0.2900
   89MOL   C14446080   5.309   7.489   1.951 -0.2056 -0.6613  0.6659
   89MOL   C14546081   5.430   7.440   1.898 -0.0655  0.0878  0.9908
   89MOL   C14646082   5.513   7.517   1.811 -0.2452  0.4402  0.3465
   89MOL   H14746083   5.346   8.019   1.973  0.4884  1.3473  1.1027
   89MOL   H14846084   5.274   7.875   2.037  0.6292 -0.0251 -0.2246
   89MOL   H14946085   5.226   8.011   1.779 -0.6479  0.9621  2.7583
   89MOL   H15046086   5.703   7.683   1.603 -0.2029 -0.1965  1.1029
   89MOL   H15146087   5.752   7.891   1.487  0.7455  0.1487  0.5314
   89MOL   H15246088   5.598   8.095   1.521  2.6259 -0.6329 -0.8097
   89MOL   H15346089   5.407   8.077   1.664 -2.1848 -0.5758 -2.0626
   89MOL   H15446090   5.191   7.662   1.983  0.4418  1.1126 -0.0010
   89MOL   H15546091   5.242   7.435   2.016 -2.4639 -0.6278 -1.5920
   89MOL   H15646092   5.457   7.337   1.915  1.4422  0.6222  1.9210
   89MOL   H15746093   5.606   7.481   1.771 -0.2604  1.1031 -0.2910
   89MOL   C15846094   5.077   7.859   1.811 -0.2428 -0.6895  0.1785
   89MOL   C15946095   4.988   7.940   1.706  0.0323 -0.7012  0.0452
   89MOL   N16046096   5.055   7.941   1.573  0.0948  0.2018  0.1956
   89MOL   C16146097   5.097   8.057   1.501 -0.3204 -0.1568 -0.4730
   89MOL   C16246098   5.144   8.016   1.372 -0.1379 -0.2131  0.0161
   89MOL   C16346099   5.192   8.112   1.290 -0.0651  1.0541  0.5313
   89MOL   C16446100   5.189   0.025   1.325  0.3533  0.5106  0.8840
   89MOL   C16546101   5.152   0.065   1.455  0.3254  0.8968 -0.0073
   89MOL   C16646102   5.101   8.197   1.538  0.0382 -0.7054 -0.7531
   89MOL   C16746103   5.125   7.874   1.365  0.0962  0.4131 -0.7061
   89MOL   C16846104   5.077   7.832   1.495  0.0557  0.5628 -0.1956
   89MOL   C16946105   5.056   7.695   1.522  0.1012  0.6872  0.3792
   89MOL   C17046106   5.080   7.601   1.421 -0.0215 -0.1611  0.5899
   89MOL   C17146107   5.126   7.650   1.294  0.3801 -0.1216  0.4724
   89MOL   C17246108   5.140   7.784   1.264  0.0151  0.2272  0.0785
   89MOL   H17346109   5.067   7.754   1.786  2.0434 -0.6301 -1.1625
   89MOL   H17446110   5.024   7.858   1.906 -2.3960 -0.1509 -0.9870
   89MOL   H17546111   4.984   8.045   1.738 -2.4640 -1.1327  1.3513
   89MOL   H17646112   5.215   8.068   1.194 -0.9093 -1.7505  1.5890
   89MOL   H17746113   5.212   0.089   1.241 -1.7671 -2.0695 -1.8027
   89MOL   H17846114   5.156   0.169   1.483 -0.2612  1.0034 -0.2988
   89MOL   H17946115   5.067   8.222   1.638 -0.3923 -0.1104 -1.0450
   89MOL   H18046116   5.023   7.658   1.618 -0.0184  1.8427  0.7923
   89MOL   H18146117   5.072   7.497   1.448 -0.0088 -0.1532  0.6252
   89MOL   H18246118   5.141   7.582   1.212  1.0434  2.2297 -1.4077
   89MOL   H18346119   5.175   7.815   1.167 -0.3223 -1.0736 -0.4676
   89MOL   C18446120   4.845   7.882   1.707  0.5097  1.2096 -0.5072
   89MOL   C18546121   4.754   7.917   1.592  0.3119 -0.0031 -0.1101
   89MOL   N18646122   4.637   7.827   1.587 -0.2286 -0.1574 -0.8839
   89MOL   C18746123   4.610   7.739   1.480 -0.4710 -0.4042 -0.4192
   89MOL   C18846124   4.487   7.671   1.499  0.7141 -0.4718 -0.6044
   89MOL   C18946125   4.438   7.588   1.397  0.2998  0.8603 -0.3058
   89MOL   C19046126   4.510   7.570   1.276  0.3836  0.0743 -0.1688
   89MOL   C19146127   4.637   7.637   1.260  0.3959 -1.0785  0.3057
   89MOL   C19246128   4.685   7.716   1.362  0.5182 -0.3250 -0.4822
   89MOL   C19346129   4.440   7.709   1.633 -0.1264  0.2937 -0.6189
   89MOL   C19446130   4.534   7.807   1.683  0.8078  0.2891  1.2533
   89MOL   C19546131   4.499   7.875   1.800  0.1143  0.6348  0.3768
   89MOL   C19646132   4.387   7.843   1.875  0.0012 -0.1190 -0.9212
   89MOL   C19746133   4.305   7.738   1.834  0.1578 -0.1879  0.5342
   89MOL   C19846134   4.338   7.665   1.717 -0.1620  0.2937 -0.1970
   89MOL   H19946135   4.851   7.774   1.722  0.6625  1.1833 -0.7367
   89MOL   H20046136   4.798   7.915   1.799 -0.3105  0.9647 -0.8365
   89MOL   H20146137   4.808   7.898   1.500 -0.9258 -0.1871 -0.7963
   89MOL   H20246138   4.347   7.529   1.401  1.4210 -0.8472  0.6304
   89MOL   H20346139   4.468   7.511   1.195 -0.9507 -1.1779  1.4079
   89MOL   H20446140   4.701   7.632   1.172  1.0052 -0.8500  0.7343
   89MOL   H20546141   4.783   7.761   1.359  0.5381 -0.3370  0.0458
   89MOL   H20646142   4.551   7.962   1.836  0.7551  1.4070 -2.3451
   89MOL   H20746143   4.369   7.896   1.967  3.0195 -0.8802  0.1413
   89MOL   H20846144   4.226   7.702   1.898 -0.2647  0.2394  0.2588
   89MOL   H20946145   4.280   7.577   1.694  0.7665 -0.9578  2.0323
   89MOL   C21046146   4.722   8.067   1.581  0.2920 -0.5186  0.7954
   89MOL   C21146147   4.675   8.113   1.437 -0.2897 -0.4901 -0.8723
   89MOL   N21246148   4.611   0.024   1.447 -0.6343 -0.0043 -0.4568
   89MOL   C21346149   4.479   0.057   1.422  0.8113 -0.0794  1.2868
   89MOL   C21446150   4.450   0.190   1.447  0.4222 -0.4530 -0.2484
   89MOL   C21546151   4.320   0.242   1.423  0.2409  0.1169  0.2026
   89MOL   C21646152   4.215   0.162   1.372  0.2359  0.0986 -0.5235
   89MOL   C21746153   4.244   0.028   1.354 -0.3455  0.1075 -0.2660
   89MOL   C21846154   4.376   8.205   1.375 -0.1221  0.7271 -0.3732
   89MOL   C21946155   4.581   0.248   1.489  0.0698 -0.1020 -0.2003
   89MOL   C22046156   4.676   0.141   1.491 -0.7011 -0.2777 -0.1668
   89MOL   C22146157   4.810   0.171   1.520  0.3923 -0.1551 -0.0356
   89MOL   C22246158   4.856   0.297   1.555 -0.2492 -0.2433  0.1158
   89MOL   C22346159   4.764   0.397   1.563  0.4507 -0.1856 -0.7056
   89MOL   C22446160   4.624   0.375   1.529 -0.3991  0.8677 -0.2472
   89MOL   H22546161   4.644   8.096   1.651 -1.4989 -2.2722 -0.4182
   89MOL   H22646162   4.813   8.121   1.605  0.0952  0.4432 -0.5384
   89MOL   H22746163   4.596   8.042   1.412 -0.2740 -0.8646  0.1037
   89MOL   H22846164   4.296   0.346   1.437  0.9434 -0.0615  2.9729
   89MOL   H22946165   4.118   0.196   1.339 -0.0183 -0.7862 -0.7156
   89MOL   H23046166   4.167   8.184   1.329  0.4889 -1.3118  1.0595
   89MOL   H23146167   4.407   8.103   1.357  2.9630  1.9825 -2.7139
   89MOL   H23246168   4.887   0.098   1.499  0.3802 -1.0893  2.9214
   89MOL   H23346169   4.959   0.318   1.581 -0.4218  0.2137  0.4544
   89MOL   H23446170   4.784   0.503   1.571  1.7947 -0.5059  0.2222
   89MOL   H23546171   4.561   0.462   1.521 -1.0779  0.5027  1.0044
   89MOL   C23646172   4.782   8.091   1.324 -0.3552 -0.0464 -0.6691
   89MOL   C23746173   4.761   8.157   1.183 -0.8806  0.2060 -0.6181
   89MOL   N23846174   4.884   8.131   1.102 -0.1745 -0.3081 -0.0450
   89MOL   C23946175   4.972   0.000   1.047  0.5597 -0.0505  0.0124
   89MOL   C24046176   5.071   8.160   0.966  0.5366  0.0802 -0.6704
   89MOL   C24146177   5.178   0.011   0.911  0.0385 -0.1792  0.0181
   89MOL   C24246178   5.170   0.150   0.919  0.4985  0.1236  0.3728
   89MOL   C24346179   5.065   0.215   0.983  0.2905  0.1599  0.6579
   89MOL   C24446180   4.969   0.144   1.055  0.1847  0.0696  0.4899
   89MOL   C24546181   5.039   8.024   0.962 -0.1859  0.6860  0.0019
   89MOL   C24646182   4.922   8.009   1.046 -0.0371 -0.4654  0.9414
   89MOL   C24746183   4.872   7.880   1.067  1.1930 -0.3857  0.1446
   89MOL   C24846184   4.931   7.763   1.011  0.6044  0.3616  0.4809
   89MOL   C24946185   5.048   7.782   0.930 -0.1481  0.0962  0.1572
   89MOL   C25046186   5.108   7.910   0.916  0.5738 -0.1801  0.2525
   89MOL   H25146187   4.863   8.141   1.376 -1.3736 -0.4362  1.3473
   89MOL   H25246188   4.827   7.993   1.312  2.5085  1.4602 -2.7682
   89MOL   H25346189   4.754   0.037   1.199 -0.8374  0.4150 -1.9433
   89MOL   H25446190   5.254   8.187   0.854  0.9768  0.0952  1.0058
   89MOL   H25546191   5.254   0.208   0.884  0.0948  0.5406  0.0973
   89MOL   H25646192   5.070   0.323   0.990  0.4731  0.2592 -0.8496
   89MOL   H25746193   4.895   0.194   1.116 -0.2656 -0.0100  0.0198
   89MOL   H25846194   4.787   7.880   1.134 -0.2531 -0.6263 -1.6297
   89MOL   H25946195   4.883   7.666   1.010 -0.7054  0.9671 -2.0448
   89MOL   H26046196   5.104   7.697   0.895  0.2549 -1.6603  4.7756
   89MOL   H26146197   5.203   7.926   0.868  0.5738  0.8010  0.5783
   89MOL   C26246198   4.639   8.102   1.114  0.5886  0.6103  0.2074
   89MOL   C26346199   4.629   8.131   0.958 -0.3447 -0.4779  0.7814
   89MOL   N26446200   4.513   8.062   0.909  0.1106 -0.6197 -0.1724
   89MOL   C26546201   4.497   7.953   0.821  0.5731 -0.5526 -0.4564
   89MOL   C26646202   4.361   7.931   0.783 -0.4110  0.1672  0.2984
   89MOL   C26746203   4.334   7.828   0.695 -0.4249  0.0533  0.2648
   89MOL   C26846204   4.433   7.743   0.635 -1.1315  0.0544  0.3918
   89MOL   C26946205   4.567   7.769   0.674  0.1841  0.6459  0.5370
   89MOL   C27046206   4.598   7.870   0.762  0.6163  0.5778  0.3057
   89MOL   C27146207   4.293   8.025   0.863  0.9391  0.2642  0.2596
   89MOL   C27246208   4.383   8.105   0.937  0.2003 -0.1251  0.3963
   89MOL   C27346209   4.333   8.202   1.024 -0.0211 -0.6892 -0.1032
   89MOL   C27446210   4.190   8.215   1.034 -0.0545 -0.3501 -0.3461
   89MOL   C27546211   4.101   8.149   0.950  0.9050 -0.3515 -0.3890
   89MOL   C27646212   4.153   8.051   0.869 -0.6362 -0.5548  0.2205
   89MOL   H27746213   4.623   7.997   1.140  0.2969  0.0056 -2.2718
   89MOL   H27846214   4.557   8.156   1.160  0.9520  1.6374 -0.3416
   89MOL   H27946215   4.714   8.089   0.904 -0.4827  2.3788 -1.7971
   89MOL   H28046216   4.234   7.814   0.656 -1.5057  0.3168  2.8428
   89MOL   H28146217   4.401   7.666   0.566 -1.3971 -1.1492  1.8288
   89MOL   H28246218   4.648   7.704   0.642  0.3622  1.2263 -0.2162
   89MOL   H28346219   4.698   7.890   0.798  2.3752 -3.0558 -2.2272
   89MOL   H28446220   4.402   0.035   1.081 -1.1908 -1.0314  1.7249
   89MOL   H28546221   4.162   0.058   1.112 -0.4683 -0.9272  0.0319
   89MOL   H28646222   3.995   8.164   0.959  0.8651 -0.8930  0.1093
   89MOL   H28746223   4.093   7.988   0.806  1.3109 -0.5417 -1.6696
   89MOL   C28846224   4.641   0.048   0.916  0.0436  0.9257  0.1315
   89MOL   C28946225   4.582   0.088   0.772  0.2146 -0.4323 -0.7433
   89MOL   N29046226   4.534   0.223   0.797 -0.6291  0.5075 -0.2024
   89MOL   C29146227   4.399   0.262   0.799 -0.9254  0.1803 -0.3788
   89MOL   C29246228   4.392   0.395   0.848  0.2383 -0.4286 -0.4071
   89MOL   C29346229   4.266   0.450   0.886  0.4099  0.4255 -0.2278
   89MOL   C29446230   4.149   0.380   0.857 -0.2002 -0.7852 -0.4219
   89MOL   C29546231   4.159   0.251   0.799 -0.2620  0.2828 -0.2506
   89MOL   C29646232   4.284   0.191   0.770  0.3595 -0.1349 -0.8720
   89MOL   C29746233   4.530   0.448   0.866 -0.3105  0.7316 -0.5406
   89MOL   C29846234   4.612   0.336   0.837 -0.0981  0.1374  0.1270
   89MOL   C29946235   4.750   0.348   0.856 -0.6139 -0.1057  0.3931
   89MOL   C30046236   4.814   0.470   0.890  0.3243 -0.0352 -0.1578
   89MOL   C30146237   4.737   0.584   0.923  0.5616  0.5467 -0.0414
   89MOL   C30246238   4.592   0.565   0.921  0.6873  0.2600 -0.1618
   89MOL   H30346239   4.587   0.105   0.991 -0.1776  0.8761  0.0092
   89MOL   H30446240   4.745   0.080   0.927  0.4395 -0.7866  1.6359
   89MOL   H30546241   4.496   0.026   0.746 -1.1002  1.2014 -0.4072
   89MOL   H30646242   4.260   0.549   0.929 -0.7606  1.0355 -1.7775
   89MOL   H30746243   4.049   0.417   0.875 -0.3221 -0.3430 -1.8943
   89MOL   H30846244   4.070   0.195   0.777 -1.6447  1.9895  0.8285
   89MOL   H30946245   4.282   0.092   0.727 -2.6182  0.2971 -1.8834
   89MOL   H31046246   4.819   0.265   0.848 -2.3903 -1.5325 -0.6671
   89MOL   H31146247   4.921   0.484   0.901 -0.0217  2.8114 -0.0829
   89MOL   H31246248   4.782   0.677   0.954  0.3682  0.4994  0.3841
   89MOL   H31346249   4.531   0.650   0.949  2.4528  1.5821 -0.3003
   89MOL   C31446250   4.679   0.088   0.659  0.4628  0.3636 -0.4191
   89MOL   C31546251   4.630   0.038   0.521 -0.4829  0.0937 -0.6010
   89MOL   N31646252   4.505   0.103   0.490 -0.0633 -0.0001 -0.1748
   89MOL   C31746253   4.385   0.033   0.460 -0.0897  0.7298  0.3141
   89MOL   C31846254   4.276   0.128   0.450 -0.0815  0.0821 -0.8375
   89MOL   C31946255   4.142   0.087   0.432  0.1056  0.3049  1.0354
   89MOL   C32046256   4.116   8.183   0.405 -0.0672  0.2007  0.1482
   89MOL   C32146257   4.221   8.092   0.410 -0.1602 -0.1398  0.5383
   89MOL   C32246258   4.357   8.128   0.432  0.7243  0.6741 -0.5612
   89MOL   C32346259   4.337   0.260   0.454  0.0045 -0.1921 -0.1955
   89MOL   C32446260   4.474   0.236   0.475  0.1837  0.0628 -0.1098
   89MOL   C32546261   4.559   0.347   0.481 -0.2092 -0.4016 -0.2594
   89MOL   C32646262   4.519   0.482   0.463  0.1047 -0.5479  0.5014
   89MOL   C32746263   4.383   0.507   0.441  1.1918 -0.0235 -0.2691
   89MOL   C32846264   4.290   0.394   0.436  0.3313  0.0278 -0.0003
   89MOL   H32946265   4.724   0.186   0.648  2.8289 -0.5665  0.7749
   89MOL   H33046266   4.768   0.029   0.679  1.0347  2.1248  2.3981
   89MOL   H33146267   4.615   8.158   0.532 -1.8542  0.3830  0.5096
   89MOL   H33246268   4.076   0.172   0.430  0.7928  0.8258 -0.1206
   89MOL   H33346269   4.018   8.148   0.374  0.1261  0.9645 -1.3639
   89MOL   H33446270   4.205   7.988   0.385 -0.1688 -0.3856  1.5481
   89MOL   H33546271   4.426   8.045   0.437  0.3936  0.5180  1.9675
   89MOL   H33646272   4.662   0.331   0.510  0.3058  0.7127 -1.4391
   89MOL   H33746273   4.590   0.563   0.473  0.5783 -1.0812  1.6239
   89MOL   H33846274   4.343   0.607   0.430  1.1603 -0.3343 -3.2901
   89MOL   H33946275   4.185   0.418   0.427  0.2862  0.3825  1.3806
   89MOL   C34046276   4.725   0.063   0.391  0.5248  0.2147 -0.2500
   89MOL   C34146277   4.841   8.196   0.379  1.0449 -0.5051 -0.2286
   89MOL   N34246278   4.787   8.061   0.351 -0.6603 -0.2250 -0.5313
   89MOL   C34346279   4.823   7.945   0.420 -0.3731  0.5820 -0.2776
   89MOL   C34446280   4.763   7.831   0.358  0.2672 -0.2035 -0.2569
   89MOL   C34546281   4.785   7.703   0.409  0.1303 -0.0154  0.2682
   89MOL   C34646282   4.866   7.685   0.520  0.0389 -0.4008 -0.3127
   89MOL   C34746283   4.928   7.798   0.581  0.4261  0.9265  0.1990
   89MOL   C34846284   4.915   7.925   0.526  0.4046 -0.0118  0.0653
   89MOL   C34946285   4.698   7.887   0.241 -0.9660 -0.6854  0.2785
   89MOL   C35046286   4.708   8.027   0.237 -0.6799  0.6852  0.4517
   89MOL   C35146287   4.650   8.098   0.129 -0.1465 -0.2769 -0.4681
   89MOL   C35246288   4.579   8.034   0.028 -0.3604  0.3810 -0.1569
   89MOL   C35346289   4.556   7.895   0.035  0.4570 -0.7462  0.0370
   89MOL   C35446290   4.621   7.822   0.145  0.4552 -0.5833  0.7820
   89MOL   H35546291   4.667   0.066   0.299  0.0734 -2.1145 -0.0823
   89MOL   H35646292   4.773   0.160   0.401 -1.2626  0.9822  1.2083
   89MOL   H35746293   4.890   8.194   0.476 -0.8466  0.4836  0.7484
   89MOL   H35846294   4.753   7.620   0.348 -0.1164  0.5687 -0.3988
   89MOL   H35946295   4.889   7.587   0.557 -0.4609 -0.9261 -1.3712
   89MOL   H36046296   4.985   7.783   0.672  0.6846  0.7877  0.0152
   89MOL   H36146297   4.970   8.011   0.562 -0.7139  0.7081  0.1076
   89MOL   H36246298   4.676   8.202   0.118 -0.8596 -0.2237 -1.7394
   89MOL   H36346299   4.535   8.092   8.176  0.6577  1.7044  0.2280
   89MOL   H36446300   4.498   7.836   8.193 -0.4138 -0.2373  0.3247
   89MOL   H36546301   4.617   7.714   0.146  1.3130 -0.6213  0.7431
   89MOL   C36646302   4.945   0.001   0.265 -0.5128  0.0473  0.3582
   89MOL   C36746303   5.028   0.129   0.261  0.5144 -0.4133 -0.1958
   89MOL   N36846304   5.090   0.160   0.388 -0.1352  0.3879 -0.4074
   89MOL   C36946305   5.058   0.270   0.468 -0.2024  0.4126  0.4776
   89MOL   C37046306   5.149   0.272   0.577 -0.1649  0.4751  0.3494
   89MOL   C37146307   5.138   0.372   0.677 -0.8551  0.6881 -0.3836
   89MOL   C37246308   5.044   0.477   0.662 -0.4631  0.0110  0.0447
   89MOL   C37346309   4.954   0.478   0.556 -0.4181  0.0163 -0.3185
   89MOL   C37446310   4.959   0.369   0.460  0.0750 -0.2439  0.4707
   89MOL   C37546311   5.242   0.162   0.563 -0.1585 -0.3192 -0.0466
   89MOL   C37646312   5.204   0.094   0.443  0.3890 -0.4212  0.6143
   89MOL   C37746313   5.279   8.218   0.390  0.1420  0.5028 -0.5167
   89MOL   C37846314   5.389   8.174   0.456  0.3500  0.1811 -0.3057
   89MOL   C37946315   5.421   0.003   0.580 -0.0914 -0.2445  0.6212
   89MOL   C38046316   5.347   0.110   0.632 -0.3553  0.0663  0.3809
   89MOL   H38146317   5.006   8.139   0.251 -0.9650 -0.1591 -0.3542
   89MOL   H38246318   4.884   0.020   0.177 -0.5035 -1.5104 -0.0000
   89MOL   H38346319   4.958   0.207   0.231 -1.3167 -1.4740  1.2022
   89MOL   H38446320   5.206   0.382   0.761 -1.5627  1.2263  0.1406
   89MOL   H38546321   5.047   0.555   0.736  2.2221  1.9182 -1.9736
   89MOL   H38646322   4.882   0.556   0.537 -1.1565 -0.5864  0.0000
   89MOL   H38746323   4.896   0.365   0.372 -0.3534 -0.5926  0.7880
   89MOL   H38846324   5.245   8.170   0.300  0.3694  0.1593 -0.4190
   89MOL   H38946325   5.446   8.098   0.404  3.1194  0.3369  2.3286
   89MOL   H39046326   5.509   8.190   0.629 -1.2725  0.2070  3.2114
   89MOL   H39146327   5.384   0.158   0.721  2.0136  0.4485 -0.7435
   89MOL   C39246328   5.122   0.138   0.143  0.2878 -0.5008 -0.0395
   89MOL   C39346329   5.236   0.243   0.130 -0.0650 -0.5662  0.3967
   89MOL   N39446330   5.309   0.218   0.004  0.3022  0.5940  0.2978
   89MOL   C39546331   5.441   0.171   8.224  0.1967 -0.2174  0.1036
   89MOL   C39646332   5.484   0.178   8.089  0.0775  0.1953  0.0243
   89MOL   C39746333   5.614   0.151   8.058 -0.1436 -0.8740 -0.1187
   89MOL   C39846334   5.712   0.121   8.154  0.5703 -0.1381  0.3396
   89MOL   C39946335   5.671   0.104   0.062  0.1433 -0.0271 -0.5038
   89MOL   C40046336   5.538   0.135   0.092  0.2073 -0.3711 -0.2342
   89MOL   C40146337   5.373   0.220   8.011  0.0533 -0.3992  0.0036
   89MOL   C40246338   5.261   0.237   8.103  0.6418  0.0713  0.2319
   89MOL   C40346339   5.128   0.273   8.054 -0.9656 -0.0132 -0.0773
   89MOL   C40446340   5.107   0.275   7.915 -0.2327  0.5793  0.4171
   89MOL   C40546341   5.216   0.265   7.826 -0.4666  0.6236 -0.3064
   89MOL   C40646342   5.346   0.238   7.877  0.1597  0.6684 -0.4279
   89MOL   H40746343   5.164   0.038   0.128  0.1390 -0.6365  0.4409
   89MOL   H40846344   5.061   0.143   0.053 -0.3567 -2.7405  0.2511
   89MOL   H40946345   5.298   0.213   0.214 -1.3614 -2.2063  0.7935
   89MOL   H41046346   5.642   0.150   7.954 -1.2811  2.3447 -0.4879
   89MOL   H41146347   5.814   0.101   8.124  0.3949 -0.4048 -0.0811
   89MOL   H41246348   5.752   0.081   0.129  1.9338 -0.6593 -2.8411
   89MOL   H41346349   5.515   0.119   0.197  1.0197  0.7142  0.1093
   89MOL   H41446350   5.045   0.289   8.120 -0.5969  1.5217  0.0411
   89MOL   H41546351   5.004   0.298   7.890 -0.7893 -1.0396  1.1678
   89MOL   H41646352   5.219   0.265   7.718  3.1378  1.6929 -0.2508
   89MOL   H41746353   5.429   0.238   7.808  0.6495 -0.5089  0.1474
   89MOL   C41846354   5.182   0.380   0.142 -0.6947  0.0721  0.1135
   89MOL   C41946355   5.275   0.461   0.236 -0.4151  0.5933  0.9538
   89MOL   N42046356   5.421   0.462   0.210  0.0163 -0.7808 -0.3786
   89MOL   C42146357   5.527   0.419   0.294  0.1132 -0.7684  0.2538
   89MOL   C42246358   5.653   0.438   0.233 -0.1727  1.1232  0.5785
   89MOL   C42346359   5.771   0.384   0.299  0.1883 -0.0870 -0.1057
   89MOL   C42446360   5.760   0.327   0.427 -0.2432  0.0200 -0.0274
   89MOL   C42546361   5.636   0.309   0.496  0.0340 -0.0128 -0.1984
   89MOL   C42646362   5.521   0.351   0.422 -0.5041  0.1186  0.2777
   89MOL   C42746363   5.633   0.506   0.114 -0.8437  0.6487 -0.4801
   89MOL   C42846364   5.490   0.526   0.100 -0.0119  0.4925 -0.3028
   89MOL   C42946365   5.439   0.603   8.218  0.2891 -0.1451  0.0613
   89MOL   C43046366   5.529   0.649   8.113 -0.1012 -0.1244 -0.2208
   89MOL   C43146367   5.666   0.642   8.135  0.0061 -0.0258  0.0247
   89MOL   C43246368   5.723   0.566   0.018  0.4488  0.7083  0.4737
   89MOL   H43346369   5.196   0.418   0.041  1.2186 -0.9077 -0.0111
   89MOL   H43446370   5.076   0.399   0.163 -1.2578 -0.5833 -1.9396
   89MOL   H43546371   5.257   0.422   0.336  0.3986 -2.3269  0.0154
   89MOL   H43646372   5.871   0.384   0.259  0.1064  4.1066 -0.5550
   89MOL   H43746373   5.849   0.286   0.474  0.8581  1.6326 -0.6762
   89MOL   H43846374   5.627   0.266   0.595 -4.8201  1.1925  0.0015
   89MOL   H43946375   5.427   0.331   0.472 -1.7255  1.2664 -1.5003
   89MOL   H44046376   5.332   0.619   8.209  0.1486 -1.5625 -0.9849
   89MOL   H44146377   5.497   0.697   8.021  1.3008 -0.3181 -0.8176
   89MOL   H44246378   5.728   0.690   8.060  1.4668 -2.0648 -0.0929
   89MOL   H44346379   5.829   0.547   0.023  0.1008 -1.2342  0.6936
   89MOL   C44446380   5.227   0.605   0.240 -1.3274 -1.0453  0.7105
   89MOL   C44546381   5.288   0.720   0.318 -0.1088  0.1293  0.0015
   89MOL   N44646382   5.217   0.841   0.289  0.2191  0.3415  0.1759
   89MOL   C44746383   5.257   0.935   0.196 -0.2223  0.2998  0.4647
   89MOL   C44846384   5.162   1.044   0.184  0.6757 -0.1362  0.2860
   89MOL   C44946385   5.193   1.153   0.097  0.2001 -0.1502  0.2269
   89MOL   C45046386   5.312   1.139   0.029 -0.2904  0.4373  0.1254
   89MOL   C45146387   5.412   1.043   0.038  0.0906  0.2801 -0.1570
   89MOL   C45246388   5.385   0.942   0.128 -0.1922 -0.6203  0.3631
   89MOL   C45346389   5.048   1.003   0.268  0.3651 -0.0728 -0.2523
   89MOL   C45446390   5.088   0.883   0.332  0.2065 -0.2067  0.1821
   89MOL   C45546391   4.994   0.820   0.417  0.1019 -0.0394  0.8022
   89MOL   C45646392   4.871   0.878   0.447 -0.2320 -0.5847 -0.6389
   89MOL   C45746393   4.835   1.004   0.388 -0.1028  0.1804 -0.6244
   89MOL   C45846394   4.922   1.059   0.297  0.0237 -0.3782 -0.0885
   89MOL   H45946395   5.197   0.641   0.142  2.7770  2.3724  0.5872
   89MOL   H46046396   5.134   0.594   0.296 -0.9856 -3.7399  0.8032
   89MOL   H46146397   5.393   0.728   0.293  0.1350  0.4361  1.0731
   89MOL   H46246398   5.110   1.217   0.069  2.6352  3.1534  0.3199
   89MOL   H46346399   5.329   1.219   8.185  2.6389 -1.2119 -1.0968
   89MOL   H46446400   5.502   1.052   8.206 -0.8560  1.5915 -1.4384
   89MOL   H46546401   5.457   0.866   0.158  0.7688  0.4440  0.8209
   89MOL   H46646402   5.016   0.731   0.473 -1.8458 -0.0707  1.5359
   89MOL   H46746403   4.810   0.818   0.512  1.0900 -0.8277  0.3733
   89MOL   H46846404   4.735   1.039   0.408 -0.2799 -0.2496 -0.7672
   89MOL   H46946405   4.898   1.150   0.245  1.9554  0.0685 -0.2289
   89MOL   C47046406   5.296   0.686   0.471  0.3691 -0.0074 -0.0714
   89MOL   C47146407   5.368   0.787   0.568 -0.1351  0.6217  0.0112
   89MOL   N47246408   5.314   0.749   0.700  0.4324 -0.1252 -0.3213
   89MOL   C47346409   5.206   0.810   0.758 -0.0809 -1.0971  0.8060
   89MOL   C47446410   5.181   0.756   0.889 -0.5160  0.1673  0.3066
   89MOL   C47546411   5.072   0.808   0.962  0.0283 -0.3173 -0.3520
   89MOL   C47646412   4.993   0.911   0.907  0.7352 -0.0683  0.6047
   89MOL   C47746413   5.013   0.959   0.777 -0.0192 -0.7392 -0.7337
   89MOL   C47846414   5.117   0.900   0.695 -0.7373  1.0426 -0.3270
   89MOL   C47946415   5.273   0.645   0.903  0.0023  0.0737  0.8377
   89MOL   C48046416   5.355   0.647   0.786  0.2036  0.2045  0.1506
   89MOL   C48146417   5.457   0.549   0.768 -0.3460  0.2759 -0.9214
   89MOL   C48246418   5.466   0.439   0.861  0.1792  0.2286  0.4079
   89MOL   C48346419   5.383   0.438   0.972 -0.3316  0.1091 -0.6024
   89MOL   C48446420   5.292   0.538   0.999 -0.0106 -1.0871  0.3239
   89MOL   H48546421   5.195   0.671   0.510  1.1311 -2.1751  1.1439
   89MOL   H48646422   5.344   0.589   0.484 -0.5319 -0.8077 -2.4483
   89MOL   H48746423   5.335   0.886   0.538 -0.4367  0.4127 -0.3505
   89MOL   H48846424   5.040   0.768   1.057 -2.0011 -0.5984 -1.1185
   89MOL   H48946425   4.905   0.944   0.960 -0.2224 -0.0760 -0.9288
   89MOL   H49046426   4.937   1.020   0.730 -0.1325 -1.3916 -1.4083
   89MOL   H49146427   5.132   0.936   0.594  0.8561 -1.5127 -1.0481
   89MOL   H49246428   5.531   0.561   0.691 -0.2121  2.2287 -0.5235
   89MOL   H49346429   5.535   0.356   0.850 -1.0497 -0.8942  1.0331
   89MOL   H49446430   5.394   0.369   1.054  0.9372  0.8400 -0.1408
   89MOL   H49546431   5.229   0.536   1.086 -0.4415 -1.8763  0.0018
   89MOL   C49646432   5.526   0.786   0.561 -0.0558 -0.7492  0.8258
   89MOL   C49746433   5.577   0.884   0.451  0.0952 -0.4218 -0.9528
   89MOL   N49846434   5.724   0.913   0.455  0.3171  0.1442 -0.2727
   89MOL   C49946435   5.782   0.978   0.563 -0.9548 -0.0559 -0.7808
   89MOL   C50046436   5.919   0.994   0.531 -0.5884 -0.2940 -0.2334
   89MOL   C50146437   6.010   1.055   0.619 -0.3737  0.0382  0.5982
   89MOL   C50246438   5.968   1.106   0.741  0.3436  0.3111  0.1138
   89MOL   C50346439   5.832   1.094   0.776 -0.2019  0.2173  0.2974
   89MOL   C50446440   5.738   1.028   0.695 -0.3243  0.2792  0.4713
   89MOL   C50546441   5.940   0.945   0.394  0.6397 -0.2064 -0.4380
   89MOL   C50646442   5.812   0.896   0.355  0.2260  0.1557 -0.3612
   89MOL   C50746443   5.805   0.832   0.224 -0.3986 -0.0011 -0.7514
   89MOL   C50846444   5.918   0.839   0.142  0.6009  0.4012 -0.3368
   89MOL   C50946445   6.041   0.889   0.182  0.1068 -0.1254  0.7935
   89MOL   C51046446   6.049   0.953   0.309 -0.3933  0.2194  0.3048
   89MOL   H51146447   5.569   0.827   0.652  1.2091  1.7702 -0.8514
   89MOL   H51246448   5.562   0.686   0.534 -0.4538 -0.6396 -0.1302
   89MOL   H51346449   5.538   0.986   0.454 -0.7078 -0.7202 -1.1066
   89MOL   H51446450   6.115   1.061   0.591 -0.7220  0.3355 -0.6556
   89MOL   H51546451   6.033   1.174   0.794 -1.9317  2.2615  0.5035
   89MOL   H51646452   5.799   1.129   0.873 -0.1786  1.1340 -0.0182
   89MOL   H51746453   5.633   1.016   0.720 -1.1134 -1.2589 -3.3203
   89MOL   H51846454   5.725   0.774   0.182  0.8232 -3.0807  1.0551
   89MOL   H51946455   5.911   0.798   0.042  1.7343  0.0299 -0.2715
   89MOL   H52046456   6.126   0.895   0.115 -0.6139 -1.5441 -0.2638
   89MOL   H52146457   6.135   1.004   0.349  0.5694  0.4553 -1.9469
   89MOL   H52246458   5.557   0.844   0.351  0.6018 -0.6052 -0.9805
   90MOL     C146459   2.655   1.240   3.406  0.0810 -0.3236 -0.1526
   90MOL     C246460   2.642   1.344   3.291 -0.5084  0.4247 -0.5954
   90MOL     N346461   2.502   1.373   3.263 -0.7259  0.1049 -0.1500
   90MOL     C446462   2.429   1.327   3.152  0.5180 -0.2045  0.5283
   90MOL     C546463   2.294   1.364   3.171  0.1636 -0.0923  0.1494
   90MOL     C646464   2.208   1.328   3.068  0.6123 -0.0825 -0.3273
   90MOL     C746465   2.242   1.251   2.956  0.3400  0.8998 -0.6924
   90MOL     C846466   2.372   1.206   2.945 -0.1710 -0.3017  0.1072
   90MOL     C946467   2.466   1.242   3.043 -0.6002  1.2709 -0.1941
   90MOL    C1046468   2.290   1.441   3.288  0.2482 -0.6536  0.3348
   90MOL    C1146469   2.418   1.442   3.342  0.3962 -0.4150 -0.4767
   90MOL    C1246470   2.440   1.512   3.464  0.0316 -0.4359 -0.6691
   90MOL    C1346471   2.338   1.588   3.525 -0.0940  0.2099 -0.2543
   90MOL    C1446472   2.214   1.590   3.465  1.1694  0.4205 -0.7302
   90MOL    C1546473   2.187   1.512   3.350 -0.3791 -0.5566  0.2583
   90MOL    H1646474   2.616   1.142   3.377  0.0263  0.4590 -2.8472
   90MOL    H1746475   2.588   1.269   3.486 -3.0479 -0.9599 -2.4397
   90MOL    H1846476   2.689   1.298   3.205 -0.5411 -2.0345  0.6584
   90MOL    H1946477   2.108   1.366   3.082  0.5535 -0.3136 -0.1181
   90MOL    H2046478   2.177   1.232   2.872 -0.6316  2.4789 -0.3244
   90MOL    H2146479   2.396   1.149   2.856 -0.6121 -1.5810  0.7817
   90MOL    H2246480   2.568   1.207   3.038 -0.4648  1.6621 -0.1642
   90MOL    H2346481   2.535   1.519   3.515 -1.4243  1.2776  1.9065
   90MOL    H2446482   2.362   1.639   3.616 -0.4163 -0.3262  0.1348
   90MOL    H2546483   2.137   1.649   3.514  0.6365  0.3757 -1.5081
   90MOL    H2646484   2.090   1.519   3.303 -0.3204  1.1220  0.3547
   90MOL    H2746485   2.760   1.237   3.433  0.2346  2.5032 -0.2420
   90MOL    C2846486   2.733   1.466   3.327 -0.2943 -0.7086 -0.1104
   90MOL    C2946487   2.724   1.588   3.225 -0.7435  0.0514 -1.1707
   90MOL    N3046488   2.829   1.682   3.257  0.4330 -0.5705  0.2147
   90MOL    C3146489   2.806   1.813   3.309  0.5011  0.1942  0.5336
   90MOL    C3246490   2.931   1.880   3.322 -0.3730 -0.3259  0.4126
   90MOL    C3346491   2.931   2.017   3.369  0.1628 -0.1062 -0.1003
   90MOL    C3446492   2.813   2.077   3.409  0.7399  0.7938 -0.7314
   90MOL    C3546493   2.686   2.012   3.401  0.6853 -0.2375  0.3208
   90MOL    C3646494   2.688   1.876   3.354 -0.3462  0.1640  0.2984
   90MOL    C3746495   3.029   1.785   3.278 -0.6517  0.0380  0.3010
   90MOL    C3846496   2.964   1.661   3.244 -0.3415 -1.0516  0.0456
   90MOL    C3946497   3.040   1.548   3.211  0.6302 -0.0814 -0.0521
   90MOL    C4046498   3.180   1.550   3.207 -0.0639 -0.2528  0.3061
   90MOL    C4146499   3.245   1.667   3.244  0.3598  0.0696  0.5810
   90MOL    C4246500   3.171   1.784   3.275 -0.6507  0.4896 -0.0726
   90MOL    H4346501   2.722   1.494   3.432  0.6399 -0.8167  0.0188
   90MOL    H4446502   2.832   1.423   3.316  0.2629  0.9839 -2.0199
   90MOL    H4546503   2.626   1.633   3.240 -0.2314  1.6187 -2.4911
   90MOL    H4646504   3.020   2.077   3.380 -1.9121  3.2470 -1.0771
   90MOL    H4746505   2.822   2.176   3.451  0.5174  0.6787 -0.4067
   90MOL    H4846506   2.595   2.061   3.432 -0.3910 -1.8129 -0.2498
   90MOL    H4946507   2.594   1.824   3.352 -1.0386  1.4181 -1.2592
   90MOL    H5046508   2.998   1.452   3.184  2.5538 -0.3590 -2.1524
   90MOL    H5146509   3.240   1.462   3.189 -0.0232  0.0550 -1.1517
   90MOL    H5246510   3.353   1.676   3.252  0.2517  1.2959  0.7879
   90MOL    H5346511   3.219   1.877   3.303 -2.1285  1.3067 -0.1712
   90MOL    C5446512   2.732   1.541   3.074  0.3230 -0.3638  0.1334
   90MOL    C5546513   2.754   1.659   2.980  0.1019 -0.3197 -0.2474
   90MOL    N5646514   2.786   1.615   2.845  0.3644  0.2746 -0.0354
   90MOL    C5746515   2.903   1.648   2.774  0.5652 -1.1024  0.0693
   90MOL    C5846516   2.884   1.614   2.635 -0.1569  0.7254  0.1310
   90MOL    C5946517   2.989   1.643   2.542  0.1495  0.1258  0.0629
   90MOL    C6046518   3.108   1.692   2.586  0.4082 -0.0155  0.2691
   90MOL    C6146519   3.125   1.726   2.723  0.1221 -0.4631  0.5952
   90MOL    C6246520   3.022   1.708   2.815 -0.0621 -0.0727  0.0372
   90MOL    C6346521   2.758   1.546   2.626  0.1196 -0.6070  0.9924
   90MOL    C6446522   2.701   1.551   2.756  0.0926  0.4109  0.5123
   90MOL    C6546523   2.570   1.493   2.770 -0.6108 -0.0011  0.5272
   90MOL    C6646524   2.503   1.415   2.671  0.2034 -0.0981 -0.4189
   90MOL    C6746525   2.565   1.420   2.549 -0.3495  0.8509  0.7556
   90MOL    C6846526   2.686   1.481   2.525  0.0716 -0.1553  0.5624
   90MOL    H6946527   2.812   1.471   3.051 -0.6827 -0.7732 -2.3125
   90MOL    H7046528   2.640   1.486   3.053 -0.8499  1.1570  1.1458
   90MOL    H7146529   2.837   1.719   3.016 -0.7557  1.7883 -1.7243
   90MOL    H7246530   2.982   1.618   2.437 -0.4207 -0.1406  0.1599
   90MOL    H7346531   3.190   1.711   2.517  0.7846  1.0069  0.9950
   90MOL    H7446532   3.225   1.761   2.748  0.2516 -2.2075  2.6848
   90MOL    H7546533   3.048   1.724   2.918  1.4934 -1.1320 -0.1885
   90MOL    H7646534   2.518   1.498   2.865 -2.1099 -2.2559 -0.1462
   90MOL    H7746535   2.411   1.361   2.688 -1.4346  2.2046 -1.5319
   90MOL    H7846536   2.511   1.376   2.466  0.3976 -1.0570  1.2490
   90MOL    H7946537   2.738   1.484   2.430 -0.0250  3.9883  0.5449
   90MOL    C8046538   2.630   1.747   2.975  0.3446 -0.3398 -0.0258
   90MOL    C8146539   2.659   1.887   2.910  0.2416  0.7533  0.4920
   90MOL    N8246540   2.533   1.955   2.887  0.2681  0.8611  0.7220
   90MOL    C8346541   2.430   1.940   2.792 -0.2921 -0.1379 -0.3551
   90MOL    C8446542   2.336   2.047   2.802 -0.0353  0.3627  0.5655
   90MOL    C8546543   2.249   2.070   2.691  0.0082 -0.3313 -0.4446
   90MOL    C8646544   2.235   1.973   2.593  0.3851 -0.2892  0.5746
   90MOL    C8746545   2.329   1.869   2.579 -0.3331  0.3557  0.0620
   90MOL    C8846546   2.431   1.855   2.677  0.6373  0.0928 -0.5954
   90MOL    C8946547   2.357   2.098   2.927  0.0190 -0.2547  0.1833
   90MOL    C9046548   2.473   2.045   2.986 -0.5716 -0.8856 -0.0017
   90MOL    C9146549   2.507   2.064   3.119 -0.8407  0.1569  0.7619
   90MOL    C9246550   2.438   2.159   3.191 -0.0064  0.0845 -0.6097
   90MOL    C9346551   2.332   2.229   3.132  0.4637 -0.0225 -1.0800
   90MOL    C9446552   2.293   2.197   2.999 -0.6458  0.1462  0.2376
   90MOL    H9546553   2.539   1.710   2.928 -0.0444 -0.2813  0.6769
   90MOL    H9646554   2.601   1.775   3.077  0.4171  0.1014 -0.1262
   90MOL    H9746555   2.696   1.869   2.809  0.0822  0.5258  0.4736
   90MOL    H9846556   2.168   2.140   2.708  1.2954  1.1774 -0.4231
   90MOL    H9946557   2.154   1.978   2.522  0.2615  2.2796  0.8454
   90MOL   H10046558   2.319   1.800   2.496 -2.4247  1.4475 -0.6044
   90MOL   H10146559   2.510   1.784   2.659 -1.1633 -2.2548  0.5246
   90MOL   H10246560   2.589   2.014   3.168  1.2464  3.1596  0.4181
   90MOL   H10346561   2.461   2.194   3.291 -0.1927  0.2933 -0.6411
   90MOL   H10446562   2.274   2.303   3.184 -0.2585 -1.9340  0.9048
   90MOL   H10546563   2.205   2.250   2.966  0.0214  1.1373  0.0290
   90MOL   C10646564   2.784   1.967   2.969  0.2748  0.0544  0.5004
   90MOL   C10746565   2.804   2.114   2.911  0.3431 -0.1550  0.1529
   90MOL   N10846566   2.918   2.182   2.980  0.5812  0.1092 -0.6758
   90MOL   C10946567   2.907   2.276   3.082  0.2822 -0.0774 -0.6649
   90MOL   C11046568   3.035   2.336   3.104 -0.1794 -0.3706  0.8209
   90MOL   C11146569   3.042   2.437   3.202 -1.1098  1.3561 -0.0634
   90MOL   C11246570   2.932   2.475   3.282  0.0148  0.1422  0.6300
   90MOL   C11346571   2.809   2.413   3.261 -0.1680  0.0649 -0.5479
   90MOL   C11446572   2.794   2.315   3.165 -0.8267 -0.2898  0.1099
   90MOL   C11546573   3.124   2.272   3.017  0.5164  0.7557 -0.8771
   90MOL   C11646574   3.051   2.175   2.943 -0.3811 -0.4980 -0.0783
   90MOL   C11746575   3.115   2.092   2.848 -0.0981 -0.3974 -0.3498
   90MOL   C11846576   3.252   2.103   2.820 -0.1715 -0.0246 -0.1233
   90MOL   C11946577   3.324   2.205   2.887 -0.4255 -0.4152  0.5806
   90MOL   C12046578   3.258   2.286   2.982  0.0681 -0.8139 -0.2496
   90MOL   H12146579   2.782   1.977   3.078  0.7743  1.1983  0.4098
   90MOL   H12246580   2.882   1.921   2.954  1.1929  1.7410  1.2201
   90MOL   H12346581   2.715   2.166   2.946 -1.4725 -3.4638  0.6808
   90MOL   H12446582   3.141   2.478   3.216 -0.3663  0.0763 -1.3667
   90MOL   H12546583   2.950   2.550   3.358  0.0029 -0.4710  1.2415
   90MOL   H12646584   2.717   2.431   3.315  0.4917 -1.3852  1.1156
   90MOL   H12746585   2.699   2.265   3.150 -1.0453 -0.0947  0.8239
   90MOL   H12846586   3.058   2.019   2.793 -1.5354 -0.2753  0.9551
   90MOL   H12946587   3.305   2.049   2.743 -0.1867  1.9402 -1.5430
   90MOL   H13046588   3.429   2.212   2.866  0.0556 -0.7674  2.7036
   90MOL   H13146589   3.310   2.363   3.037  2.4972 -0.2317 -3.2091
   90MOL   C13246590   2.798   2.133   2.759 -0.1022  0.8539 -0.4784
   90MOL   C13346591   2.823   2.285   2.722 -0.5438  0.1073 -0.3259
   90MOL   N13446592   2.820   2.308   2.577 -0.3133  0.2594  0.3273
   90MOL   C13546593   2.915   2.361   2.496 -0.1213 -0.3476  0.7282
   90MOL   C13646594   2.863   2.371   2.361  0.2899  0.2712  0.1188
   90MOL   C13746595   2.947   2.413   2.257 -0.2512  0.5076 -0.2299
   90MOL   C13846596   3.066   2.477   2.291  0.9961  0.4318  0.2213
   90MOL   C13946597   3.118   2.475   2.424  0.6367 -0.0894  0.7728
   90MOL   C14046598   3.045   2.410   2.523 -0.3490 -0.3932 -0.2577
   90MOL   C14146599   2.729   2.325   2.361 -0.2427  0.5976  0.1233
   90MOL   C14246600   2.701   2.291   2.496 -0.0732 -0.0841 -0.3997
   90MOL   C14346601   2.580   2.233   2.534 -0.2162  0.3887  0.0086
   90MOL   C14446602   2.480   2.218   2.440  0.4448 -0.0656  0.0442
   90MOL   C14546603   2.502   2.254   2.307  0.8164 -0.0508 -0.2165
   90MOL   C14646604   2.627   2.311   2.267  0.3069 -0.1573 -0.2244
   90MOL   H14746605   2.851   2.062   2.695 -0.9195  0.4926 -0.7685
   90MOL   H14846606   2.696   2.103   2.732  0.8050 -0.4656 -2.6191
   90MOL   H14946607   2.927   2.309   2.743 -0.6609  0.5200 -0.2042
   90MOL   H15046608   2.903   2.426   2.160 -1.3292  0.6322  0.2656
   90MOL   H15146609   3.116   2.530   2.211  0.2966 -0.2986 -0.7135
   90MOL   H15246610   3.212   2.522   2.446  0.3665  1.5695 -1.4613
   90MOL   H15346611   3.089   2.405   2.622  2.7866 -0.8017 -1.6199
   90MOL   H15446612   2.550   2.211   2.635  1.3869  0.6348  0.5669
   90MOL   H15546613   2.383   2.179   2.467 -0.1010  1.4734  0.3088
   90MOL   H15646614   2.422   2.242   2.236 -0.2736 -0.4136  1.0468
   90MOL   H15746615   2.639   2.338   2.163  0.2422 -0.9931 -0.4541
   90MOL   C15846616   2.731   2.387   2.792  0.1496 -1.0087 -0.1224
   90MOL   C15946617   2.769   2.544   2.783 -0.2839  0.1410  0.0181
   90MOL   N16046618   2.656   2.627   2.811  1.0091  0.1592 -0.2056
   90MOL   C16146619   2.598   2.722   2.722  0.0217 -0.3778 -0.9297
   90MOL   C16246620   2.480   2.774   2.783 -0.0255  0.1265 -0.6077
   90MOL   C16346621   2.400   2.864   2.712 -0.1256  0.4707  0.4661
   90MOL   C16446622   2.432   2.902   2.576 -0.7943  0.3752  0.4519
   90MOL   C16546623   2.544   2.844   2.514  0.7096 -0.4154  0.0623
   90MOL   C16646624   2.634   2.767   2.592  0.2928  0.1079 -0.9671
   90MOL   C16746625   2.463   2.708   2.910  0.4537 -0.3704  0.2927
   90MOL   C16846626   2.579   2.631   2.930 -0.8946  0.3012  0.2974
   90MOL   C16946627   2.591   2.559   3.047  0.4486  0.1810 -0.5551
   90MOL   C17046628   2.501   2.560   3.154  0.5146 -0.6071 -0.2457
   90MOL   C17146629   2.385   2.638   3.132 -0.0100 -0.2695 -0.2413
   90MOL   C17246630   2.363   2.713   3.010 -0.2355 -0.0750 -0.3842
   90MOL   H17346631   2.632   2.371   2.750  0.2061 -2.8272  0.3714
   90MOL   H17446632   2.710   2.360   2.895 -0.3118 -3.0697 -0.7426
   90MOL   H17546633   2.797   2.558   2.679  1.1423 -1.9675  0.0960
   90MOL   H17646634   2.314   2.903   2.764  0.3384  1.5219  0.4664
   90MOL   H17746635   2.372   2.967   2.514  0.3266  0.5105 -0.4960
   90MOL   H17846636   2.573   2.876   2.415 -0.5807 -0.6130 -0.3954
   90MOL   H17946637   2.725   2.740   2.540 -0.4350  0.4910 -2.4812
   90MOL   H18046638   2.676   2.492   3.042  2.1785  1.9304  3.2007
   90MOL   H18146639   2.517   2.497   3.240  0.5601 -0.6072 -0.2543
   90MOL   H18246640   2.310   2.657   3.207  0.6539  1.3009  0.0519
   90MOL   H18346641   2.280   2.779   2.990 -1.3401 -1.3560 -0.1173
   90MOL   C18446642   2.899   2.577   2.862 -0.2245  0.0855 -0.2233
   90MOL   C18546643   2.944   2.723   2.869  0.1154  0.5120  0.3157
   90MOL   N18646644   3.060   2.732   2.965 -0.0176 -0.2618  0.1018
   90MOL   C18746645   3.060   2.793   3.086 -0.1411 -0.2995 -0.4111
   90MOL   C18846646   3.192   2.780   3.146  0.2411  0.1513 -0.0633
   90MOL   C18946647   3.200   2.827   3.280 -1.0121  0.1458  0.4352
   90MOL   C19046648   3.098   2.891   3.349  0.4298 -0.7618 -0.7264
   90MOL   C19146649   2.977   2.904   3.284 -0.7976 -0.0346 -0.3443
   90MOL   C19246650   2.951   2.856   3.156 -0.1707  0.9953  0.5793
   90MOL   C19346651   3.270   2.710   3.052 -0.8376 -0.3106  0.0710
   90MOL   C19446652   3.193   2.694   2.934  0.1090 -0.0076 -0.7539
   90MOL   C19546653   3.253   2.629   2.823  0.6570 -0.6448 -0.0440
   90MOL   C19646654   3.390   2.604   2.815  0.1841 -0.0290 -0.7802
   90MOL   C19746655   3.462   2.625   2.929 -0.6723  0.8699  0.0600
   90MOL   C19846656   3.404   2.671   3.048  0.0166  0.3594 -0.4365
   90MOL   H19946657   2.884   2.545   2.965  0.6740  2.6519  0.7315
   90MOL   H20046658   2.980   2.522   2.814 -0.5339  0.2136 -0.8951
   90MOL   H20146659   2.856   2.774   2.909 -0.1431  1.0910 -0.9755
   90MOL   H20246660   3.300   2.823   3.321 -0.2354 -0.7783 -1.5321
   90MOL   H20346661   3.126   2.916   3.450  1.5436 -0.1295 -1.1762
   90MOL   H20446662   2.889   2.943   3.333  0.7851  2.0072  0.9354
   90MOL   H20546663   2.849   2.862   3.119  0.0049 -2.0216 -0.4931
   90MOL   H20646664   3.190   2.608   2.737  1.6613 -0.7466 -0.7584
   90MOL   H20746665   3.440   2.569   2.726  1.3701 -0.8624  0.1882
   90MOL   H20846666   3.569   2.620   2.917 -0.6532  1.7034 -0.1690
   90MOL   H20946667   3.467   2.701   3.130 -0.9395  0.0666  0.4066
   90MOL   C21046668   2.966   2.795   2.730  0.0214  0.4747 -0.1447
   90MOL   C21146669   3.053   2.919   2.745  0.3740  0.1397  0.8989
   90MOL   N21246670   3.110   2.954   2.617 -0.7782 -0.1568  0.2286
   90MOL   C21346671   3.247   2.953   2.585  0.1526  0.5420 -0.0553
   90MOL   C21446672   3.265   2.983   2.449  0.4469 -0.8174 -0.3304
   90MOL   C21546673   3.392   2.985   2.397  0.4950 -0.1787  0.5663
   90MOL   C21646674   3.506   2.969   2.477 -0.0654  0.3295 -0.1525
   90MOL   C21746675   3.492   2.946   2.615 -0.6757 -0.3826 -0.5489
   90MOL   C21846676   3.364   2.929   2.668  0.5888  0.4318 -0.3563
   90MOL   C21946677   3.139   3.001   2.393 -0.6244 -0.2144  0.3278
   90MOL   C22046678   3.044   2.982   2.497  0.3352  0.3341 -0.1635
   90MOL   C22146679   2.907   2.992   2.472 -0.3009  0.3715 -0.4261
   90MOL   C22246680   2.863   3.017   2.340  0.0955  0.0771 -0.8614
   90MOL   C22346681   2.959   3.044   2.239  0.1352  0.2773 -0.4263
   90MOL   C22446682   3.097   3.043   2.266 -0.5075  0.1963  0.6272
   90MOL   H22546683   3.020   2.724   2.667 -0.9123  0.0263 -0.4460
   90MOL   H22646684   2.871   2.824   2.686  0.1559  2.1996  0.6515
   90MOL   H22746685   3.139   2.886   2.804  0.1109 -3.9511 -0.8353
   90MOL   H22846686   3.400   3.005   2.291 -0.6468 -0.5612  0.4004
   90MOL   H22946687   3.608   2.978   2.443  0.2470 -1.5421  0.2189
   90MOL   H23046688   3.583   2.931   2.670 -1.0437 -2.3965 -0.4480
   90MOL   H23146689   3.356   2.894   2.770  0.9449 -2.3846 -1.2516
   90MOL   H23246690   2.836   2.978   2.552  0.4660 -1.1747  0.0214
   90MOL   H23346691   2.756   3.020   2.323 -0.6007  0.1557  2.9137
   90MOL   H23446692   2.924   3.063   2.138  0.5756  1.4250 -0.3681
   90MOL   H23546693   3.165   3.076   2.189 -0.9236  0.1921  0.2525
   90MOL   C23646694   2.985   3.037   2.819 -0.6628  0.2210  0.4448
   90MOL   C23746695   3.070   3.158   2.844 -0.3433  0.1923 -0.2255
   90MOL   N23846696   2.982   3.275   2.858  0.5101  0.6851  0.2332
   90MOL   C23946697   2.958   3.371   2.753 -0.4304  0.4614  0.2167
   90MOL   C24046698   2.887   3.479   2.810  0.4754  0.2744 -0.7664
   90MOL   C24146699   2.864   3.592   2.732  0.8055  0.9426  0.9598
   90MOL   C24246700   2.889   3.596   2.592 -0.5910  0.1391 -0.0976
   90MOL   C24346701   2.954   3.485   2.532  0.3393 -0.1211 -0.6628
   90MOL   C24446702   2.992   3.378   2.613  0.3941  0.1910 -0.3126
   90MOL   C24546703   2.854   3.443   2.949 -0.3965  0.6235 -0.2076
   90MOL   C24646704   2.906   3.313   2.973  0.2331 -0.0198 -0.3423
   90MOL   C24746705   2.870   3.242   3.088 -0.5938 -0.2652  0.5924
   90MOL   C24846706   2.777   3.295   3.177 -0.4682 -0.2248 -0.4014
   90MOL   C24946707   2.742   3.427   3.159 -0.7102 -0.8936 -0.7837
   90MOL   C25046708   2.775   3.502   3.043 -0.2253 -0.0492 -0.1511
   90MOL   H25146709   2.898   3.055   2.756 -0.8345 -1.8187  0.0570
   90MOL   H25246710   2.935   3.004   2.910  1.9149 -0.3878  1.7001
   90MOL   H25346711   3.123   3.168   2.749 -0.1889 -0.0548 -0.1665
   90MOL   H25446712   2.795   3.663   2.777 -0.6321 -0.8638  1.6773
   90MOL   H25546713   2.863   3.682   2.534  0.3786  2.4382  2.7592
   90MOL   H25646714   2.973   3.480   2.426 -1.5798 -0.2320 -1.0228
   90MOL   H25746715   3.042   3.300   2.557 -0.7551  1.5159 -3.3257
   90MOL   H25846716   2.909   3.142   3.100  1.8362  0.5660 -0.0717
   90MOL   H25946717   2.745   3.237   3.262  1.8870 -0.2535  0.5119
   90MOL   H26046718   2.682   3.473   3.237  1.2206  0.7049 -0.1940
   90MOL   H26146719   2.736   3.602   3.026 -0.9693 -0.5449 -1.4946
   90MOL   C26246720   3.185   3.145   2.955 -0.0908 -0.3829  0.5322
   90MOL   C26346721   3.289   3.252   2.951  0.2262  0.1453 -0.3504
   90MOL   N26446722   3.345   3.278   3.081 -0.6546 -0.5096 -0.6119
   90MOL   C26546723   3.318   3.400   3.156 -0.2747  0.6291  0.2929
   90MOL   C26646724   3.391   3.396   3.281  0.1373 -0.1167  0.9755
   90MOL   C26746725   3.374   3.500   3.369  0.3323 -0.1605  0.4873
   90MOL   C26846726   3.289   3.610   3.344 -0.2093  0.3279  0.0793
   90MOL   C26946727   3.224   3.616   3.217  0.2121 -0.2400 -0.1556
   90MOL   C27046728   3.230   3.509   3.125 -0.1704 -0.0777  0.0497
   90MOL   C27146729   3.457   3.269   3.288  0.0209 -0.6257 -0.1646
   90MOL   C27246730   3.433   3.206   3.162  0.2353 -0.1369  0.0320
   90MOL   C27346731   3.490   3.084   3.128 -0.1701  0.2393 -0.0566
   90MOL   C27446732   3.567   3.022   3.221  0.2155  0.6810 -0.4893
   90MOL   C27546733   3.595   3.078   3.350 -0.8478 -0.2475  0.3843
   90MOL   C27646734   3.536   3.199   3.383 -0.4623 -0.4643 -0.2794
   90MOL   H27746735   3.148   3.133   3.057  1.9813  0.2513  1.3795
   90MOL   H27846736   3.232   3.048   2.939 -0.9169 -0.4792 -1.5097
   90MOL   H27946737   3.234   3.341   2.919 -1.2666 -0.7381 -0.3005
   90MOL   H28046738   3.439   3.504   3.455  0.8318  1.6082  0.0596
   90MOL   H28146739   3.275   3.699   3.404 -1.7120  1.1262 -1.4054
   90MOL   H28246740   3.162   3.702   3.196 -0.0917  0.3147  2.7866
   90MOL   H28346741   3.172   3.508   3.034 -2.1967  2.2719  1.2262
   90MOL   H28446742   3.475   3.035   3.034 -0.2636  0.9133 -0.3954
   90MOL   H28546743   3.610   2.926   3.198  2.3565  1.2748  0.8152
   90MOL   H28646744   3.655   3.021   3.420  1.0358  0.9178 -0.2366
   90MOL   H28746745   3.562   3.252   3.474 -0.4437  0.2973 -0.7286
   90MOL   C28846746   3.384   3.238   2.835 -0.2249 -0.6415  0.3268
   90MOL   C28946747   3.496   3.340   2.808  0.0781  0.0887 -0.7650
   90MOL   N29046748   3.557   3.304   2.675  0.2889 -0.6107 -0.0279
   90MOL   C29146749   3.679   3.236   2.650 -0.7016 -0.7947 -0.5708
   90MOL   C29246750   3.703   3.235   2.511 -0.2473  0.4360  0.7410
   90MOL   C29346751   3.826   3.182   2.462  0.0851  0.1769  0.3060
   90MOL   C29446752   3.914   3.126   2.557  0.3698 -0.6550  0.5165
   90MOL   C29546753   3.890   3.141   2.696 -0.1355 -0.0888 -0.5140
   90MOL   C29646754   3.775   3.196   2.745  0.6437 -1.3272  0.1440
   90MOL   C29746755   3.589   3.289   2.442 -0.0781 -0.3777  0.1589
   90MOL   C29846756   3.499   3.329   2.545  0.4873  0.1598  0.4526
   90MOL   C29946757   3.375   3.386   2.511 -0.0533 -0.5795 -0.2976
   90MOL   C30046758   3.339   3.396   2.373 -0.3659  0.2151  0.7501
   90MOL   C30146759   3.438   3.372   2.273  0.5582 -0.5126  0.3396
   90MOL   C30246760   3.566   3.312   2.307 -0.1068 -0.1077  0.5853
   90MOL   H30346761   3.434   3.146   2.866  0.3745 -0.3743  0.1483
   90MOL   H30446762   3.332   3.218   2.742 -1.9905 -0.6651  1.2879
   90MOL   H30546763   3.567   3.329   2.890  0.2966  1.5760 -0.7385
   90MOL   H30646764   3.844   3.167   2.356  1.1489 -1.8281  0.7349
   90MOL   H30746765   4.006   3.079   2.524  1.9791  2.6252  0.1154
   90MOL   H30846766   3.966   3.103   2.762 -0.2956 -0.1455 -0.3621
   90MOL   H30946767   3.761   3.221   2.849  0.3178  0.4068 -0.3057
   90MOL   H31046768   3.298   3.405   2.584 -1.1071  0.8097 -1.7329
   90MOL   H31146769   3.245   3.439   2.340 -0.0830  1.2722  1.2971
   90MOL   H31246770   3.430   3.383   2.166  1.2871 -1.8198  0.1321
   90MOL   H31346771   3.642   3.291   2.233  0.4156  1.7717  0.5553
   90MOL   C31446772   3.449   3.489   2.823  0.2508 -0.3194  0.3771
   90MOL   C31546773   3.568   3.579   2.855 -0.4066 -0.3880 -0.0563
   90MOL   N31646774   3.565   3.712   2.796  0.6108  0.2797 -0.1015
   90MOL   C31746775   3.630   3.763   2.687 -0.0143  0.2332 -0.5224
   90MOL   C31846776   3.603   3.901   2.671 -0.1768 -0.4426  0.7362
   90MOL   C31946777   3.682   3.969   2.573  0.4762 -0.2718 -0.0281
   90MOL   C32046778   3.783   3.908   2.499  0.3840  1.2213 -0.4076
   90MOL   C32146779   3.806   3.767   2.524 -0.0754 -0.2765  0.2892
   90MOL   C32246780   3.728   3.703   2.614  0.1604  0.0431 -0.5776
   90MOL   C32346781   3.497   3.935   2.766 -0.4956  0.2107  0.6249
   90MOL   C32446782   3.472   3.812   2.835  1.1301 -0.9449 -1.1364
   90MOL   C32546783   3.376   3.810   2.936 -0.0422  0.3516  0.2254
   90MOL   C32646784   3.304   3.920   2.970 -0.5241 -0.0408 -0.0778
   90MOL   C32746785   3.320   4.039   2.900 -0.5578  0.0699 -0.2876
   90MOL   C32846786   3.419   4.045   2.795  1.6083  0.2586 -0.1025
   90MOL   H32946787   3.396   3.532   2.739  1.9829  0.6574 -0.2485
   90MOL   H33046788   3.377   3.494   2.905 -0.3624  0.9415 -0.2297
   90MOL   H33146789   3.652   3.528   2.808 -2.0678 -3.1796 -0.0637
   90MOL   H33246790   3.664   4.075   2.574  0.9212 -0.2016  0.7443
   90MOL   H33346791   3.846   3.967   2.433  3.2597 -1.6894 -0.4027
   90MOL   H33446792   3.881   3.714   2.466 -1.7687 -0.3060 -1.9727
   90MOL   H33546793   3.743   3.599   2.640  3.9754  0.9718  1.1510
   90MOL   H33646794   3.363   3.720   2.994 -0.0097  1.1200  1.4414
   90MOL   H33746795   3.223   3.916   3.041 -1.8509 -0.3713 -1.5851
   90MOL   H33846796   3.267   4.129   2.926  0.9951  0.4078  1.8905
   90MOL   H33946797   3.451   4.137   2.748  0.8750  0.0799 -0.9578
   90MOL   C34046798   3.601   3.578   3.007 -1.2764 -0.2524  0.5155
   90MOL   C34146799   3.699   3.674   3.061 -0.1184 -0.1834  0.6623
   90MOL   N34246800   3.699   3.684   3.204  0.4284 -0.1638 -0.8451
   90MOL   C34346801   3.635   3.783   3.278 -0.4910  0.4044 -0.4653
   90MOL   C34446802   3.655   3.759   3.418 -0.2943  0.2651  0.1744
   90MOL   C34546803   3.599   3.856   3.505  0.1730  0.5689 -0.4509
   90MOL   C34646804   3.531   3.969   3.469  0.9803  0.0896 -0.1138
   90MOL   C34746805   3.524   3.998   3.331  0.5428  0.0768  0.1002
   90MOL   C34846806   3.568   3.906   3.236  0.0697  1.0080 -0.1592
   90MOL   C34946807   3.730   3.631   3.428  0.1206 -0.2396 -0.0384
   90MOL   C35046808   3.749   3.593   3.290 -0.0143 -0.3618  0.0533
   90MOL   C35146809   3.819   3.468   3.271  0.5271  0.0302 -0.1758
   90MOL   C35246810   3.874   3.387   3.372  0.4610 -1.2869 -0.7738
   90MOL   C35346811   3.848   3.420   3.510 -0.5143 -0.2026  0.3721
   90MOL   C35446812   3.779   3.546   3.530  0.1016  0.3971  0.6827
   90MOL   H35546813   3.513   3.598   3.068 -0.2947  1.1837  1.4786
   90MOL   H35646814   3.633   3.478   3.037  1.4462 -0.3358 -2.4329
   90MOL   H35746815   3.664   3.771   3.025  1.7860 -0.2885 -1.5531
   90MOL   H35846816   3.603   3.834   3.611  2.7691 -0.6308 -0.7666
   90MOL   H35946817   3.489   4.041   3.538 -0.4930  0.1821 -1.0701
   90MOL   H36046818   3.493   4.094   3.291  1.2641  0.0202 -0.6197
   90MOL   H36146819   3.552   3.929   3.132  1.2494 -1.2490 -0.8640
   90MOL   H36246820   3.834   3.429   3.172 -0.3395  0.7831 -0.6071
   90MOL   H36346821   3.936   3.305   3.343 -0.0105 -1.8004 -0.3539
   90MOL   H36446822   3.880   3.356   3.591 -0.8696  0.6961  1.2308
   90MOL   H36546823   3.765   3.583   3.630  1.3858  1.8143  0.3632
   90MOL   C36646824   3.838   3.655   3.008 -0.3062 -0.8374  1.3985
   90MOL   C36746825   3.957   3.732   3.066 -0.3980  0.0535  0.4586
   90MOL   N36846826   4.092   3.679   3.024 -0.2123  0.1047 -0.8638
   90MOL   C36946827   4.203   3.636   3.109  0.5659 -0.5614  0.9928
   90MOL   C37046828   4.304   3.578   3.030  0.4882  0.3206  0.2467
   90MOL   C37146829   4.411   3.516   3.092 -0.4879  0.5655  0.4965
   90MOL   C37246830   4.413   3.507   3.236  0.2147  0.2873  0.4992
   90MOL   C37346831   4.310   3.560   3.312 -0.3440 -0.3026 -0.4525
   90MOL   C37446832   4.206   3.625   3.250  0.5625 -0.3978  0.2307
   90MOL   C37546833   4.261   3.603   2.895 -0.5106  0.4776  0.5112
   90MOL   C37646834   4.127   3.659   2.888  0.2722  0.0546  0.1349
   90MOL   C37746835   4.070   3.696   2.765  1.0526 -0.1184  0.1267
   90MOL   C37846836   4.140   3.657   2.650  0.2313 -0.2244  0.1139
   90MOL   C37946837   4.265   3.598   2.654 -0.6184  0.4687 -0.8096
   90MOL   C38046838   4.325   3.571   2.776 -0.9500 -1.0539  0.6029
   90MOL   H38146839   3.864   3.549   3.007 -0.5512 -0.8951  0.9051
   90MOL   H38246840   3.834   3.667   2.899 -0.7473 -1.9232  1.2792
   90MOL   H38346841   3.954   3.703   3.171  2.6311  0.7179  0.7574
   90MOL   H38446842   4.485   3.459   3.038 -1.4734  0.4892 -0.7994
   90MOL   H38546843   4.500   3.464   3.285 -0.3108 -0.0987  1.0942
   90MOL   H38646844   4.326   3.553   3.419 -0.0698  0.1847 -0.4621
   90MOL   H38746845   4.125   3.666   3.308 -0.1108  1.1771 -1.7738
   90MOL   H38846846   3.982   3.756   2.753  1.1650 -0.0769 -0.5227
   90MOL   H38946847   4.105   3.672   2.549 -0.9825 -2.8718  0.0898
   90MOL   H39046848   4.324   3.575   2.566 -2.2090  0.5762 -1.9127
   90MOL   H39146849   4.420   3.523   2.763 -1.5571 -1.8592 -0.9612
   90MOL   C39246850   3.951   3.881   3.040  0.1032  0.0035  0.0473
   90MOL   C39346851   4.016   3.966   3.148 -0.2961 -0.5116 -0.3473
   90MOL   N39446852   4.067   4.092   3.092  0.4002  0.5126  0.3004
   90MOL   C39546853   4.200   4.117   3.053 -0.3030  0.3236 -0.1333
   90MOL   C39646854   4.211   4.256   3.015  0.3280 -0.1492  0.1238
   90MOL   C39746855   4.340   4.308   2.987 -0.0501  0.3409  0.1546
   90MOL   C39846856   4.456   4.223   2.996  0.9096 -0.4497  0.0954
   90MOL   C39946857   4.438   4.091   3.015 -1.2116  0.9873  0.1971
   90MOL   C40046858   4.313   4.036   3.047  0.5189  0.2681  0.2416
   90MOL   C40146859   4.081   4.310   3.006 -0.0265  0.4686  0.1781
   90MOL   C40246860   3.993   4.206   3.053 -0.6841 -0.2522  0.1514
   90MOL   C40346861   3.855   4.232   3.063  0.1857 -0.7215  0.4921
   90MOL   C40446862   3.803   4.358   3.011 -0.4393  0.4972  0.7227
   90MOL   C40546863   3.891   4.454   2.960 -0.0560  0.1838  0.3421
   90MOL   C40646864   4.031   4.434   2.971  0.2362  0.5257 -0.0526
   90MOL   H40746865   4.006   3.904   2.948  1.4786  0.6948  1.0204
   90MOL   H40846866   3.847   3.909   3.025  0.0456  0.4296  1.1792
   90MOL   H40946867   4.104   3.906   3.171  0.0780 -0.1509 -0.8288
   90MOL   H41046868   4.356   4.409   2.953  0.0808 -0.1267 -1.1771
   90MOL   H41146869   4.553   4.256   2.962 -0.0977 -0.1838 -2.6495
   90MOL   H41246870   4.520   4.022   3.008 -1.2675  1.1798 -3.4623
   90MOL   H41346871   4.310   3.929   3.061  1.2039 -0.0301 -1.7477
   90MOL   H41446872   3.789   4.152   3.094 -0.3477 -1.4360 -2.3064
   90MOL   H41546873   3.700   4.390   3.006 -1.1357 -1.4774  1.8308
   90MOL   H41646874   3.843   4.547   2.933 -1.2323 -0.9769 -1.6811
   90MOL   H41746875   4.099   4.518   2.961 -1.7754  2.2726  0.7188
   90MOL   C41846876   3.947   3.986   3.290  0.2201 -0.0971  0.4477
   90MOL   C41946877   4.027   4.080   3.386  0.3269  0.4002 -0.3402
   90MOL   N42046878   3.942   4.136   3.497  0.2827 -0.3235 -0.3595
   90MOL   C42146879   3.874   4.261   3.492 -0.7501  0.3391 -0.7252
   90MOL   C42246880   3.790   4.275   3.605 -0.5450 -0.0822 -0.2267
   90MOL   C42346881   3.710   4.393   3.620  0.4960  0.6497  0.3110
   90MOL   C42446882   3.714   4.499   3.522 -0.5245 -0.1735  0.4344
   90MOL   C42546883   3.788   4.480   3.406  0.5094  0.2415  0.8701
   90MOL   C42646884   3.871   4.361   3.388 -0.3854 -0.0696  0.3346
   90MOL   C42746885   3.805   4.157   3.691  0.3830  0.2928  0.0857
   90MOL   C42846886   3.901   4.077   3.623  0.4428 -0.2864  0.4230
   90MOL   C42946887   3.932   3.947   3.668 -0.1123 -0.2402 -0.2260
   90MOL   C43046888   3.875   3.915   3.793 -0.2257 -0.1482 -0.3725
   90MOL   C43146889   3.785   3.995   3.867 -0.2980  0.1437 -0.5554
   90MOL   C43246890   3.751   4.120   3.816 -0.5551  0.6246  0.2746
   90MOL   H43346891   3.843   4.014   3.277 -0.3517 -2.2602  0.2550
   90MOL   H43446892   3.947   3.885   3.331 -2.2054 -0.3379 -0.0905
   90MOL   H43546893   4.054   4.172   3.334  1.5518  0.1121 -0.2210
   90MOL   H43646894   3.657   4.410   3.713  1.7722  1.3010  0.9355
   90MOL   H43746895   3.644   4.580   3.536 -0.7610 -0.5063  1.2279
   90MOL   H43846896   3.782   4.549   3.323 -3.4965 -1.7493 -0.6723
   90MOL   H43946897   3.925   4.352   3.295  2.4653  1.9454  1.7221
   90MOL   H44046898   3.996   3.882   3.610  0.4839 -1.5790  1.9059
   90MOL   H44146899   3.907   3.822   3.837  1.0714  1.7601  2.9268
   90MOL   H44246900   3.739   3.964   3.960 -0.1848 -0.7384 -0.7814
   90MOL   H44346901   3.683   4.179   3.875 -0.4883 -1.0455  2.0568
   90MOL   C44446902   4.156   4.031   3.435 -0.2722 -0.2400  0.6363
   90MOL   C44546903   4.238   4.132   3.520  0.0546 -0.2828 -0.0673
   90MOL   N44646904   4.348   4.052   3.581  0.0861  0.0403  0.4826
   90MOL   C44746905   4.371   4.039   3.722  0.6308 -0.7097  0.1663
   90MOL   C44846906   4.470   3.941   3.739 -0.2221  0.1160 -0.2060
   90MOL   C44946907   4.505   3.908   3.872  0.5143 -0.9324  0.0504
   90MOL   C45046908   4.464   3.979   3.984  0.1052  1.1072 -0.5704
   90MOL   C45146909   4.368   4.079   3.964 -0.4310 -0.1840 -0.4279
   90MOL   C45246910   4.316   4.105   3.835 -0.0327 -0.3533 -0.5497
   90MOL   C45346911   4.522   3.907   3.611  0.1057  0.4642 -0.1442
   90MOL   C45446912   4.451   3.977   3.512 -0.3694 -0.1333 -0.5226
   90MOL   C45546913   4.475   3.962   3.372 -0.3870 -0.2412 -0.0237
   90MOL   C45646914   4.574   3.865   3.336  0.2484  0.1758  0.5388
   90MOL   C45746915   4.657   3.810   3.433  0.2590 -0.7144  0.3712
   90MOL   C45846916   4.628   3.828   3.569 -0.2545  0.1300  0.1653
   90MOL   H45946917   4.146   3.930   3.477 -0.4969  0.1327  1.4843
   90MOL   H46046918   4.214   3.995   3.350  0.9591  0.2064  1.2699
   90MOL   H46146919   4.181   4.174   3.604  0.3453 -2.3503  1.2077
   90MOL   H46246920   4.570   3.824   3.888  1.7894 -0.0679 -0.4191
   90MOL   H46346921   4.493   3.962   4.087 -0.7479  2.2609 -0.1360
   90MOL   H46446922   4.324   4.128   4.050 -2.6705 -0.8617 -1.1457
   90MOL   H46546923   4.228   4.166   3.822 -1.4568 -1.8866  1.5143
   90MOL   H46646924   4.417   4.019   3.301  2.5762  1.0863 -1.4459
   90MOL   H46746925   4.590   3.858   3.229  0.8463  0.9987  0.5678
   90MOL   H46846926   4.728   3.739   3.392 -0.0728 -0.4197 -0.7496
   90MOL   H46946927   4.687   3.771   3.639  0.0476 -2.7310 -2.3332
   90MOL   C47046928   4.288   4.240   3.418  0.8948 -0.1032  0.3610
   90MOL   C47146929   4.236   4.385   3.436  0.5679 -0.1796  0.3557
   90MOL   N47246930   4.283   4.446   3.560  0.1568 -0.0446 -0.3784
   90MOL   C47346931   4.200   4.507   3.659  0.6702  0.5479  0.5412
   90MOL   C47446932   4.286   4.572   3.755 -0.6031 -0.0238  0.5134
   90MOL   C47546933   4.227   4.641   3.860  0.5443 -0.4914 -0.0888
   90MOL   C47646934   4.088   4.651   3.876 -0.2886  0.0706  0.1070
   90MOL   C47746935   4.006   4.594   3.776  0.0748 -0.0817  0.0588
   90MOL   C47846936   4.061   4.529   3.668 -0.2587  0.2438  0.8243
   90MOL   C47946937   4.420   4.559   3.713  0.5835 -0.1893  0.7464
   90MOL   C48046938   4.411   4.475   3.595  0.5906  0.1669 -0.0676
   90MOL   C48146939   4.527   4.448   3.524 -0.0518  0.1336 -0.6507
   90MOL   C48246940   4.652   4.500   3.557  0.0415  0.2756 -0.3993
   90MOL   C48346941   4.662   4.575   3.676  0.3572  0.1455  0.6476
   90MOL   C48446942   4.546   4.607   3.749  0.5392  0.6033 -0.7476
   90MOL   H48546943   4.397   4.240   3.412  0.9173  0.6782  0.6904
   90MOL   H48646944   4.259   4.210   3.317 -0.9428 -0.3525  0.9285
   90MOL   H48746945   4.128   4.388   3.450  0.3147  1.3062 -1.8151
   90MOL   H48846946   4.288   4.689   3.935  0.3151  1.0411 -0.8638
   90MOL   H48946947   4.045   4.711   3.954 -1.5223  0.5360 -0.9157
   90MOL   H49046948   3.899   4.601   3.789  0.0003  0.1467 -0.6879
   90MOL   H49146949   3.996   4.490   3.590  1.5412 -0.2637 -0.4441
   90MOL   H49246950   4.525   4.415   3.421  1.9103 -0.9189 -0.3836
   90MOL   H49346951   4.745   4.483   3.505  0.7469 -1.1771  1.2639
   90MOL   H49446952   4.761   4.607   3.705  0.6779 -0.3434  0.1158
   90MOL   H49546953   4.560   4.665   3.839 -1.9140 -0.3627  0.2943
   90MOL   C49646954   4.257   4.482   3.312  0.4230 -0.4989 -0.5291
   90MOL   C49746955   4.261   4.635   3.340  0.1845 -0.5039 -0.1053
   90MOL   N49846956   4.269   4.694   3.208  0.1247  0.4282  0.0685
   90MOL   C49946957   4.164   4.752   3.138 -0.0278  0.0739  1.1482
   90MOL   C50046958   4.208   4.794   3.005  0.3532  0.9704 -0.5830
   90MOL   C50146959   4.111   4.853   2.921  0.4047 -0.3634 -0.5814
   90MOL   C50246960   3.974   4.858   2.963  0.1367  0.1781  0.2485
   90MOL   C50346961   3.940   4.831   3.096  0.4626 -0.1839 -0.5414
   90MOL   C50446962   4.029   4.772   3.179  0.3604 -0.0476 -0.5042
   90MOL   C50546963   4.344   4.749   2.992  0.2200 -0.6379 -0.6627
   90MOL   C50646964   4.377   4.689   3.117  0.3887 -0.2065  0.5216
   90MOL   C50746965   4.504   4.631   3.134  0.5552  0.1943 -0.5161
   90MOL   C50846966   4.597   4.620   3.027  0.0482  0.9850  0.3854
   90MOL   C50946967   4.561   4.682   2.907  0.1273  0.7221 -0.5421
   90MOL   C51046968   4.438   4.746   2.893  0.1648  0.4114  0.2395
   90MOL   H51146969   4.339   4.447   3.250  0.5384  1.7307 -1.6601
   90MOL   H51246970   4.174   4.468   3.242 -1.7874 -1.2313  2.1327
   90MOL   H51346971   4.340   4.673   3.404 -0.6670  2.6312 -0.8216
   90MOL   H51446972   4.133   4.876   2.818 -1.8665 -1.4840 -1.3535
   90MOL   H51546973   3.897   4.905   2.903 -0.7156 -0.4089  0.8781
   90MOL   H51646974   3.840   4.839   3.135  1.2220 -2.1608  1.9461
   90MOL   H51746975   4.001   4.750   3.281  1.3094 -0.0192 -0.2332
   90MOL   H51846976   4.530   4.583   3.227  0.2121 -2.6671 -1.8519
   90MOL   H51946977   4.694   4.572   3.037 -0.1049  0.4405 -0.6333
   90MOL   H52046978   4.620   4.683   2.817 -0.8379  3.8141 -1.2108
   90MOL   H52146979   4.421   4.786   2.794 -2.3995  0.2664  0.5776
   90MOL   H52246980   4.163   4.662   3.380 -0.8045  0.5017 -3.0567
   91MOL     C146981   5.875   1.040   6.709 -0.1952 -0.0085 -0.1549
   91MOL     C246982   5.767   1.128   6.653 -0.2321  0.1903 -0.3076
   91MOL     N346983   5.808   1.269   6.658  0.1461 -0.1662 -0.5010
   91MOL     C446984   5.743   1.370   6.727 -0.3809  0.2303  0.1443
   91MOL     C546985   5.803   1.500   6.701 -0.5239  0.1155  0.2069
   91MOL     C646986   5.747   1.617   6.757  0.3384  0.9495 -0.4634
   91MOL     C746987   5.634   1.609   6.845  0.7883 -0.0577 -0.0362
   91MOL     C846988   5.582   1.483   6.876  0.1378  0.0604 -0.3528
   91MOL     C946989   5.636   1.362   6.818  1.1140  0.5364  0.7156
   91MOL    C1046990   5.911   1.468   6.614 -0.9936  0.5839 -0.4392
   91MOL    C1146991   5.908   1.330   6.587  0.1895  0.1216  0.2451
   91MOL    C1246992   6.010   1.275   6.500  0.5991 -0.6338  0.2573
   91MOL    C1346993   6.104   1.357   6.441 -0.7218 -0.0278  0.4660
   91MOL    C1446994   6.106   1.498   6.467  0.5133 -0.2003 -0.1460
   91MOL    C1546995   6.003   1.554   6.548  0.3639 -0.0249  0.0130
   91MOL    H1646996   5.866   0.931   6.714  0.5292 -0.0767 -0.3549
   91MOL    H1746997   5.907   1.063   6.811 -0.0465 -2.0861  0.3014
   91MOL    H1846998   5.683   1.123   6.721  0.7272 -1.3523  0.7922
   91MOL    H1946999   5.792   1.712   6.732 -0.2817  1.6226  0.9176
   91MOL    H2047000   5.579   1.691   6.890  3.0878  1.8671 -0.6286
   91MOL    H2147001   5.492   1.475   6.935 -0.4640  0.4002 -1.2221
   91MOL    H2247002   5.581   1.271   6.839  2.1184 -0.3030 -0.2105
   91MOL    H2347003   5.986   1.174   6.471  1.3995 -0.5625 -0.6691
   91MOL    H2447004   6.177   1.307   6.380 -1.1974 -0.1450 -0.0090
   91MOL    H2547005   6.188   1.560   6.435 -0.7147  1.0967 -0.8510
   91MOL    H2647006   5.985   1.661   6.555  0.0786 -0.0923  0.3465
   91MOL    H2747007   5.965   1.057   6.650 -2.7222  2.5949 -3.4392
   91MOL    C2847008   5.721   1.078   6.512 -0.6932  0.0011 -0.4245
   91MOL    C2947009   5.638   0.958   6.522  0.0984  0.5661  0.3403
   91MOL    N3047010   5.515   0.969   6.599  0.0938  0.5331  0.6994
   91MOL    C3147011   5.480   0.878   6.705  0.1903  0.1292  0.2413
   91MOL    C3247012   5.351   0.916   6.752 -0.4585  0.0653  0.3955
   91MOL    C3347013   5.288   0.847   6.857  0.1055  0.4013 -0.7385
   91MOL    C3447014   5.343   0.731   6.919 -0.3256  0.1965  0.0562
   91MOL    C3547015   5.476   0.696   6.876 -0.3288  1.0115 -0.7227
   91MOL    C3647016   5.541   0.767   6.769 -0.4721  0.9133  0.2490
   91MOL    C3747017   5.306   1.032   6.684 -0.4622 -0.3754  0.4175
   91MOL    C3847018   5.406   1.063   6.585  0.2452 -0.1722 -0.5178
   91MOL    C3947019   5.386   1.161   6.489 -0.1509 -0.5324  0.8102
   91MOL    C4047020   5.275   1.241   6.494  0.4502 -0.5263  0.4400
   91MOL    C4147021   5.177   1.222   6.601 -0.1402  0.1667  0.2672
   91MOL    C4247022   5.198   1.120   6.691  0.5004 -0.0737 -0.3058
   91MOL    H4347023   5.658   1.152   6.463 -0.2646  0.5555 -0.1352
   91MOL    H4447024   5.812   1.056   6.457  0.2794  1.6535  0.4676
   91MOL    H4547025   5.703   0.882   6.564 -2.4690 -1.9714 -0.1084
   91MOL    H4647026   5.186   0.870   6.881 -0.3346 -0.4811 -1.7347
   91MOL    H4747027   5.285   0.671   6.987 -0.4715 -0.6738 -0.8160
   91MOL    H4847028   5.521   0.608   6.919 -1.7556  2.1718  3.3323
   91MOL    H4947029   5.635   0.728   6.734 -0.5768  1.9794 -1.3210
   91MOL    H5047030   5.449   1.177   6.403 -0.4309 -0.0055  0.6960
   91MOL    H5147031   5.254   1.318   6.421  0.5405  0.3353  1.2951
   91MOL    H5247032   5.088   1.281   6.612  1.0425  1.8700  0.8848
   91MOL    H5347033   5.125   1.108   6.770 -1.0336 -2.2186 -1.9525
   91MOL    C5447034   5.608   0.903   6.382  0.2175  0.3689 -0.1453
   91MOL    C5547035   5.485   0.809   6.351  0.3602  0.0280  0.3328
   91MOL    N5647036   5.457   0.806   6.207 -0.7692 -0.3288  0.3246
   91MOL    C5747037   5.346   0.854   6.139  0.3090 -0.0991 -0.8016
   91MOL    C5847038   5.368   0.841   6.001 -0.6025  0.5263  0.3061
   91MOL    C5947039   5.274   0.894   5.915 -0.5552 -0.1099 -0.2178
   91MOL    C6047040   5.151   0.950   5.962 -0.0819 -0.6389 -0.2882
   91MOL    C6147041   5.124   0.956   6.102 -0.3269 -0.5680  0.6167
   91MOL    C6247042   5.228   0.910   6.192  1.0561  0.5915 -0.1523
   91MOL    C6347043   5.494   0.782   5.985 -0.0719  0.1874  0.3466
   91MOL    C6447044   5.543   0.755   6.111 -0.0615  0.5214  0.1826
   91MOL    C6547045   5.669   0.695   6.132 -0.0832  0.3715  0.3402
   91MOL    C6647046   5.747   0.670   6.018 -0.8352 -0.4141  0.6388
   91MOL    C6747047   5.697   0.688   5.894 -0.3760  0.5505  0.0362
   91MOL    C6847048   5.569   0.739   5.870  0.4295  0.6326  0.4922
   91MOL    H6947049   5.591   0.995   6.325  2.0139  0.1920 -0.9924
   91MOL    H7047050   5.699   0.864   6.336  0.0194 -0.7069  0.3542
   91MOL    H7147051   5.391   0.852   6.386  0.1181 -0.4126  0.2374
   91MOL    H7247052   5.297   0.895   5.810 -2.6822 -0.6949 -0.7086
   91MOL    H7347053   5.083   0.987   5.887  1.2204 -0.1541 -1.2627
   91MOL    H7447054   5.029   0.996   6.135 -0.8681 -1.8330  0.6021
   91MOL    H7547055   5.206   0.929   6.296 -0.7121 -0.7219 -0.2576
   91MOL    H7647056   5.713   0.672   6.228  1.3780  0.4352 -0.2995
   91MOL    H7747057   5.845   0.630   6.037 -1.7164 -1.1779  3.8797
   91MOL    H7847058   5.758   0.669   5.808  0.4062 -1.1408  0.9253
   91MOL    H7947059   5.516   0.731   5.777  0.7018 -0.1437  0.4027
   91MOL    C8047060   5.492   0.663   6.407  0.2939  0.1205  0.7463
   91MOL    C8147061   5.355   0.590   6.411 -0.4020  0.5871  0.6382
   91MOL    N8247062   5.368   0.444   6.429 -0.8642 -0.2258  0.1289
   91MOL    C8347063   5.341   0.354   6.326 -0.5955 -0.3215 -0.5229
   91MOL    C8447064   5.351   0.218   6.378  0.2750 -0.0448  0.6309
   91MOL    C8547065   5.315   0.105   6.293  0.2484 -0.6958  0.8478
   91MOL    C8647066   5.266   0.132   6.160  0.2078  0.0330 -0.2918
   91MOL    C8747067   5.256   0.263   6.111  0.7033 -0.0750 -0.5373
   91MOL    C8847068   5.296   0.373   6.191  0.8916  0.0022 -1.0556
   91MOL    C8947069   5.399   0.233   6.512  0.3123  0.8345 -0.2667
   91MOL    C9047070   5.417   0.370   6.537 -0.1001 -0.4671  0.7857
   91MOL    C9147071   5.464   0.415   6.660 -0.4027  0.3091  0.4947
   91MOL    C9247072   5.502   0.328   6.762 -0.3931  0.0097 -0.0804
   91MOL    C9347073   5.488   0.189   6.743  0.0547  0.5211 -0.0766
   91MOL    C9447074   5.435   0.146   6.618  0.1015  0.5175 -0.3794
   91MOL    H9547075   5.557   0.600   6.347 -1.2004 -1.2749  0.5553
   91MOL    H9647076   5.544   0.676   6.502 -0.2728 -2.5646  1.4848
   91MOL    H9747077   5.307   0.595   6.313 -0.6045 -1.5595  0.6029
   91MOL    H9847078   5.323   0.006   6.337 -1.8220 -0.7952  1.0500
   91MOL    H9947079   5.223   0.051   6.104  1.8251  0.3083 -1.9821
   91MOL   H10047080   5.222   0.296   6.014 -0.9129 -1.6405 -0.5288
   91MOL   H10147081   5.293   0.468   6.140  1.9927  1.2000  1.0179
   91MOL   H10247082   5.483   0.519   6.681  0.8512 -0.2955  2.4960
   91MOL   H10347083   5.547   0.358   6.856  0.0128 -1.0624  0.0707
   91MOL   H10447084   5.517   0.112   6.813 -2.1636 -0.2160  0.0769
   91MOL   H10547085   5.451   0.043   6.592  0.7782  1.3141 -3.3592
   91MOL   C10647086   5.257   0.640   6.518  0.0248  0.1113  0.3766
   91MOL   C10747087   5.142   0.548   6.558  0.3804 -0.5744  0.4821
   91MOL   N10847088   5.073   0.585   6.682 -0.0396 -0.1126  0.3825
   91MOL   C10947089   5.055   0.509   6.802 -0.0372 -0.2276  0.8942
   91MOL   C11047090   4.978   0.581   6.901  0.2360  0.3174  0.7408
   91MOL   C11147091   4.948   0.517   7.020 -0.6490  0.2420 -0.7316
   91MOL   C11247092   4.989   0.382   7.048 -1.0331  0.4445  0.4011
   91MOL   C11347093   5.073   0.314   6.952  0.4767  0.0527  0.2609
   91MOL   C11447094   5.103   0.382   6.835 -0.6895 -0.7554 -0.6658
   91MOL   C11547095   4.944   0.703   6.840 -0.3421  0.4557 -0.6976
   91MOL   C11647096   5.008   0.707   6.709  0.8826  0.2568  0.3350
   91MOL   C11747097   4.993   0.818   6.627  0.3437 -0.3097  0.3818
   91MOL   C11847098   4.914   0.927   6.671 -0.6533  0.4323  0.0164
   91MOL   C11947099   4.870   0.929   6.804 -0.0717 -0.4470 -0.0095
   91MOL   C12047100   4.875   0.814   6.884 -0.3693  0.6709  0.3240
   91MOL   H12147101   5.306   0.659   6.614  3.3815  1.0268 -1.4239
   91MOL   H12247102   5.229   0.740   6.485  2.9065  1.3207  1.3347
   91MOL   H12347103   5.187   0.453   6.588  3.1477  0.6726  0.4641
   91MOL   H12447104   4.898   0.572   7.099 -1.0241 -2.1449  0.7900
   91MOL   H12547105   4.974   0.337   7.145 -1.7558 -1.0985 -0.4152
   91MOL   H12647106   5.124   0.220   6.967  0.8848  0.4813  1.6298
   91MOL   H12747107   5.158   0.331   6.758 -0.2261 -0.6708 -0.3990
   91MOL   H12847108   5.032   0.813   6.526 -0.6361  0.8156 -0.0678
   91MOL   H12947109   4.889   1.012   6.608 -1.0503  0.4724  0.2243
   91MOL   H13047110   4.803   1.006   6.841 -1.0606 -1.3124  0.0179
   91MOL   H13147111   4.840   0.823   6.986 -1.8204 -0.4276 -0.0677
   91MOL   C13247112   5.028   0.530   6.457  0.0958 -0.3203 -1.1603
   91MOL   C13347113   4.924   0.423   6.501 -1.3908 -0.4279  0.0898
   91MOL   N13447114   4.796   0.455   6.436  0.4268  0.1809  0.1169
   91MOL   C13547115   4.681   0.504   6.501 -0.1948 -0.4839 -0.1174
   91MOL   C13647116   4.571   0.511   6.411  0.6242  0.6909 -0.0109
   91MOL   C13747117   4.446   0.540   6.463  0.4141 -0.3185  0.2818
   91MOL   C13847118   4.427   0.572   6.601 -0.3317 -1.0443 -0.3110
   91MOL   C13947119   4.540   0.566   6.683  0.3368 -0.0882 -0.7436
   91MOL   C14047120   4.665   0.536   6.636  0.1500  0.5095  0.5031
   91MOL   C14147121   4.622   0.465   6.292  0.5380 -0.2616  0.8884
   91MOL   C14247122   4.762   0.429   6.304 -0.0537  0.3509  0.2488
   91MOL   C14347123   4.841   0.391   6.190  0.0929 -0.1725  0.1505
   91MOL   C14447124   4.775   0.380   6.066 -0.3446 -0.0673 -0.5885
   91MOL   C14547125   4.639   0.394   6.057  0.8319 -0.5223  0.0471
   91MOL   C14647126   4.567   0.445   6.163 -0.4842 -0.0768  0.1004
   91MOL   H14747127   4.982   0.627   6.443 -1.2796 -0.4286  2.2782
   91MOL   H14847128   5.073   0.507   6.360  0.8440  1.2838 -1.2119
   91MOL   H14947129   4.897   0.424   6.607 -0.8576  1.1218  0.2187
   91MOL   H15047130   4.364   0.554   6.394  2.0179  0.1013 -1.5782
   91MOL   H15147131   4.328   0.586   6.641  0.3401  2.9382  0.1692
   91MOL   H15247132   4.536   0.580   6.790  3.5445  0.3967 -0.6440
   91MOL   H15347133   4.741   0.523   6.712 -1.2767 -1.6266  1.6125
   91MOL   H15447134   4.945   0.368   6.205  0.4696  0.2759 -1.6922
   91MOL   H15547135   4.829   0.345   5.979 -2.1097  0.5978 -1.9809
   91MOL   H15647136   4.591   0.362   5.966  3.0986 -1.0322 -1.0185
   91MOL   H15747137   4.462   0.470   6.153 -0.8585 -1.7259 -0.1391
   91MOL   C15847138   4.973   0.279   6.473  0.2925  0.0435  0.5659
   91MOL   C15947139   4.859   0.169   6.482  0.0565 -0.2873  0.1034
   91MOL   N16047140   4.920   0.038   6.445 -0.0787 -0.1911  0.3798
   91MOL   C16147141   4.908   8.212   6.317 -0.6054 -0.4277  0.2504
   91MOL   C16247142   4.997   8.104   6.297  0.5179  0.8038  0.7993
   91MOL   C16347143   5.007   8.040   6.170 -0.6935  0.5277 -0.5268
   91MOL   C16447144   4.925   8.086   6.067 -0.2850  0.3046 -0.1734
   91MOL   C16547145   4.840   8.199   6.085 -0.2955  0.5021 -0.0344
   91MOL   C16647146   4.833   0.036   6.209  0.8725 -0.4393 -0.0873
   91MOL   C16747147   5.045   8.073   6.427 -0.3356 -0.0465  0.3171
   91MOL   C16847148   5.006   8.175   6.515 -1.0434 -0.7223  0.0549
   91MOL   C16947149   5.051   8.176   6.650  0.3546  0.5980 -0.3155
   91MOL   C17047150   5.126   8.068   6.703  0.0492  0.3281 -0.2481
   91MOL   C17147151   5.158   7.963   6.614  0.5065 -0.4564  0.6720
   91MOL   C17247152   5.117   7.964   6.478 -0.0594  0.4502  0.1142
   91MOL   H17347153   5.008   0.272   6.370  0.3280 -0.8356  0.6312
   91MOL   H17447154   5.058   0.253   6.536 -0.8762 -1.6685  1.4899
   91MOL   H17547155   4.788   0.189   6.402  0.9719  2.9533  0.0282
   91MOL   H17647156   5.076   7.959   6.157 -0.4186  0.1226  2.8982
   91MOL   H17747157   4.920   8.030   5.975 -0.4205  0.3274 -0.1800
   91MOL   H17847158   4.784   0.003   5.998 -0.2892  2.3220  0.5941
   91MOL   H17947159   4.756   0.112   6.206 -1.6486 -2.9307 -0.3680
   91MOL   H18047160   5.013   0.016   6.726  0.1021 -1.0581  1.0718
   91MOL   H18147161   5.144   8.074   6.809  2.8446  1.3071 -0.7365
   91MOL   H18247162   5.219   7.881   6.649  1.1820  0.7196  2.3633
   91MOL   H18347163   5.153   7.889   6.410 -0.4651  1.5705 -1.3844
   91MOL   C18447164   4.775   0.160   6.605 -0.1099  0.5627  0.4874
   91MOL   C18547165   4.648   0.078   6.598 -0.0393 -0.6063  0.5839
   91MOL   N18647166   4.617   0.030   6.730 -0.8919 -0.0910  0.0589
   91MOL   C18747167   4.630   8.116   6.765 -0.2397  0.0339  0.4602
   91MOL   C18847168   4.569   8.114   6.893 -0.0638  0.2456 -0.6342
   91MOL   C18947169   4.548   7.985   6.951 -0.1554 -0.0518  0.5825
   91MOL   C19047170   4.590   7.867   6.889 -0.4922  0.0991 -0.2613
   91MOL   C19147171   4.651   7.867   6.766 -0.1770 -0.0823  0.0776
   91MOL   C19247172   4.672   7.995   6.703 -0.3141  0.0795  0.1975
   91MOL   C19347173   4.546   0.017   6.945 -0.2021  0.3078  0.1949
   91MOL   C19447174   4.574   0.109   6.844 -0.3257 -0.2324  0.5064
   91MOL   C19547175   4.560   0.248   6.862 -0.1732 -1.0570 -0.7549
   91MOL   C19647176   4.512   0.298   6.984  0.4467 -1.1576  0.1056
   91MOL   C19747177   4.473   0.208   7.087 -0.3148  0.0348  0.0486
   91MOL   C19847178   4.488   0.068   7.065 -1.3905 -0.0031 -0.6234
   91MOL   H19947179   4.834   0.124   6.689 -1.9080  0.2601  1.6665
   91MOL   H20047180   4.755   0.262   6.637 -0.1127  1.0421 -0.9992
   91MOL   H20147181   4.660   8.222   6.528  1.7960  1.2113 -1.3250
   91MOL   H20247182   4.504   7.991   7.050  1.3020  0.3421  1.2189
   91MOL   H20347183   4.584   7.776   6.948 -4.4691  0.8426  0.6789
   91MOL   H20447184   4.672   7.770   6.724  1.4304  0.6654 -0.9218
   91MOL   H20547185   4.719   7.985   6.607  2.0493  0.3137  1.3049
   91MOL   H20647186   4.581   0.318   6.783 -0.8517  0.3243  0.2663
   91MOL   H20747187   4.502   0.404   7.003 -0.1634 -1.0589 -0.7415
   91MOL   H20847188   4.435   0.243   7.182 -1.1367  1.2028 -0.7062
   91MOL   H20947189   4.458   8.217   7.133 -1.0955  0.0837 -0.3963
   91MOL   C21047190   4.534   0.156   6.524  0.2479  0.9860  1.0683
   91MOL   C21147191   4.384   0.105   6.541 -0.3282  0.6257  0.0906
   91MOL   N21247192   4.290   0.202   6.495 -0.0819  0.4131  0.4620
   91MOL   C21347193   4.200   0.280   6.566 -0.2158  0.0409  0.4714
   91MOL   C21447194   4.139   0.382   6.478 -0.2548  0.4763  0.6725
   91MOL   C21547195   4.049   0.479   6.533  0.0565 -0.4862 -0.2689
   91MOL   C21647196   4.026   0.482   6.670 -0.0153 -1.0718 -0.7302
   91MOL   C21747197   4.090   0.393   6.755 -0.3973  0.3050  0.2723
   91MOL   C21847198   4.183   0.298   6.703 -0.2022  0.0391  0.3797
   91MOL   C21947199   4.179   0.344   6.347  0.3957 -0.1930  0.0646
   91MOL   C22047200   4.266   0.228   6.358  0.2866 -1.0241 -0.3864
   91MOL   C22147201   4.327   0.172   6.237 -0.2173 -0.0996  0.2555
   91MOL   C22247202   4.295   0.228   6.110 -0.7516  0.5627  0.1616
   91MOL   C22347203   4.211   0.339   6.107  0.0390  0.3106 -0.5190
   91MOL   C22447204   4.149   0.392   6.223  0.2682  0.5888  0.8234
   91MOL   H22547205   4.533   0.263   6.542  0.4860  1.4234 -1.2622
   91MOL   H22647206   4.565   0.161   6.419  0.9876  0.2319  1.2492
   91MOL   H22747207   4.376   0.101   6.650 -1.0783  0.3313  0.0242
   91MOL   H22847208   4.011   0.555   6.466 -1.4305 -0.4743  0.5511
   91MOL   H22947209   3.979   0.570   6.712 -1.4582 -1.2705 -1.8638
   91MOL   H23047210   4.093   0.405   6.862 -0.8032 -2.3344  0.6201
   91MOL   H23147211   4.245   0.235   6.765 -0.5478  0.3888  1.0768
   91MOL   H23247212   4.392   0.086   6.235  1.8933  1.4631  0.1340
   91MOL   H23347213   4.330   0.191   6.015 -0.1046  0.1414  0.5630
   91MOL   H23447214   4.200   0.385   6.010  0.9745 -1.9123 -1.7314
   91MOL   H23547215   4.081   0.475   6.216 -0.3634  0.1360  1.5589
   91MOL   C23647216   4.354   8.186   6.498  0.0436 -1.0086 -0.7287
   91MOL   C23747217   4.224   8.123   6.552  0.7403 -0.0765  0.2078
   91MOL   N23847218   4.169   8.013   6.471 -0.0736  0.0892 -0.1381
   91MOL   C23947219   4.070   8.035   6.371  0.0606 -0.1895 -0.1212
   91MOL   C24047220   4.004   7.911   6.341  0.3631 -0.1929 -0.7302
   91MOL   C24147221   3.888   7.913   6.261  0.1557  0.7188 -0.4877
   91MOL   C24247222   3.836   8.030   6.208 -0.2478  0.2029 -0.6106
   91MOL   C24347223   3.906   8.150   6.231  1.1971 -0.2301  0.5613
   91MOL   C24447224   4.020   8.156   6.316  0.2828 -0.0510 -0.5419
   91MOL   C24547225   4.085   7.809   6.414  0.1796 -0.4346  0.8787
   91MOL   C24647226   4.192   7.878   6.477 -1.3100  0.1927 -0.2840
   91MOL   C24747227   4.292   7.802   6.544  0.0126  0.5280  0.3504
   91MOL   C24847228   4.287   7.661   6.538 -0.1426 -0.7383 -0.0612
   91MOL   C24947229   4.180   7.595   6.479 -0.0198 -0.4789  0.2836
   91MOL   C25047230   4.081   7.668   6.414  0.0565 -0.3111  0.1954
   91MOL   H25147231   4.352   8.182   6.389 -0.9273 -2.5986 -0.6736
   91MOL   H25247232   4.448   8.131   6.508  1.1601  1.3398  2.5865
   91MOL   H25347233   4.143   8.196   6.548  0.3502 -0.5747 -1.3175
   91MOL   H25447234   3.847   7.816   6.239  0.2080 -0.0782  2.5914
   91MOL   H25547235   3.743   8.028   6.154  0.0770 -0.4541 -1.1685
   91MOL   H25647236   3.878   0.008   6.171  1.7406 -1.5771 -1.6653
   91MOL   H25747237   4.061   0.025   6.341 -3.6007  0.8343  3.1503
   91MOL   H25847238   4.372   7.846   6.601  0.1958  0.0008  0.5074
   91MOL   H25947239   4.372   7.614   6.584  0.2415  1.0853  1.1668
   91MOL   H26047240   4.185   7.487   6.483 -0.2213 -0.5694 -1.3061
   91MOL   H26147241   3.995   7.622   6.367  0.7150 -1.1454 -0.2121
   91MOL   C26247242   4.237   8.091   6.705  0.3894 -0.4835 -0.5439
   91MOL   C26347243   4.117   8.014   6.770  0.1896  0.3005 -0.0149
   91MOL   N26447244   4.150   7.983   6.905 -0.4432  0.4107 -0.0196
   91MOL   C26547245   4.165   7.857   6.961 -0.0637  0.5032  1.0445
   91MOL   C26647246   4.174   7.867   7.101 -0.3309 -0.6693  0.8215
   91MOL   C26747247   4.193   7.751   7.184  0.4476 -1.2401  0.3131
   91MOL   C26847248   4.203   7.627   7.125 -0.2772 -0.6683 -0.3703
   91MOL   C26947249   4.183   7.612   6.983 -0.7400  0.3988  0.2673
   91MOL   C27047250   4.163   7.731   6.898  0.3070 -0.1177  0.1028
   91MOL   C27147251   4.169   8.011   7.135 -0.0841  0.2624  0.2861
   91MOL   C27247252   4.164   8.080   7.013  0.0217  0.2149  0.4360
   91MOL   C27347253   4.151   8.222   7.016  0.5036 -0.3611  0.1115
   91MOL   C27447254   4.156   0.065   7.137 -0.6276  1.0438 -0.5722
   91MOL   C27547255   4.157   8.226   7.259 -1.3359  0.1947 -0.1785
   91MOL   C27647256   4.171   8.084   7.259  0.1476  0.1998  0.2377
   91MOL   H27747257   4.329   8.033   6.710  0.1951 -0.7242  0.4672
   91MOL   H27847258   4.265   8.181   6.761 -0.9764 -0.6017  0.3668
   91MOL   H27947259   4.104   7.921   6.716  0.6077 -0.8530  1.8347
   91MOL   H28047260   4.195   7.763   7.291 -2.0210 -0.1302  0.2781
   91MOL   H28147261   4.208   7.540   7.189  1.4661  0.1615  0.6457
   91MOL   H28247262   4.197   7.512   6.944 -0.4160  0.3489  0.5070
   91MOL   H28347263   4.165   7.723   6.790  0.7670  1.2863 -0.0131
   91MOL   H28447264   4.133   0.047   6.923 -1.1340  0.1104  0.6695
   91MOL   H28547265   4.160   0.172   7.141  0.8671  1.1206 -3.2671
   91MOL   H28647266   4.173   0.044   7.356  0.5413  1.5484 -1.0834
   91MOL   H28747267   4.160   8.036   7.355  1.5459  2.7202  1.7367
   91MOL   C28847268   3.968   8.076   6.759 -0.5953  0.6287 -0.7144
   91MOL   C28947269   3.849   7.984   6.795 -0.1804 -0.4299  0.3646
   91MOL   N29047270   3.718   8.055   6.794  0.4556  0.0261  0.2351
   91MOL   C29147271   3.626   8.051   6.903  0.6979 -0.3193 -0.0153
   91MOL   C29247272   3.510   8.118   6.870 -0.0817 -0.1770 -0.3964
   91MOL   C29347273   3.409   8.142   6.962  0.2823  0.7184 -0.1709
   91MOL   C29447274   3.418   8.088   7.094 -0.4162  1.0779 -0.2821
   91MOL   C29547275   3.533   8.013   7.126 -0.0874 -0.7343 -0.6828
   91MOL   C29647276   3.635   7.994   7.030  0.1010 -0.4112 -0.0404
   91MOL   C29747277   3.526   8.159   6.729 -0.1719 -0.2613 -0.4590
   91MOL   C29847278   3.654   8.125   6.690  0.3011 -0.1501 -0.1840
   91MOL   C29947279   3.702   8.162   6.555  0.4268 -0.1004  0.1924
   91MOL   C30047280   3.613   8.227   6.463  0.2129 -0.1767 -0.2534
   91MOL   C30147281   3.484   0.036   6.509 -0.6126  0.3228  0.2971
   91MOL   C30247282   3.443   0.002   6.638  0.1691 -0.0220 -0.2571
   91MOL   H30347283   3.964   8.176   6.804 -0.0133  2.1706 -3.9106
   91MOL   H30447284   3.947   8.115   6.659 -0.7980  2.5573  0.0455
   91MOL   H30547285   3.861   7.950   6.898  0.7987  0.5052  0.5709
   91MOL   H30647286   3.321   8.199   6.936  1.3463  1.9139 -1.2513
   91MOL   H30747287   3.335   8.099   7.162 -0.2853  2.0055 -0.2761
   91MOL   H30847288   3.543   7.985   7.230 -2.9830 -0.6300 -0.3578
   91MOL   H30947289   3.718   7.932   7.061 -1.1732 -0.7430  2.8881
   91MOL   H31047290   3.803   8.146   6.523  0.9472  0.6785  1.4162
   91MOL   H31147291   3.640   0.021   6.361 -0.4370  0.7300 -0.2395
   91MOL   H31247292   3.430   0.091   6.433 -0.5000 -0.9095 -0.7032
   91MOL   H31347293   3.341   0.020   6.669  0.6816  2.1340  0.2893
   91MOL   C31447294   3.837   7.857   6.712  0.9141  0.3151 -0.3195
   91MOL   C31547295   3.710   7.771   6.725  0.0278  0.0540  0.4773
   91MOL   N31647296   3.682   7.692   6.605  0.5744 -0.0135 -0.6361
   91MOL   C31747297   3.599   7.722   6.497 -0.0215 -0.2892  0.0130
   91MOL   C31847298   3.585   7.614   6.419 -0.1898  0.2461  0.6939
   91MOL   C31947299   3.489   7.601   6.317  0.0570  0.5438  0.3998
   91MOL   C32047300   3.396   7.705   6.299  0.2401  0.3763  0.2669
   91MOL   C32147301   3.408   7.820   6.378 -0.5639  0.2755 -0.4770
   91MOL   C32247302   3.515   7.830   6.478 -0.2493  0.0093  0.2236
   91MOL   C32347303   3.686   7.520   6.447 -0.0890 -0.1315  0.1408
   91MOL   C32447304   3.753   7.577   6.558 -0.1890  0.2324  0.0328
   91MOL   C32547305   3.859   7.505   6.619  0.5191 -0.1311 -0.0924
   91MOL   C32647306   3.907   7.385   6.562 -0.9402 -0.2066 -0.2921
   91MOL   C32747307   3.842   7.330   6.445  0.4140 -0.0213  0.7685
   91MOL   C32847308   3.738   7.400   6.385  0.4768 -0.2907  0.6198
   91MOL   H32947309   3.851   7.886   6.608 -1.0518 -1.2535 -1.0605
   91MOL   H33047310   3.917   7.787   6.737  0.0562  0.0942  1.9141
   91MOL   H33147311   3.624   7.838   6.731 -0.1931 -0.0031 -1.7239
   91MOL   H33247312   3.490   7.519   6.247  1.5939  1.3510 -0.5570
   91MOL   H33347313   3.321   7.695   6.222  0.2655 -0.6835  0.3785
   91MOL   H33447314   3.346   7.904   6.349  0.0704  0.9499  0.1172
   91MOL   H33547315   3.534   7.921   6.534  0.3472  1.2216 -1.9205
   91MOL   H33647316   3.906   7.536   6.711  0.6753  0.0662 -0.2397
   91MOL   H33747317   3.976   7.339   6.631  0.0725  0.4234 -0.8872
   91MOL   H33847318   3.869   7.230   6.415 -1.5045 -0.5152  0.6567
   91MOL   H33947319   3.705   7.361   6.290 -3.9858  1.2921  1.3801
   91MOL   C34047320   3.713   7.685   6.850 -0.0424 -0.1596 -0.0239
   91MOL   C34147321   3.611   7.572   6.861 -0.4225  0.5601  0.3799
   91MOL   N34247322   3.641   7.492   6.984 -0.1969 -0.2195 -0.8447
   91MOL   C34347323   3.702   7.367   6.995 -0.1674 -0.0101 -0.7223
   91MOL   C34447324   3.715   7.334   7.131 -0.2357 -0.5716 -0.1514
   91MOL   C34547325   3.776   7.210   7.159 -0.6263 -1.0062  0.3703
   91MOL   C34647326   3.808   7.120   7.061 -0.4190 -0.0981 -0.2514
   91MOL   C34747327   3.795   7.159   6.926 -0.2552  0.3330 -0.4665
   91MOL   C34847328   3.747   7.285   6.890 -1.1458  0.6820  0.3771
   91MOL   C34947329   3.663   7.437   7.211  0.1481 -0.0362 -0.2607
   91MOL   C35047330   3.618   7.537   7.118  1.1284  0.3759 -0.4041
   91MOL   C35147331   3.565   7.655   7.172  0.3222  0.4114  0.5951
   91MOL   C35247332   3.568   7.684   7.311  0.4040 -0.6681 -0.2309
   91MOL   C35347333   3.610   7.592   7.403  0.2235  0.6596 -0.4017
   91MOL   C35447334   3.645   7.460   7.349 -0.0704  0.6737 -0.8778
   91MOL   H35547335   3.811   7.642   6.864 -0.9220 -1.9464  0.8153
   91MOL   H35647336   3.704   7.752   6.936  0.3013  1.0048 -0.8803
   91MOL   H35747337   3.623   7.505   6.776 -1.7377 -0.8384  1.2786
   91MOL   H35847338   3.786   7.178   7.262 -1.0015 -0.0486  0.7119
   91MOL   H35947339   3.842   7.019   7.081  0.4536  0.8690  3.6623
   91MOL   H36047340   3.801   7.087   6.846  0.7247 -0.6623  0.4725
   91MOL   H36147341   3.722   7.316   6.789 -0.1607  1.0090  0.2260
   91MOL   H36247342   3.531   7.733   7.106 -0.6032 -0.4515  0.0439
   91MOL   H36347343   3.539   7.787   7.330  0.1776 -0.7387 -0.1991
   91MOL   H36447344   3.620   7.619   7.507 -2.0703  1.5277 -0.3981
   91MOL   H36547345   3.677   7.392   7.426  2.2825  0.3137 -2.1430
   91MOL   C36647346   3.467   7.624   6.855  0.5169  0.1025 -0.6414
   91MOL   C36747347   3.376   7.558   6.754  0.7417  0.1585  0.9794
   91MOL   N36847348   3.356   7.420   6.800  0.3007  0.6056  0.1023
   91MOL   C36947349   3.395   7.305   6.725 -0.1620 -0.1307 -0.3886
   91MOL   C37047350   3.359   7.187   6.794 -0.5003  0.4367  0.6171
   91MOL   C37147351   3.383   7.061   6.726  0.3071  0.1298  0.0665
   91MOL   C37247352   3.448   7.056   6.606  0.0637  0.4389 -0.1308
   91MOL   C37347353   3.487   7.176   6.545  0.6377 -0.2780  0.7217
   91MOL   C37447354   3.461   7.297   6.600  0.1325 -0.1183  0.2546
   91MOL   C37547355   3.298   7.235   6.919  0.1112 -0.1366 -0.6719
   91MOL   C37647356   3.282   7.374   6.911  0.5409 -0.2169 -0.2795
   91MOL   C37747357   3.210   7.443   7.011 -0.0813  0.3637  0.5495
   91MOL   C37847358   3.166   7.380   7.132 -0.0926  1.2199 -0.1318
   91MOL   C37947359   3.194   7.244   7.138 -0.5824  0.9393 -1.0971
   91MOL   C38047360   3.255   7.168   7.038  0.0579 -0.6313  0.0926
   91MOL   H38147361   3.412   7.611   6.948  0.1696 -0.8131 -0.9699
   91MOL   H38247362   3.466   7.733   6.846  0.7169  0.2873  1.2973
   91MOL   H38347363   3.420   7.549   6.655 -0.3784 -3.5785  0.7282
   91MOL   H38447364   3.340   6.971   6.768 -1.1569  1.1193  0.7207
   91MOL   H38547365   3.481   6.963   6.561  2.4832  0.3226  1.7978
   91MOL   H38647366   3.523   7.171   6.443 -1.6882  1.7373 -0.2312
   91MOL   H38747367   3.495   7.390   6.558  1.2437  0.4531  2.3767
   91MOL   H38847368   3.200   7.549   6.995 -1.6077  0.1300 -0.1303
   91MOL   H38947369   3.110   7.429   7.210  0.7278  0.8360  0.7005
   91MOL   H39047370   3.177   7.187   7.229  3.4296  2.7040  0.9071
   91MOL   H39147371   3.268   7.061   7.042 -0.4530 -0.8870 -3.6057
   91MOL   C39247372   3.243   7.628   6.720  0.4522 -0.1475 -0.0888
   91MOL   C39347373   3.113   7.555   6.661  0.4871 -0.0398  0.1231
   91MOL   N39447374   2.998   7.639   6.653  0.2460 -0.1600 -0.3249
   91MOL   C39547375   2.887   7.634   6.735 -0.9836  0.2450 -0.9953
   91MOL   C39647376   2.797   7.740   6.705  0.7734  0.9188 -0.3821
   91MOL   C39747377   2.674   7.746   6.782 -0.4906  0.0227  0.6474
   91MOL   C39847378   2.640   7.654   6.885 -0.3197 -0.2524  0.0488
   91MOL   C39947379   2.725   7.547   6.909 -0.4474 -0.2399 -0.5881
   91MOL   C40047380   2.844   7.539   6.835  0.6567  0.7543 -0.8537
   91MOL   C40147381   2.851   7.810   6.591 -0.4272  0.3998  0.5520
   91MOL   C40247382   2.979   7.751   6.573 -0.3923 -0.7146 -0.2901
   91MOL   C40347383   3.068   7.801   6.474  0.6527  0.5950  0.9728
   91MOL   C40447384   3.032   7.912   6.394 -0.1344 -0.2614  0.1289
   91MOL   C40547385   2.897   7.963   6.403  0.3574  0.1880  0.0840
   91MOL   C40647386   2.810   7.912   6.506  0.3502  0.2768  0.1582
   91MOL   H40747387   3.209   7.671   6.814 -1.6616 -0.0421 -0.8696
   91MOL   H40847388   3.266   7.708   6.651  0.7036 -0.9792 -0.9745
   91MOL   H40947389   3.095   7.470   6.726 -0.0645 -0.1171 -0.1341
   91MOL   H41047390   2.601   7.823   6.760  0.2066  0.7867  0.9853
   91MOL   H41147391   2.548   7.667   6.941 -1.4772 -1.4835 -1.5050
   91MOL   H41247392   2.701   7.471   6.982  0.3258 -0.5541 -0.6606
   91MOL   H41347393   2.909   7.453   6.848  2.0048  1.8969  0.1258
   91MOL   H41447394   3.162   7.753   6.453 -0.0793 -0.2217 -0.4973
   91MOL   H41547395   3.109   7.958   6.336  1.2246 -3.1740 -0.4596
   91MOL   H41647396   2.865   8.043   6.338 -1.1670  0.4894  1.1846
   91MOL   H41747397   2.716   7.963   6.522  0.8867  1.0898  0.7267
   91MOL   C41847398   3.142   7.491   6.523  0.3938  0.6174  0.2955
   91MOL   C41947399   3.020   7.436   6.448  0.3316  0.2074 -1.2149
   91MOL   N42047400   3.057   7.408   6.313 -0.2292  0.5416  0.1164
   91MOL   C42147401   3.015   7.481   6.196 -0.4167 -0.6770  0.9378
   91MOL   C42247402   3.064   7.407   6.077  0.2836  0.2678  0.5968
   91MOL   C42347403   3.037   7.461   5.948  0.0380 -0.4512  0.2647
   91MOL   C42447404   2.962   7.578   5.943 -0.5273 -0.0724  0.6190
   91MOL   C42547405   2.926   7.656   6.058 -0.0900  0.0614  0.1275
   91MOL   C42647406   2.943   7.602   6.187  0.7010  0.3246  0.5224
   91MOL   C42747407   3.142   7.297   6.128  0.0089 -0.7168  0.4336
   91MOL   C42847408   3.137   7.304   6.270  0.0409 -0.4688  0.4007
   91MOL   C42947409   3.202   7.210   6.353 -0.4180 -1.0699  0.1799
   91MOL   C43047410   3.273   7.108   6.288  0.9018 -0.1250 -0.1567
   91MOL   C43147411   3.273   7.091   6.151 -0.4475 -0.3253 -0.0938
   91MOL   C43247412   3.207   7.184   6.071 -0.0309 -0.4060  0.4783
   91MOL   H43347413   3.207   7.556   6.463 -2.0563  4.1448  1.3335
   91MOL   H43447414   3.206   7.405   6.546  2.0783  1.3582 -1.4710
   91MOL   H43547415   2.943   7.513   6.445 -0.5622 -0.6702 -1.0476
   91MOL   H43647416   3.065   7.418   5.853  0.7979 -0.7678  0.6274
   91MOL   H43747417   2.950   7.622   5.845 -2.2815  1.1322  1.3564
   91MOL   H43847418   2.872   7.749   6.048 -1.1814 -0.3254  2.1590
   91MOL   H43947419   2.910   7.657   6.274  0.5828 -1.0136  1.3218
   91MOL   H44047420   3.205   7.208   6.461 -0.3287  1.7659  0.2653
   91MOL   H44147421   3.321   7.030   6.344 -2.4992 -3.0212 -1.0981
   91MOL   H44247422   3.327   7.013   6.099  0.5521 -0.2016  0.7421
   91MOL   H44347423   3.201   7.168   5.964 -0.6872 -0.0889  0.4614
   91MOL   C44447424   2.945   7.322   6.518 -0.1138 -0.6664  0.3181
   91MOL   C44547425   2.799   7.306   6.455  0.0513  0.0687 -0.3547
   91MOL   N44647426   2.765   7.161   6.460 -0.1707  0.0536 -0.1788
   91MOL   C44747427   2.758   7.074   6.350 -0.6542  0.0812  0.3604
   91MOL   C44847428   2.729   6.941   6.394 -0.4601 -0.0688 -0.2229
   91MOL   C44947429   2.709   6.839   6.302  0.0574 -0.1099  0.3443
   91MOL   C45047430   2.730   6.853   6.161 -0.9691 -0.6626  0.1909
   91MOL   C45147431   2.765   6.986   6.115  0.4552 -1.0037  0.6243
   91MOL   C45247432   2.785   7.088   6.209  0.2548 -0.2582 -0.0617
   91MOL   C45347433   2.713   6.947   6.537 -0.4604  0.2879  0.0751
   91MOL   C45447434   2.748   7.079   6.574  0.0129 -0.2164  0.3305
   91MOL   C45547435   2.756   7.119   6.711 -0.1796 -0.1943 -0.2107
   91MOL   C45647436   2.722   7.023   6.807 -0.3841  1.0064  0.0126
   91MOL   C45747437   2.682   6.892   6.772  0.2558 -0.8800 -0.1291
   91MOL   C45847438   2.681   6.854   6.640 -0.2511 -0.0196  0.2827
   91MOL   H45947439   2.989   7.223   6.509  0.3171 -0.5464  1.0827
   91MOL   H46047440   2.939   7.337   6.626  0.4229 -2.3468  0.5932
   91MOL   H46147441   2.796   7.336   6.350 -2.0422 -0.3142 -0.4352
   91MOL   H46247442   2.685   6.742   6.344  1.3478 -1.3402 -1.6481
   91MOL   H46347443   2.729   6.772   6.089 -0.1562 -1.1617  0.7342
   91MOL   H46447444   2.791   7.004   6.012 -0.2313 -1.5178  0.3588
   91MOL   H46547445   2.810   7.185   6.169  0.4012  0.1294  0.9511
   91MOL   H46647446   2.784   7.218   6.743  0.9813 -0.2104 -1.1436
   91MOL   H46747447   2.743   7.052   6.909 -1.3029  2.3348 -0.1529
   91MOL   H46847448   2.674   6.829   6.860 -0.5816  0.1974  0.5813
   91MOL   H46947449   2.639   6.760   6.607  0.4924 -0.2296 -0.0796
   91MOL   C47047450   2.689   7.386   6.525 -0.6654  0.1495 -1.0574
   91MOL   C47147451   2.574   7.439   6.433  0.0700 -0.4179 -0.4119
   91MOL   N47247452   2.520   7.335   6.345 -0.1897 -0.4040 -0.1179
   91MOL   C47347453   2.531   7.345   6.209  0.5870  0.6251 -0.3233
   91MOL   C47447454   2.466   7.234   6.148 -0.2051 -0.3066 -0.3809
   91MOL   C47547455   2.457   7.232   6.008 -0.0202  0.3129 -0.3245
   91MOL   C47647456   2.520   7.325   5.927  0.0486 -0.2658  0.5520
   91MOL   C47747457   2.588   7.428   5.994 -0.5659 -0.2124  0.6688
   91MOL   C47847458   2.594   7.433   6.129  0.1953 -0.4370 -0.0858
   91MOL   C47947459   2.408   7.154   6.251 -0.2083  0.3808 -0.8944
   91MOL   C48047460   2.440   7.221   6.371 -0.2714  0.3301 -0.8608
   91MOL   C48147461   2.396   7.174   6.498 -0.9144  0.2444  0.2261
   91MOL   C48247462   2.324   7.055   6.503 -0.6089 -1.1484 -0.0061
   91MOL   C48347463   2.293   6.985   6.386 -0.0925  0.1916 -0.6963
   91MOL   C48447464   2.338   7.032   6.260  0.1389  0.2051 -0.3995
   91MOL   H48547465   2.648   7.328   6.608  2.7596 -3.6696 -1.8769
   91MOL   H48647466   2.730   7.470   6.580 -1.7970 -0.0991  0.1803
   91MOL   H48747467   2.616   7.512   6.364  2.1000 -1.1744 -0.0096
   91MOL   H48847468   2.404   7.149   5.963 -0.9426  0.9018 -0.3263
   91MOL   H48947469   2.499   7.322   5.821  0.7501  0.0754  0.4009
   91MOL   H49047470   2.632   7.515   5.947  1.8634  0.7393  4.5218
   91MOL   H49147471   2.644   7.523   6.161 -0.2577  0.5365 -2.0701
   91MOL   H49247472   2.427   7.227   6.586  1.2198 -0.2203 -0.1996
   91MOL   H49347473   2.304   7.019   6.603  1.3630 -0.6771  0.5949
   91MOL   H49447474   2.240   6.891   6.390  0.2878  0.0200  0.2909
   91MOL   H49547475   2.308   6.968   6.179  0.8788 -1.3072  0.5091
   91MOL   C49647476   2.466   7.516   6.521  0.2768 -0.2463  0.0536
   91MOL   C49747477   2.377   7.601   6.433  0.0041  0.1730  0.1295
   91MOL   N49847478   2.410   7.744   6.432  0.0791  0.0785  0.0192
   91MOL   C49947479   2.396   7.828   6.543  0.0115 -0.1253  0.1347
   91MOL   C50047480   2.437   7.961   6.511 -0.0662  0.4683 -0.6155
   91MOL   C50147481   2.435   8.059   6.610  0.8065 -0.5491 -0.3086
   91MOL   C50247482   2.383   8.029   6.736  0.3199  0.0198  0.1170
   91MOL   C50347483   2.326   7.899   6.763  0.4266  0.2149 -0.9730
   91MOL   C50447484   2.342   7.797   6.665 -0.0103  1.4328 -0.7033
   91MOL   C50547485   2.483   7.953   6.375  0.2597 -0.2995 -0.5244
   91MOL   C50647486   2.465   7.815   6.333 -0.7408 -0.4772  0.5734
   91MOL   C50747487   2.507   7.781   6.204 -0.8527  0.4413 -0.0285
   91MOL   C50847488   2.573   7.867   6.117  0.2167  0.1395 -0.3162
   91MOL   C50947489   2.597   8.001   6.157 -0.5614 -0.1669 -0.2296
   91MOL   C51047490   2.538   8.047   6.280 -0.6597  0.1742 -0.0924
   91MOL   H51147491   2.405   7.439   6.567  0.3179 -0.6492 -0.5598
   91MOL   H51247492   2.515   7.577   6.597 -0.3192  1.9478 -1.2573
   91MOL   H51347493   2.277   7.596   6.476 -1.8996  1.0284 -3.9483
   91MOL   H51447494   2.465   8.158   6.579 -0.5336 -0.0024  0.1083
   91MOL   H51547495   2.377   8.103   6.815 -0.0285 -0.9374  1.0040
   91MOL   H51647496   2.291   7.882   6.863  1.7621  0.3032 -0.4748
   91MOL   H51747497   2.307   7.697   6.685  0.9498  1.1899 -0.2124
   91MOL   H51847498   2.476   7.683   6.169 -0.6715 -0.0313  1.1126
   91MOL   H51947499   2.605   7.832   6.020  2.0556 -0.5988  0.5323
   91MOL   H52047500   2.659   8.066   6.098 -1.9087  2.2082  0.9283
   91MOL   H52147501   2.555   8.150   6.309 -2.0821  0.4594 -0.2142
   91MOL   H52247502   2.366   7.558   6.333  1.1832 -0.6926  0.3674
   92MOL     C147503   4.109   4.511   4.534 -0.1710  0.0527  0.0631
   92MOL     C247504   4.126   4.361   4.542  0.1868  0.3999  0.0072
   92MOL     N347505   4.031   4.293   4.449 -0.6558 -0.1139  0.1230
   92MOL     C447506   3.923   4.210   4.482  0.0355  0.2566 -0.5521
   92MOL     C547507   3.847   4.171   4.361 -0.2556 -0.3686 -0.3154
   92MOL     C647508   3.730   4.089   4.377 -0.7454  0.6867  0.1767
   92MOL     C747509   3.683   4.056   4.506 -0.1769 -0.8257  0.1535
   92MOL     C847510   3.756   4.086   4.623  0.1758  0.1747  0.1740
   92MOL     C947511   3.877   4.159   4.607 -0.3760 -0.4205 -0.5659
   92MOL    C1047512   3.921   4.232   4.251 -0.5187 -0.1218 -0.3786
   92MOL    C1147513   4.037   4.302   4.309  0.0228 -0.6674 -0.1317
   92MOL    C1247514   4.137   4.357   4.226 -0.5311 -0.1096  0.1787
   92MOL    C1347515   4.114   4.371   4.090 -1.2429 -0.4051  0.0991
   92MOL    C1447516   3.998   4.311   4.028  0.0303 -0.1523 -0.3096
   92MOL    C1547517   3.900   4.241   4.108 -0.1318 -0.0058  0.4138
   92MOL    H1647518   4.010   4.536   4.495 -1.7242 -4.0671  1.0616
   92MOL    H1747519   4.189   4.559   4.477 -0.1257  0.0744  0.1449
   92MOL    H1847520   4.090   4.333   4.641 -0.5214  0.8843 -0.1076
   92MOL    H1947521   3.666   4.056   4.297  0.1994  1.0867 -0.7504
   92MOL    H2047522   3.592   3.998   4.508 -0.8152  0.0109 -2.6024
   92MOL    H2147523   3.728   4.046   4.720  0.6693 -0.1701  0.1775
   92MOL    H2247524   3.941   4.177   4.692  0.4297 -1.4124 -0.9594
   92MOL    H2347525   4.229   4.395   4.269  0.4422 -1.3057 -0.7946
   92MOL    H2447526   4.181   4.428   4.028 -1.5139 -1.4281 -1.1588
   92MOL    H2547527   3.990   4.323   3.921  0.9462 -1.0873 -0.4829
   92MOL    H2647528   3.809   4.203   4.064  1.4574 -0.2846 -2.7490
   92MOL    H2747529   4.113   4.553   4.634  0.7035  1.0793 -0.3896
   92MOL    C2847530   4.271   4.309   4.541  0.0657  0.1337 -0.2284
   92MOL    C2947531   4.354   4.331   4.667  0.5201  0.0156 -0.5040
   92MOL    N3047532   4.272   4.289   4.784  0.3920 -0.2284  0.2328
   92MOL    C3147533   4.233   4.376   4.893 -0.5663 -0.8039 -0.4940
   92MOL    C3247534   4.151   4.296   4.984  0.5185 -0.8029  0.5198
   92MOL    C3347535   4.096   4.361   5.099 -0.7129 -0.5248 -0.3583
   92MOL    C3447536   4.138   4.492   5.128  0.0337  0.4432  0.2885
   92MOL    C3547537   4.224   4.566   5.040 -0.2795  1.1247 -0.4430
   92MOL    C3647538   4.269   4.508   4.922  0.0974 -0.0260  0.1874
   92MOL    C3747539   4.140   4.163   4.930 -0.6231  0.2422  1.0827
   92MOL    C3847540   4.224   4.159   4.813 -0.6804 -0.2766  0.3471
   92MOL    C3947541   4.234   4.038   4.745  0.4603 -0.1463 -0.0208
   92MOL    C4047542   4.153   3.923   4.779  0.2596  0.2689  0.8171
   92MOL    C4147543   4.068   3.930   4.885  0.4046  0.2520 -0.3800
   92MOL    C4247544   4.060   4.048   4.959 -0.2651  0.6159  0.9345
   92MOL    H4347545   4.275   4.204   4.511 -0.6634  0.0443 -0.0350
   92MOL    H4447546   4.329   4.359   4.463 -0.0367 -1.0902 -1.1032
   92MOL    H4547547   4.368   4.438   4.679 -1.4099  0.3396 -1.1092
   92MOL    H4647548   4.037   4.296   5.162 -0.2313 -1.4975 -0.8835
   92MOL    H4747549   4.108   4.546   5.217  3.6609 -0.0589  1.9284
   92MOL    H4847550   4.269   4.664   5.046 -1.9177  1.7524  2.1313
   92MOL    H4947551   4.340   4.559   4.859 -0.8676  0.4898 -0.4731
   92MOL    H5047552   4.290   4.034   4.652  0.2203  1.0683 -0.2193
   92MOL    H5147553   4.162   3.830   4.723 -0.1595  0.2390  0.7983
   92MOL    H5247554   4.003   3.851   4.921  0.2099  0.1186 -1.0297
   92MOL    H5347555   3.999   4.045   5.048 -1.1132  0.0240  0.3331
   92MOL    C5447556   4.501   4.275   4.674  0.0484 -0.2212 -0.4716
   92MOL    C5547557   4.591   4.274   4.550  0.4531 -0.1600 -0.0283
   92MOL    N5647558   4.593   4.404   4.479 -0.0825 -0.5453 -0.6285
   92MOL    C5747559   4.558   4.433   4.345 -0.2003 -0.1450  0.3985
   92MOL    C5847560   4.560   4.574   4.325 -0.8882  0.5659 -0.0565
   92MOL    C5947561   4.529   4.623   4.195 -0.4893  0.0320 -0.6352
   92MOL    C6047562   4.481   4.536   4.098  0.5209 -0.7738 -0.0225
   92MOL    C6147563   4.479   4.396   4.120  0.9259 -0.1398 -0.4755
   92MOL    C6247564   4.510   4.348   4.243 -0.1634  0.0261 -0.7515
   92MOL    C6347565   4.598   4.634   4.447 -0.3598 -0.0476  0.5876
   92MOL    C6447566   4.631   4.527   4.535 -0.0640 -0.0453  0.0599
   92MOL    C6547567   4.671   4.549   4.666  0.4610  0.2612 -0.1812
   92MOL    C6647568   4.685   4.676   4.715  0.3262  0.5304 -0.2267
   92MOL    C6747569   4.671   4.787   4.628 -0.1389 -0.5222 -0.4392
   92MOL    C6847570   4.616   4.760   4.495 -0.0083 -0.2504  0.4714
   92MOL    H6947571   4.550   4.326   4.757  1.9966 -2.7690  0.0086
   92MOL    H7047572   4.489   4.172   4.706  1.9135 -0.5928 -0.9297
   92MOL    H7147573   4.541   4.209   4.478 -1.1269  0.0844  0.8168
   92MOL    H7247574   4.535   4.730   4.185  2.4294  0.0019  0.2553
   92MOL    H7347575   4.445   4.572   4.003  0.3553  0.2743  0.4307
   92MOL    H7447576   4.446   4.332   4.039  0.1803 -1.3485  0.7750
   92MOL    H7547577   4.481   4.245   4.258 -4.1957  0.4770 -4.2910
   92MOL    H7647578   4.692   4.474   4.742  0.3909  0.2265 -0.1965
   92MOL    H7747579   4.709   4.689   4.820 -3.5480  1.3021  0.6384
   92MOL    H7847580   4.679   4.883   4.677  0.5755 -0.4592 -0.6828
   92MOL    H7947581   4.592   4.837   4.422  1.4155 -0.9482 -0.7558
   92MOL    C8047582   4.736   4.222   4.584  1.1445 -0.8646 -0.0942
   92MOL    C8147583   4.756   4.071   4.599 -0.3449  0.7650 -0.3279
   92MOL    N8247584   4.716   4.004   4.479  0.5390  0.4364 -0.3163
   92MOL    C8347585   4.604   3.924   4.470 -0.3662 -0.7203 -0.0811
   92MOL    C8447586   4.591   3.871   4.339 -0.5834  0.0875  0.2310
   92MOL    C8547587   4.486   3.778   4.308 -0.3020 -0.4495 -0.0958
   92MOL    C8647588   4.396   3.742   4.403  0.3488  0.0661  0.2449
   92MOL    C8747589   4.412   3.789   4.536  0.0492  0.1307  0.1817
   92MOL    C8847590   4.506   3.888   4.564 -0.0573 -0.3802 -0.4413
   92MOL    C8947591   4.707   3.913   4.263 -0.5647 -0.1892 -0.0935
   92MOL    C9047592   4.780   4.002   4.354 -0.1476  0.2726  0.8192
   92MOL    C9147593   4.899   4.068   4.312  0.7080  0.0275  0.3238
   92MOL    C9247594   4.952   4.044   4.185 -0.4250  0.8494  1.0626
   92MOL    C9347595   4.883   3.964   4.098 -0.4128  0.4926 -0.2286
   92MOL    C9447596   4.767   3.887   4.136 -0.0553  1.2459  0.3095
   92MOL    H9547597   4.806   4.262   4.511 -1.5692 -1.1906 -3.0244
   92MOL    H9647598   4.769   4.257   4.682 -1.1709  0.9359  0.0893
   92MOL    H9747599   4.690   4.048   4.682 -0.6989 -2.4426 -1.4173
   92MOL    H9847600   4.482   3.722   4.216 -1.1822  2.3709 -1.8464
   92MOL    H9947601   4.330   3.659   4.385  0.1972  0.1060  0.6283
   92MOL   H10047602   4.346   3.763   4.618 -0.6889 -2.6787 -1.2699
   92MOL   H10147603   4.515   3.923   4.666  0.6260  0.8046 -0.9051
   92MOL   H10247604   4.941   4.150   4.368 -2.6914  1.2977  1.1411
   92MOL   H10347605   5.042   4.095   4.156 -0.5015 -0.0460 -0.7995
   92MOL   H10447606   4.918   3.966   3.996  0.8057 -1.0245  0.1310
   92MOL   H10547607   4.718   3.837   4.054  0.9705 -0.0993  0.5145
   92MOL   C10647608   4.899   4.025   4.643  0.3406  0.1231 -0.4633
   92MOL   C10747609   4.910   3.873   4.672 -0.5419  0.1886  0.6121
   92MOL   N10847610   4.955   3.793   4.558  0.4601  0.0461  0.7113
   92MOL   C10947611   4.885   3.691   4.485 -0.2960 -0.9958 -0.5204
   92MOL   C11047612   4.970   3.653   4.374 -0.2100  0.3908 -0.1722
   92MOL   C11147613   4.916   3.554   4.288 -0.7484  0.3752  0.0156
   92MOL   C11247614   4.796   3.486   4.318 -0.6210  0.7037  0.2487
   92MOL   C11347615   4.717   3.526   4.425 -0.2180  1.5029 -1.0082
   92MOL   C11447616   4.757   3.633   4.505 -0.7798 -0.0991 -0.3072
   92MOL   C11547617   5.092   3.727   4.382  0.1267 -0.7746 -0.3537
   92MOL   C11647618   5.078   3.810   4.497 -0.1614 -0.1565 -0.6258
   92MOL   C11747619   5.186   3.892   4.529  0.0354  0.3655  0.1178
   92MOL   C11847620   5.310   3.882   4.461  0.2673  0.4517  0.6336
   92MOL   C11947621   5.323   3.793   4.356 -0.1644  0.7020  0.7614
   92MOL   C12047622   5.214   3.720   4.309  0.1664  1.0395  0.0122
   92MOL   H12147623   4.977   4.073   4.586  3.2645 -4.6350 -0.7845
   92MOL   H12247624   4.928   4.066   4.740  0.7580 -2.1590  0.4171
   92MOL   H12347625   4.808   3.845   4.700 -0.8723  1.4263  0.6460
   92MOL   H12447626   4.980   3.519   4.208 -0.5962  0.9542 -0.1146
   92MOL   H12547627   4.773   3.393   4.268 -0.6534  0.0849  1.3908
   92MOL   H12647628   4.621   3.482   4.449  0.6500 -0.0965 -0.4061
   92MOL   H12747629   4.695   3.663   4.588  0.0169 -0.3220  0.3747
   92MOL   H12847630   5.179   3.971   4.603  0.4427 -0.8621  1.4944
   92MOL   H12947631   5.393   3.946   4.490 -1.2844  3.1790 -0.7064
   92MOL   H13047632   5.414   3.784   4.299  0.9328  1.9857  2.2750
   92MOL   H13147633   5.231   3.660   4.221  1.4735  0.8339  0.3978
   92MOL   C13247634   4.988   3.834   4.804  0.5364 -0.0280  0.1647
   92MOL   C13347635   4.946   3.904   4.939 -0.6396  0.2858  0.1721
   92MOL   N13447636   4.803   3.935   4.938 -0.9481 -0.0933 -0.7311
   92MOL   C13547637   4.746   4.056   4.975 -0.4266 -0.0991  0.4079
   92MOL   C13647638   4.601   4.042   4.984 -0.4599 -0.5186  0.2328
   92MOL   C13747639   4.520   4.154   5.016 -0.2534 -1.1721 -0.1870
   92MOL   C13847640   4.587   4.280   5.037  0.2567 -0.3693 -0.2439
   92MOL   C13947641   4.725   4.290   5.035 -0.7131  0.4069 -0.3966
   92MOL   C14047642   4.804   4.176   5.013  0.2911 -0.8890 -0.0294
   92MOL   C14147643   4.575   3.902   4.960  0.1795 -1.1348  0.1935
   92MOL   C14247644   4.703   3.837   4.937  0.1527 -0.2227  0.0983
   92MOL   C14347645   4.707   3.694   4.920 -0.2655 -0.1587 -0.7570
   92MOL   C14447646   4.587   3.623   4.917 -0.7059  0.1835 -0.0644
   92MOL   C14547647   4.461   3.686   4.927  0.2765 -0.3085  0.0110
   92MOL   C14647648   4.459   3.826   4.948  0.2317  0.2970 -0.4493
   92MOL   H14747649   4.988   3.725   4.811  0.4401 -0.1231 -1.2646
   92MOL   H14847650   5.092   3.859   4.781  0.5445  0.3056  0.5568
   92MOL   H14947651   5.004   3.996   4.937  1.6318 -1.1442 -0.9204
   92MOL   H15047652   4.413   4.144   5.023 -0.2302 -0.7607  0.9097
   92MOL   H15147653   4.533   4.370   5.061  1.5440  0.9647 -2.1053
   92MOL   H15247654   4.769   4.388   5.045  0.3028 -0.1705  0.9090
   92MOL   H15347655   4.911   4.191   5.009  0.2134  0.3749  1.9565
   92MOL   H15447656   4.806   3.651   4.911 -1.0994 -2.6345  1.3159
   92MOL   H15547657   4.589   3.516   4.906  1.9332 -0.0007  1.9267
   92MOL   H15647658   4.372   3.626   4.926 -0.1047  0.2016  2.1771
   92MOL   H15747659   4.366   3.878   4.963  1.5314  2.4877  0.4203
   92MOL   C15847660   4.986   3.831   5.068 -0.5196  0.7625  0.3687
   92MOL   C15947661   5.133   3.786   5.091 -0.4166  0.3662  0.2802
   92MOL   N16047662   5.228   3.880   5.044 -0.5811 -0.4082  0.1722
   92MOL   C16147663   5.316   3.856   4.942 -0.2355  0.5893  0.4637
   92MOL   C16247664   5.410   3.964   4.922 -0.2739  0.7287  0.9746
   92MOL   C16347665   5.517   3.953   4.832  0.4413  0.2448 -0.1564
   92MOL   C16447666   5.528   3.839   4.749  0.1937 -0.7850  0.5799
   92MOL   C16547667   5.428   3.744   4.760  0.2425 -0.3459  0.3432
   92MOL   C16647668   5.324   3.752   4.852 -0.1435  0.3379  0.4023
   92MOL   C16747669   5.360   4.067   5.007 -0.4852  0.5335 -0.3184
   92MOL   C16847670   5.258   4.005   5.089  0.1014  0.2077 -0.1914
   92MOL   C16947671   5.197   4.073   5.198 -0.5943 -0.0058  0.6984
   92MOL   C17047672   5.239   4.204   5.232 -0.2572  0.8780 -0.0744
   92MOL   C17147673   5.344   4.263   5.165 -0.8586  0.3281 -0.3338
   92MOL   C17247674   5.397   4.200   5.049 -0.0002  0.1304 -0.2507
   92MOL   H17347675   4.954   3.892   5.153  0.3321  2.1041 -0.2630
   92MOL   H17447676   4.922   3.746   5.089 -1.7796  1.8902  1.2399
   92MOL   H17547677   5.131   3.703   5.020 -0.8027  2.0282 -1.7098
   92MOL   H17647678   5.586   4.035   4.813  1.0908 -0.2558  0.0489
   92MOL   H17747679   5.610   3.831   4.680 -0.2603  1.0130 -0.2152
   92MOL   H17847680   5.428   3.657   4.695  2.0459 -1.2380  1.4997
   92MOL   H17947681   5.249   3.674   4.852  0.0581  0.1443  0.1946
   92MOL   H18047682   5.119   4.023   5.254 -0.4443 -1.2919 -0.2101
   92MOL   H18147683   5.206   4.254   5.321 -0.4960  2.2270 -0.9067
   92MOL   H18247684   5.387   4.356   5.200 -0.4101  0.5868 -1.5375
   92MOL   H18347685   5.487   4.239   5.004  1.1622 -0.1543  1.7560
   92MOL   C18447686   5.160   3.725   5.232  0.3044 -0.3580 -0.0094
   92MOL   C18547687   5.297   3.643   5.242  1.1280  1.0985 -0.2187
   92MOL   N18647688   5.409   3.719   5.303 -0.2417 -0.0245  0.0941
   92MOL   C18747689   5.531   3.737   5.238  0.0435  0.3098 -0.2260
   92MOL   C18847690   5.629   3.792   5.324 -0.4856  0.1711 -0.4454
   92MOL   C18947691   5.764   3.808   5.285  0.0748  0.6811 -0.2734
   92MOL   C19047692   5.804   3.762   5.157  0.7684 -0.5024  0.0467
   92MOL   C19147693   5.701   3.712   5.070  0.2767 -0.5469  0.1518
   92MOL   C19247694   5.568   3.698   5.111 -1.0797  0.2636 -0.0264
   92MOL   C19347695   5.554   3.835   5.437  0.1165  0.1351  0.4452
   92MOL   C19447696   5.420   3.789   5.427 -0.4638  0.1168  0.1182
   92MOL   C19547697   5.325   3.813   5.523 -0.1936  0.7311  0.0005
   92MOL   C19647698   5.361   3.878   5.638 -0.7072 -0.3948 -0.7526
   92MOL   C19747699   5.493   3.923   5.664  0.5453  0.0281  0.0111
   92MOL   C19847700   5.583   3.898   5.560 -0.2702 -0.5632  0.5030
   92MOL   H19947701   5.168   3.805   5.305  0.1356  0.6698 -1.1119
   92MOL   H20047702   5.075   3.659   5.252  0.2139  0.2452  1.7264
   92MOL   H20147703   5.322   3.628   5.137  0.8462 -2.1052  0.1308
   92MOL   H20247704   5.835   3.866   5.342  0.5604 -0.8057  0.6674
   92MOL   H20347705   5.904   3.766   5.118  0.8578 -0.7215  0.2562
   92MOL   H20447706   5.727   3.680   4.971  0.4585 -0.7205  0.2558
   92MOL   H20547707   5.501   3.642   5.047  1.9347  0.0300 -3.0924
   92MOL   H20647708   5.225   3.772   5.511 -0.1163  1.0496 -1.8104
   92MOL   H20747709   5.285   3.905   5.711  0.8742  1.3336  0.2906
   92MOL   H20847710   5.523   3.963   5.760  1.3516 -0.2614 -0.1155
   92MOL   H20947711   5.688   3.915   5.580  0.4005 -2.9530 -0.7244
   92MOL   C21047712   5.290   3.512   5.318  0.2774 -0.2384  0.3313
   92MOL   C21147713   5.213   3.398   5.250  0.3117  0.0329 -0.4021
   92MOL   N21247714   5.242   3.389   5.108 -0.1928  0.0602  0.1561
   92MOL   C21347715   5.150   3.401   4.998 -0.3655  0.6987  0.0983
   92MOL   C21447716   5.220   3.398   4.872  0.1175  0.7003 -0.3481
   92MOL   C21547717   5.144   3.414   4.749 -0.2700 -0.5377 -0.4796
   92MOL   C21647718   5.003   3.425   4.754  0.0754  0.6293  0.2666
   92MOL   C21747719   4.937   3.426   4.879 -0.1728  0.0535 -0.2159
   92MOL   C21847720   5.005   3.412   4.999 -0.9340 -0.6575  0.3927
   92MOL   C21947721   5.363   3.377   4.906 -0.3570  0.2729 -0.0062
   92MOL   C22047722   5.371   3.377   5.049 -0.2196 -0.4416  0.2442
   92MOL   C22147723   5.502   3.376   5.108  0.0641  0.2309  0.1875
   92MOL   C22247724   5.614   3.381   5.031  0.3878  0.8386  0.5651
   92MOL   C22347725   5.605   3.367   4.891  0.0943 -0.0579  0.1461
   92MOL   C22447726   5.478   3.370   4.820  0.1937  0.1267  0.8363
   92MOL   H22547727   5.392   3.478   5.336 -0.6013 -1.6490  2.9528
   92MOL   H22647728   5.244   3.529   5.416  0.2931  0.2166  0.2615
   92MOL   H22747729   5.111   3.431   5.264  0.1101 -1.5439  2.4110
   92MOL   H22847730   5.188   3.413   4.650  1.9812  0.7547  0.4535
   92MOL   H22947731   4.947   3.442   4.664  0.4793 -0.8649 -0.2885
   92MOL   H23047732   4.830   3.434   4.888 -0.1480 -1.8826  2.3992
   92MOL   H23147733   4.957   3.411   5.095  0.0952  0.0450  0.9177
   92MOL   H23247734   5.519   3.362   5.214 -0.1659 -1.6754 -0.0101
   92MOL   H23347735   5.706   3.366   5.085 -0.6000 -0.1622  2.0162
   92MOL   H23447736   5.694   3.345   4.833 -1.3753  2.1751 -3.0872
   92MOL   H23547737   5.461   3.375   4.714 -0.2243  0.2695  0.9089
   92MOL   C23647738   5.218   3.258   5.315 -0.3872 -0.9124 -0.8348
   92MOL   C23747739   5.142   3.233   5.445 -0.5856 -0.2310  0.2337
   92MOL   N23847740   5.015   3.300   5.442  0.5468 -0.2122 -0.2699
   92MOL   C23947741   4.980   3.411   5.517 -0.5119 -0.2982 -0.0172
   92MOL   C24047742   4.856   3.463   5.462 -0.4588 -0.1294  0.2640
   92MOL   C24147743   4.811   3.581   5.515  0.0117  0.1771 -0.5137
   92MOL   C24247744   4.880   3.647   5.614  0.1201  0.2089 -0.1395
   92MOL   C24347745   4.992   3.589   5.678  0.2982  0.0387 -0.0019
   92MOL   C24447746   5.044   3.468   5.631  0.1644 -0.7289  0.3905
   92MOL   C24547747   4.822   3.382   5.353  0.0524 -0.0846  0.1616
   92MOL   C24647748   4.921   3.287   5.337 -0.2302  0.1562  0.1106
   92MOL   C24747749   4.913   3.190   5.238 -0.4032  0.5563 -0.2448
   92MOL   C24847750   4.801   3.185   5.160  0.4412 -0.3588  0.3397
   92MOL   C24947751   4.700   3.286   5.168  0.5374 -0.0925  0.2914
   92MOL   C25047752   4.707   3.382   5.269 -0.3463  0.1595  0.0967
   92MOL   H25147753   5.192   3.181   5.243 -0.9660 -2.5950  1.1285
   92MOL   H25247754   5.321   3.247   5.348 -0.2599 -0.0906 -0.9416
   92MOL   H25347755   5.202   3.288   5.518 -1.2411  4.0327 -2.2401
   92MOL   H25447756   4.720   3.628   5.482 -2.4172 -3.0121  1.3090
   92MOL   H25547757   4.844   3.742   5.650 -0.8082 -0.7912  1.6935
   92MOL   H25647758   5.038   3.639   5.762  0.7764 -3.5829  2.0372
   92MOL   H25747759   5.137   3.433   5.674 -0.3025 -1.8710  0.4759
   92MOL   H25847760   4.990   3.117   5.220 -0.8006 -0.3605  1.6775
   92MOL   H25947761   4.791   3.115   5.078 -1.3963  1.5587 -1.1208
   92MOL   H26047762   4.617   3.297   5.100  0.8609  1.4402  0.1295
   92MOL   H26147763   4.624   3.449   5.283  0.6520  1.0600  1.8583
   92MOL   C26247764   5.136   3.090   5.493 -0.2619 -0.1020 -0.2236
   92MOL   C26347765   5.008   3.036   5.572 -0.5459 -0.2938  0.9801
   92MOL   N26447766   5.013   2.891   5.561  0.9686  0.5894  0.3315
   92MOL   C26547767   4.934   2.820   5.476 -0.4986  0.7412  0.3282
   92MOL   C26647768   4.959   2.682   5.492  0.0553 -0.0108  0.2549
   92MOL   C26747769   4.887   2.587   5.409  0.3199 -0.5895 -0.0539
   92MOL   C26847770   4.787   2.629   5.320  0.5103  0.4051  0.0184
   92MOL   C26947771   4.766   2.771   5.308 -0.1327 -0.2382 -0.5834
   92MOL   C27047772   4.842   2.866   5.379 -0.3331 -0.0775  0.8720
   92MOL   C27147773   5.054   2.663   5.594  0.5753 -0.3208 -0.0493
   92MOL   C27247774   5.096   2.794   5.637 -0.7520 -0.1059  0.1689
   92MOL   C27347775   5.198   2.806   5.734  1.1639  0.6941  0.7424
   92MOL   C27447776   5.254   2.693   5.794 -0.3485 -1.4275  0.3191
   92MOL   C27547777   5.208   2.566   5.757  0.4208 -0.0476  0.0034
   92MOL   C27647778   5.113   2.550   5.657  0.0188  0.3371 -0.5007
   92MOL   H27747779   5.153   3.019   5.412 -1.7377  0.7388 -1.2963
   92MOL   H27847780   5.222   3.079   5.559 -0.0600 -0.1613 -0.4957
   92MOL   H27947781   4.922   3.071   5.514  0.7100 -0.6903 -1.1935
   92MOL   H28047782   4.911   2.482   5.401 -0.0992 -0.5149 -2.5729
   92MOL   H28147783   4.746   2.562   5.247  1.0565 -0.2386  0.2914
   92MOL   H28247784   4.693   2.801   5.234  1.1392 -0.9550 -2.1895
   92MOL   H28347785   4.821   2.967   5.349 -1.1685 -0.3429  0.5563
   92MOL   H28447786   5.253   2.898   5.748  2.3269  0.0233  0.7168
   92MOL   H28547787   5.339   2.701   5.860 -0.4701  0.6691  0.2649
   92MOL   H28647788   5.256   2.476   5.793  2.2111  1.1152  0.5593
   92MOL   H28747789   5.083   2.455   5.615  0.4433  0.0116 -0.0817
   92MOL   C28847790   5.000   3.088   5.719  0.0653 -0.3544  0.2071
   92MOL   C28947791   4.869   3.049   5.792 -0.1025  0.8189 -0.1782
   92MOL   N29047792   4.887   3.096   5.932  0.0750  1.0344  0.5113
   92MOL   C29147793   4.908   3.019   6.044  0.4362 -0.9387 -0.6255
   92MOL   C29247794   4.920   3.101   6.161  0.6348  0.2181 -0.7455
   92MOL   C29347795   4.941   3.036   6.287 -0.7435 -0.6361  0.4448
   92MOL   C29447796   4.953   2.896   6.298 -0.3942 -0.0764 -0.5550
   92MOL   C29547797   4.952   2.824   6.184 -0.6268 -0.4489 -0.5373
   92MOL   C29647798   4.930   2.879   6.056  0.4827 -0.7703  0.1045
   92MOL   C29747799   4.877   3.234   6.124  0.4324  0.0039 -0.7947
   92MOL   C29847800   4.872   3.227   5.977 -0.2574  0.6298  0.1402
   92MOL   C29947801   4.844   3.344   5.905 -0.6742 -1.0945 -0.5129
   92MOL   C30047802   4.809   3.462   5.973 -0.5831 -0.4552 -0.3127
   92MOL   C30147803   4.806   3.465   6.115  0.4759 -0.4957  0.5500
   92MOL   C30247804   4.846   3.357   6.189  0.1289  0.0843  0.4367
   92MOL   H30347805   5.092   3.070   5.775 -1.1690  0.5352  2.5927
   92MOL   H30447806   5.013   3.196   5.716  0.8344 -0.4575 -0.5169
   92MOL   H30547807   4.861   2.940   5.794  2.6117  0.5476 -2.4468
   92MOL   H30647808   4.942   3.092   6.379 -0.9745 -0.1689  0.1615
   92MOL   H30747809   4.969   2.851   6.395 -0.6694 -1.9568 -1.3566
   92MOL   H30847810   4.972   2.719   6.197  0.9473 -0.0365  0.5457
   92MOL   H30947811   4.928   2.824   5.963  0.4586  2.7268 -2.0500
   92MOL   H31047812   4.847   3.344   5.797  0.2357 -3.2489 -0.5199
   92MOL   H31147813   4.780   3.549   5.915  2.0814  1.2508  0.8356
   92MOL   H31247814   4.776   3.557   6.162 -1.1412 -0.0834 -1.1926
   92MOL   H31347815   4.846   3.354   6.297 -2.7840 -1.2171  0.4449
   92MOL   C31447816   4.742   3.100   5.727 -0.3717  0.0224 -0.1856
   92MOL   C31547817   4.641   2.989   5.698  0.6108 -0.4375  0.1303
   92MOL   N31647818   4.586   2.929   5.819 -0.2635  0.3840 -0.0873
   92MOL   C31747819   4.613   2.800   5.869  0.3588  0.3825  0.0433
   92MOL   C31847820   4.539   2.785   5.990  0.6125  0.2410  0.1326
   92MOL   C31947821   4.545   2.665   6.059 -0.8993  0.2678  0.2661
   92MOL   C32047822   4.621   2.557   5.999 -0.2815 -0.2430  0.4787
   92MOL   C32147823   4.702   2.576   5.886  0.0462  0.4808 -0.4486
   92MOL   C32247824   4.698   2.696   5.819  1.0716 -0.7587  0.1565
   92MOL   C32347825   4.468   2.906   6.013  0.6892 -0.4857  0.5745
   92MOL   C32447826   4.496   2.990   5.909  0.9702  0.0681 -0.5101
   92MOL   C32547827   4.442   3.120   5.910 -0.3407  0.0085 -0.6030
   92MOL   C32647828   4.361   3.166   6.013  0.4082 -0.3789 -0.0074
   92MOL   C32747829   4.327   3.073   6.120  0.1034 -0.2765  0.3232
   92MOL   C32847830   4.378   2.942   6.114 -0.6016  0.4531 -0.1040
   92MOL   H32947831   4.679   3.165   5.788  0.0238 -1.3192  1.7076
   92MOL   H33047832   4.763   3.156   5.635 -0.8309  0.6160  0.0647
   92MOL   H33147833   4.685   2.908   5.639  0.7838  0.2128 -0.6497
   92MOL   H33247834   4.493   2.641   6.151 -1.0285  0.7091  0.3105
   92MOL   H33347835   4.622   2.458   6.041  0.9991 -0.7647 -0.7415
   92MOL   H33447836   4.766   2.498   5.849  2.5643  0.5512  3.5110
   92MOL   H33547837   4.761   2.708   5.732 -0.0055 -2.8654 -0.9524
   92MOL   H33647838   4.466   3.194   5.835  1.8380  0.7741  0.7951
   92MOL   H33747839   4.320   3.266   6.013 -0.2144 -0.6326 -0.5956
   92MOL   H33847840   4.273   3.094   6.211  0.7179  0.3298  0.5497
   92MOL   H33947841   4.362   2.874   6.196  1.8880 -1.5215 -1.1800
   92MOL   C34047842   4.540   3.046   5.591 -0.2933  0.0623  0.0181
   92MOL   C34147843   4.411   2.964   5.570 -0.4697  0.6045 -0.1097
   92MOL   N34247844   4.312   3.035   5.493 -0.2050  0.0058 -0.4150
   92MOL   C34347845   4.202   3.095   5.555  0.0241 -0.5426 -0.3019
   92MOL   C34447846   4.145   3.185   5.461 -0.3156  0.3986 -0.5300
   92MOL   C34547847   4.036   3.267   5.503  0.2070  0.3141 -0.4378
   92MOL   C34647848   3.982   3.248   5.629 -0.0213 -0.0354  0.6562
   92MOL   C34747849   4.043   3.161   5.721 -0.1404 -0.1679  0.7390
   92MOL   C34847850   4.153   3.086   5.686  0.0512  0.2486  0.0750
   92MOL   C34947851   4.207   3.158   5.336  0.3878  0.6171 -0.1849
   92MOL   C35047852   4.319   3.077   5.362 -0.8675 -0.0389  0.5209
   92MOL   C35147853   4.403   3.043   5.249  0.1360 -0.0613  0.1349
   92MOL   C35247854   4.378   3.079   5.120 -0.1872 -0.3337  0.0867
   92MOL   C35347855   4.272   3.167   5.104  0.5990  0.8064 -0.4161
   92MOL   C35447856   4.198   3.216   5.211 -0.7732  0.2132 -0.7166
   92MOL   H35547857   4.511   3.149   5.613  1.0786  0.2449  1.0925
   92MOL   H35647858   4.599   3.058   5.500  2.0102 -0.3861  1.4057
   92MOL   H35747859   4.359   2.928   5.659  0.2739 -3.3732 -1.1754
   92MOL   H35847860   3.983   3.322   5.426 -1.2618 -1.6967 -0.9088
   92MOL   H35947861   3.885   3.285   5.658  0.4659  1.1850  0.7340
   92MOL   H36047862   3.989   3.144   5.812  1.4323 -1.4521  1.4436
   92MOL   H36147863   4.181   3.008   5.755 -2.6002  1.7756  2.9466
   92MOL   H36247864   4.489   2.981   5.269 -0.3358 -0.3525  1.2897
   92MOL   H36347865   4.435   3.044   5.036  0.8385  1.2088  0.1148
   92MOL   H36447866   4.275   3.214   5.006  1.9428 -0.7713 -1.1558
   92MOL   H36547867   4.131   3.300   5.197 -0.5070  0.2424 -1.8213
   92MOL   C36647868   4.443   2.827   5.513 -0.5329  0.1762 -0.4932
   92MOL   C36747869   4.330   2.737   5.447  0.3518  0.7328  0.1828
   92MOL   N36847870   4.369   2.613   5.377  0.7322 -0.0187 -0.4996
   92MOL   C36947871   4.384   2.596   5.237 -0.1964 -0.2522 -0.4152
   92MOL   C37047872   4.434   2.473   5.206  0.4212 -0.6644 -0.1158
   92MOL   C37147873   4.456   2.439   5.069  0.1392  0.5188  0.4241
   92MOL   C37247874   4.422   2.526   4.970 -0.3536 -0.2019 -0.0859
   92MOL   C37347875   4.366   2.655   5.001  0.0238 -0.6660 -0.4223
   92MOL   C37447876   4.353   2.688   5.137  0.0648 -0.6147  0.2709
   92MOL   C37547877   4.453   2.406   5.329 -0.0830  0.7253 -0.6753
   92MOL   C37647878   4.416   2.495   5.434 -0.4193 -1.3712 -0.7910
   92MOL   C37747879   4.429   2.463   5.575  0.4305  0.1206 -0.0710
   92MOL   C37847880   4.492   2.344   5.611 -1.2521  0.3554  0.4799
   92MOL   C37947881   4.536   2.254   5.513 -0.0260  0.1840  0.4876
   92MOL   C38047882   4.520   2.285   5.376  0.1645 -0.2489  0.0194
   92MOL   H38147883   4.525   2.823   5.441  0.3008  0.3951  0.4287
   92MOL   H38247884   4.483   2.769   5.596 -1.3169  0.8233  0.3536
   92MOL   H38347885   4.303   2.806   5.368  3.2477  0.1004 -1.4289
   92MOL   H38447886   4.509   2.353   5.029  1.7610  1.9166 -0.5134
   92MOL   H38547887   4.437   2.499   4.867  0.5370  0.7793 -0.2188
   92MOL   H38647888   4.336   2.724   4.924  0.2041  0.9181  0.9031
   92MOL   H38747889   4.305   2.783   5.152  0.7643 -0.1593 -0.3345
   92MOL   H38847890   4.409   2.525   5.661  1.9278  1.3724 -0.5825
   92MOL   H38947891   4.502   2.308   5.713 -0.8922  0.4373  0.4745
   92MOL   H39047892   4.578   2.157   5.535 -3.0341 -1.3377 -0.2464
   92MOL   H39147893   4.548   2.219   5.295  2.2657  3.8090 -2.7694
   92MOL   C39247894   4.218   2.715   5.554 -0.6416  0.0259  0.0220
   92MOL   C39347895   4.107   2.627   5.504  0.1904 -0.5411 -0.1126
   92MOL   N39447896   4.024   2.568   5.615 -0.0080 -0.4351 -0.5969
   92MOL   C39547897   4.012   2.427   5.644  0.4560  0.1385 -0.3752
   92MOL   C39647898   3.911   2.413   5.743 -0.2007  0.5050 -0.5133
   92MOL   C39747899   3.896   2.280   5.798 -0.0430 -0.1294  0.2200
   92MOL   C39847900   3.970   2.172   5.748 -0.0615  0.2207 -0.6118
   92MOL   C39947901   4.052   2.192   5.639  0.2125 -0.4620  0.8688
   92MOL   C40047902   4.083   2.319   5.589  0.1029 -0.3521 -0.1300
   92MOL   C40147903   3.861   2.543   5.768  0.1787 -0.1573  0.0760
   92MOL   C40247904   3.937   2.637   5.695  1.1369  0.1571  0.3853
   92MOL   C40347905   3.906   2.777   5.707  0.1829  0.7087 -0.4345
   92MOL   C40447906   3.814   2.820   5.807  0.1000  0.4609 -0.2863
   92MOL   C40547907   3.741   2.728   5.878  0.7319 -0.1612 -0.3320
   92MOL   C40647908   3.766   2.590   5.858  0.4163 -0.3826  0.2909
   92MOL   H40747909   4.263   2.661   5.637 -0.9329 -1.0533 -0.5095
   92MOL   H40847910   4.184   2.805   5.607  1.5190  0.7081  0.3171
   92MOL   H40947911   4.151   2.539   5.458  0.0631 -0.5564 -0.2045
   92MOL   H41047912   3.826   2.264   5.879  0.8928 -0.1070  1.0383
   92MOL   H41147913   3.970   2.074   5.794 -0.5305  0.3028 -0.4375
   92MOL   H41247914   4.103   2.113   5.585 -0.0093 -0.2568  0.3541
   92MOL   H41347915   4.168   2.319   5.522  0.8288  1.1498  0.7405
   92MOL   H41447916   3.966   2.850   5.654 -0.2324  1.0761 -0.4002
   92MOL   H41547917   3.805   2.927   5.822 -0.0059  0.0551  2.8213
   92MOL   H41647918   3.670   2.772   5.947  0.0099  1.2120 -1.9035
   92MOL   H41747919   3.715   2.518   5.921 -2.1309  0.9522 -0.1583
   92MOL   C41847920   4.018   2.696   5.402  0.2490  0.7475 -0.6064
   92MOL   C41947921   3.912   2.600   5.338  0.5686 -0.2777 -0.3767
   92MOL   N42047922   3.814   2.682   5.265  0.2340  0.1391  0.1413
   92MOL   C42147923   3.683   2.707   5.303 -0.5705  0.1258  0.8695
   92MOL   C42247924   3.624   2.787   5.207  0.8106  0.5970 -0.1246
   92MOL   C42347925   3.490   2.822   5.220 -0.2039 -0.0656 -0.3322
   92MOL   C42447926   3.416   2.769   5.324  0.0473  0.2170  0.2903
   92MOL   C42547927   3.478   2.689   5.423 -0.2232 -0.5471 -0.7091
   92MOL   C42647928   3.618   2.663   5.420  0.0865 -0.1742  0.7346
   92MOL   C42747929   3.717   2.811   5.109  0.1329  1.0284  0.0633
   92MOL   C42847930   3.843   2.761   5.149 -0.3219  0.1796  0.1155
   92MOL   C42947931   3.959   2.777   5.067 -0.1279  0.5137  0.0295
   92MOL   C43047932   3.947   2.831   4.942  0.3758  0.1863  0.4015
   92MOL   C43147933   3.824   2.880   4.903 -0.1886 -0.0337 -0.4308
   92MOL   C43247934   3.712   2.876   4.987  0.0807  0.1452  0.2338
   92MOL   H43347935   3.968   2.780   5.449 -0.4591 -0.3646  0.6641
   92MOL   H43447936   4.084   2.745   5.330 -1.8407  2.0139 -1.7204
   92MOL   H43547937   3.859   2.541   5.412  0.9392  0.0909  0.1800
   92MOL   H43647938   3.433   2.889   5.158 -1.9282 -0.9433  0.2729
   92MOL   H43747939   3.311   2.796   5.329  0.3193  0.9773  2.5433
   92MOL   H43847940   3.423   2.656   5.509  0.9729 -1.4360 -0.2686
   92MOL   H43947941   3.669   2.600   5.492 -1.0941 -3.9267 -1.5384
   92MOL   H44047942   4.060   2.759   5.099 -0.4288 -1.1098  0.1071
   92MOL   H44147943   4.035   2.841   4.880 -0.1722  0.8068 -0.2903
   92MOL   H44247944   3.812   2.926   4.807 -0.2746  2.3759  0.6949
   92MOL   H44347945   3.628   2.933   4.951  0.0321  0.0189  0.1448
   92MOL   C44447946   3.984   2.498   5.238 -0.4612  0.1552  0.0509
   92MOL   C44547947   3.883   2.410   5.157 -0.2433 -0.5269 -0.2823
   92MOL   N44647948   3.953   2.326   5.066 -0.6009 -0.0517  0.9199
   92MOL   C44747949   3.970   2.362   4.933 -0.3166  0.3174  0.8039
   92MOL   C44847950   4.051   2.266   4.868  0.5827 -0.5515 -0.7449
   92MOL   C44947951   4.070   2.283   4.730  0.0967  0.0484 -0.1859
   92MOL   C45047952   3.999   2.377   4.652 -0.0800 -0.3085  0.3165
   92MOL   C45147953   3.931   2.479   4.726  0.4326 -0.1442  0.3398
   92MOL   C45247954   3.910   2.471   4.863 -0.8473  0.4854 -0.0607
   92MOL   C45347955   4.098   2.169   4.967  0.0643  0.5425  0.2022
   92MOL   C45447956   4.032   2.211   5.091  0.5464 -0.6226  0.0275
   92MOL   C45547957   4.051   2.133   5.203 -0.2217  0.4089 -0.1690
   92MOL   C45647958   4.130   2.017   5.197 -0.3055  0.1569  0.1460
   92MOL   C45747959   4.197   1.981   5.080  0.3783 -0.3160  0.1564
   92MOL   C45847960   4.183   2.059   4.964 -0.1553 -0.6673 -0.1628
   92MOL   H45947961   4.054   2.554   5.177 -0.7396  0.1689 -0.2575
   92MOL   H46047962   4.059   2.437   5.290  1.8401  1.9701 -1.0639
   92MOL   H46147963   3.810   2.464   5.098  0.4815  0.0809 -0.6307
   92MOL   H46247964   4.119   2.210   4.668 -0.9046 -0.9630  0.2046
   92MOL   H46347965   4.001   2.375   4.545 -0.8476  1.2855  0.2500
   92MOL   H46447966   3.878   2.557   4.673  0.2341 -0.0137  0.7242
   92MOL   H46547967   3.856   2.550   4.912  3.1052  2.9943  0.5107
   92MOL   H46647968   4.012   2.155   5.301  0.5863 -0.6404  0.4016
   92MOL   H46747969   4.138   1.956   5.286  1.1715 -1.1734 -0.8744
   92MOL   H46847970   4.264   1.897   5.070  0.3613 -0.6694  2.7029
   92MOL   H46947971   4.242   2.037   4.876 -0.8486 -1.1611 -0.5070
   92MOL   C47047972   3.786   2.333   5.260 -0.5719 -0.1694 -0.2179
   92MOL   C47147973   3.709   2.207   5.219 -0.2686  0.0294  0.5278
   92MOL   N47247974   3.683   2.117   5.336 -0.1259 -0.2479  0.9044
   92MOL   C47347975   3.733   1.991   5.359  0.6380  0.2656 -0.2907
   92MOL   C47447976   3.697   1.947   5.490  0.0740 -0.5317 -0.4072
   92MOL   C47547977   3.729   1.815   5.535  0.2777  0.0215  0.5128
   92MOL   C47647978   3.812   1.729   5.457  0.4311 -0.4229 -0.3915
   92MOL   C47747979   3.855   1.778   5.325 -0.4918  0.3290  0.0533
   92MOL   C47847980   3.817   1.906   5.284  0.4714 -0.4302  1.0341
   92MOL   C47947981   3.636   2.064   5.551  0.2453  0.4184 -0.2715
   92MOL   C48047982   3.612   2.155   5.445  0.3209 -0.3421  0.0426
   92MOL   C48147983   3.534   2.272   5.472  0.2379 -0.5976 -0.0648
   92MOL   C48247984   3.481   2.297   5.600 -0.4836  0.3260 -0.2470
   92MOL   C48347985   3.505   2.203   5.703 -0.7288 -0.0402 -0.5266
   92MOL   C48447986   3.590   2.100   5.683 -0.0007  0.3300 -0.1866
   92MOL   H48547987   3.849   2.299   5.342  2.7483  2.3774 -1.5731
   92MOL   H48647988   3.714   2.394   5.314  1.8111  1.5912  1.0406
   92MOL   H48747989   3.778   2.146   5.161  1.1006  1.7042  0.3233
   92MOL   H48847990   3.693   1.787   5.633 -1.2608  0.3861  0.0714
   92MOL   H48947991   3.846   1.631   5.487  1.8377  0.4852  1.0769
   92MOL   H49047992   3.919   1.724   5.257 -1.4428  0.0618 -0.6422
   92MOL   H49147993   3.844   1.940   5.185 -1.0940  2.0082  1.4194
   92MOL   H49247994   3.514   2.354   5.405  1.2442 -0.5567 -0.3287
   92MOL   H49347995   3.428   2.388   5.624  0.3131 -0.0285  3.1385
   92MOL   H49447996   3.475   2.223   5.805 -1.2132 -2.5016 -0.1499
   92MOL   H49547997   3.612   2.034   5.766  1.3540 -0.7461 -1.3688
   92MOL   C49647998   3.580   2.234   5.142  0.5591 -0.0177 -0.1932
   92MOL   C49747999   3.600   2.309   5.009 -0.3709  0.0368 -0.3408
   92MOL   N49848000   3.478   2.305   4.946 -0.6182 -0.5410 -0.0302
   92MOL   C49948001   3.439   2.224   4.835 -0.5391  0.2549  0.4584
   92MOL   C50048002   3.313   2.266   4.789 -0.2581  0.2641 -0.2349
   92MOL   C50148003   3.260   2.210   4.671  0.0228  0.7696  0.5026
   92MOL   C50248004   3.333   2.110   4.597 -0.1033 -0.0931  0.6705
   92MOL   C50348005   3.458   2.075   4.651 -0.7580  0.6267  0.2744
   92MOL   C50448006   3.512   2.124   4.764  0.2012  0.2817 -0.1456
   92MOL   C50548007   3.264   2.366   4.882  0.1923  0.5979 -0.0474
   92MOL   C50648008   3.370   2.392   4.977  0.5322 -0.5002  0.2214
   92MOL   C50748009   3.353   2.489   5.077 -0.5751  0.7474  0.1934
   92MOL   C50848010   3.235   2.562   5.089  0.5999 -1.2974  0.0965
   92MOL   C50948011   3.132   2.541   4.991 -0.3410 -0.2781  0.5246
   92MOL   C51048012   3.145   2.442   4.888 -0.5424  0.1586 -0.6985
   92MOL   H51148013   3.522   2.144   5.124  0.6312 -0.6478  2.4724
   92MOL   H51248014   3.509   2.292   5.201 -0.2593 -2.3238  1.1572
   92MOL   H51348015   3.682   2.263   4.953 -0.1803 -0.7336  0.5506
   92MOL   H51448016   3.159   2.239   4.649 -0.6442 -0.9651  1.2028
   92MOL   H51548017   3.293   2.061   4.509  1.4239  0.4005 -0.3239
   92MOL   H51648018   3.516   2.003   4.596 -1.0667  1.7963 -1.6392
   92MOL   H51748019   3.608   2.082   4.791  0.2649  0.6516  0.2115
   92MOL   H51848020   3.429   2.507   5.151 -1.0940 -0.0031  0.9111
   92MOL   H51948021   3.226   2.636   5.168 -0.0925 -2.8141  1.4622
   92MOL   H52048022   3.039   2.594   5.008 -0.3914 -0.1013 -0.2655
   92MOL   H52148023   3.064   2.422   4.819 -0.3772  0.2323 -0.9159
   92MOL   H52248024   3.626   2.413   5.026  0.8462 -0.7085  2.7704
   93MOL     C148025   4.947   2.254   4.120  0.0250  0.0896 -0.3618
   93MOL     C248026   5.031   2.349   4.198 -0.2998  1.2597  0.0143
   93MOL     N348027   5.042   2.480   4.133  0.2617  0.2219  0.1078
   93MOL     C448028   5.153   2.562   4.150  0.2235 -0.8039 -0.5548
   93MOL     C548029   5.130   2.687   4.090  0.4596  0.1638 -0.9728
   93MOL     C648030   5.226   2.785   4.102 -0.3213  0.0171 -0.0917
   93MOL     C748031   5.344   2.765   4.178  0.3975 -0.0536  0.6022
   93MOL     C848032   5.370   2.642   4.231  0.1895 -0.1213  0.1786
   93MOL     C948033   5.277   2.542   4.215 -1.0555  0.6364  0.2700
   93MOL    C1048034   5.000   2.685   4.037 -0.4641 -0.2359  0.0034
   93MOL    C1148035   4.949   2.553   4.059  0.2074  0.3728 -0.0235
   93MOL    C1248036   4.823   2.521   4.009  0.1608 -0.6819 -0.0629
   93MOL    C1348037   4.748   2.620   3.947  0.1825  0.2111 -0.0470
   93MOL    C1448038   4.796   2.751   3.925 -0.4459  0.6561  0.0557
   93MOL    C1548039   4.926   2.780   3.965 -0.6685  0.1423  0.4128
   93MOL    H1648040   4.945   2.273   4.013 -1.5010 -2.0494 -0.7525
   93MOL    H1748041   4.842   2.248   4.149  0.1201 -1.8480 -0.3591
   93MOL    H1848042   5.130   2.305   4.208 -0.6139  0.8047  1.2589
   93MOL    H1948043   5.194   2.883   4.071  0.4943  0.6539  1.0353
   93MOL    H2048044   5.424   2.836   4.182  0.9761 -0.6769  0.3020
   93MOL    H2148045   5.467   2.612   4.267  0.4069 -0.0428 -0.3307
   93MOL    H2248046   5.289   2.446   4.264 -0.6000  1.4940  1.8527
   93MOL    H2348047   4.795   2.417   4.010  0.0854 -0.6632 -0.1477
   93MOL    H2448048   4.644   2.598   3.926 -0.5875  2.9463  0.6906
   93MOL    H2548049   4.728   2.820   3.876 -0.1498  0.5659 -0.4847
   93MOL    H2648050   4.974   2.873   3.942 -2.0920  0.0287 -3.4649
   93MOL    H2748051   4.982   2.151   4.131 -3.7873 -1.2829 -0.2414
   93MOL    C2848052   4.965   2.355   4.340 -0.7349  0.4616 -0.0483
   93MOL    C2948053   4.853   2.465   4.367 -0.1700 -0.4352 -0.4926
   93MOL    N3048054   4.744   2.411   4.452 -0.1308  0.8128 -0.1949
   93MOL    C3148055   4.611   2.395   4.412  0.0634  0.6962  0.5642
   93MOL    C3248056   4.538   2.352   4.528 -0.4187  0.6545  0.8807
   93MOL    C3348057   4.396   2.327   4.512 -0.2442  0.8839  0.2719
   93MOL    C3448058   4.328   2.365   4.391  0.5880 -0.2581 -0.4591
   93MOL    C3548059   4.397   2.415   4.280 -0.5887  0.0725 -0.3690
   93MOL    C3648060   4.544   2.413   4.291  0.7825 -0.2938 -0.1183
   93MOL    C3748061   4.630   2.335   4.640 -0.1782  0.1260 -0.4297
   93MOL    C3848062   4.755   2.376   4.588 -0.3614 -0.5212  0.5213
   93MOL    C3948063   4.864   2.382   4.679  0.6267 -0.3249  0.0934
   93MOL    C4048064   4.848   2.357   4.816  0.0609  0.7713  0.2443
   93MOL    C4148065   4.723   2.315   4.867  0.0326 -0.7670 -0.0825
   93MOL    C4248066   4.611   2.307   4.777  0.6153  0.0866 -0.1017
   93MOL    H4348067   4.917   2.258   4.355 -2.1452  1.4365  2.1873
   93MOL    H4448068   5.050   2.354   4.408 -0.8708 -2.0136  0.1348
   93MOL    H4548069   4.809   2.476   4.267 -1.4588  0.2658  0.1346
   93MOL    H4648070   4.341   2.290   4.598 -0.4905 -0.1942 -0.3396
   93MOL    H4748071   4.221   2.360   4.406  0.5094 -0.6958 -1.1114
   93MOL    H4848072   4.350   2.426   4.183  0.1674  3.1031 -0.4365
   93MOL    H4948073   4.609   2.430   4.206  1.2181 -0.6401  0.1451
   93MOL    H5048074   4.957   2.418   4.639 -0.1577 -0.0784 -1.5364
   93MOL    H5148075   4.941   2.354   4.872  1.7702  2.2906 -2.4425
   93MOL    H5248076   4.717   2.286   4.971  1.2128 -0.4877  0.0684
   93MOL    H5348077   4.519   2.282   4.828  0.2449  1.0573 -0.2763
   93MOL    C5448078   4.898   2.608   4.414 -0.4195  0.0618  0.0962
   93MOL    C5548079   4.793   2.715   4.425 -0.1829  0.0767  0.4258
   93MOL    N5648080   4.848   2.822   4.512 -0.8552 -0.3908  0.1784
   93MOL    C5748081   4.812   2.832   4.650  0.1150  0.1901 -0.3721
   93MOL    C5848082   4.892   2.933   4.715 -0.5968 -0.6436 -0.3763
   93MOL    C5948083   4.868   2.958   4.853 -0.2405 -0.5215 -0.4282
   93MOL    C6048084   4.770   2.887   4.921 -0.1585  0.4425 -0.2376
   93MOL    C6148085   4.694   2.785   4.864  0.3031 -0.1163 -0.1216
   93MOL    C6248086   4.712   2.762   4.725  0.1052  0.1122 -0.3818
   93MOL    C6348087   4.978   2.983   4.613  0.2897  0.3463 -0.0050
   93MOL    C6448088   4.959   2.901   4.495  0.5195 -0.2181 -0.3107
   93MOL    C6548089   5.042   2.919   4.388 -0.4215  0.6563  0.1232
   93MOL    C6648090   5.138   3.024   4.389  0.9014  0.4150  0.4880
   93MOL    C6748091   5.168   3.092   4.504  0.0103 -0.0902 -0.1028
   93MOL    C6848092   5.089   3.063   4.620 -0.1484  0.6340  1.0812
   93MOL    H6948093   4.946   2.602   4.511 -2.0670  0.4531  0.9548
   93MOL    H7048094   4.977   2.647   4.351 -0.3730  1.3585  0.9509
   93MOL    H7148095   4.711   2.667   4.479 -0.2633 -0.0107  0.2258
   93MOL    H7248096   4.926   3.029   4.911  0.4522 -0.6063 -1.0117
   93MOL    H7348097   4.753   2.899   5.027 -2.4061 -1.4817 -0.3484
   93MOL    H7448098   4.617   2.731   4.916 -1.4718 -0.1780 -2.7113
   93MOL    H7548099   4.648   2.691   4.674  0.7744 -0.7661 -0.0008
   93MOL    H7648100   5.022   2.861   4.299 -1.1844 -0.7439  1.1927
   93MOL    H7748101   5.195   3.024   4.297  1.1886  1.5725  0.6476
   93MOL    H7848102   5.248   3.162   4.523  2.4371 -2.6296 -0.7024
   93MOL    H7948103   5.111   3.111   4.714  0.1831  0.7442  0.9467
   93MOL    C8048104   4.754   2.764   4.290  0.0472 -0.0810 -0.1859
   93MOL    C8148105   4.606   2.801   4.278  0.0897 -0.5210 -0.2240
   93MOL    N8248106   4.548   2.868   4.394  0.0234  0.1596 -0.2497
   93MOL    C8348107   4.451   2.818   4.486  0.6108  0.0473  0.2932
   93MOL    C8448108   4.430   2.913   4.597 -0.4337 -0.5929  0.5784
   93MOL    C8548109   4.333   2.880   4.696 -0.0643  0.0059  0.4303
   93MOL    C8648110   4.250   2.768   4.679 -0.4288 -0.6825 -0.3791
   93MOL    C8748111   4.277   2.667   4.583 -0.6045 -0.1698  0.4558
   93MOL    C8848112   4.372   2.701   4.482  0.0782  0.5953  0.3178
   93MOL    C8948113   4.525   3.019   4.573 -0.2770 -0.3865  0.0982
   93MOL    C9048114   4.588   2.994   4.448  1.1592 -0.3015  0.0118
   93MOL    C9148115   4.682   3.090   4.402 -0.1317  0.1907 -1.0740
   93MOL    C9248116   4.730   3.191   4.488  0.0718 -0.6332  0.0086
   93MOL    C9348117   4.674   3.211   4.613 -0.2857 -0.1262  0.7440
   93MOL    C9448118   4.566   3.131   4.649  0.3975 -0.0885 -0.6818
   93MOL    H9548119   4.812   2.853   4.265  0.1578  0.4473  1.8524
   93MOL    H9648120   4.773   2.685   4.218  3.0787  1.8757 -1.6551
   93MOL    H9748121   4.551   2.707   4.282 -0.5870 -0.1210  0.0306
   93MOL    H9848122   4.313   2.950   4.776  2.3743  2.4366 -1.0118
   93MOL    H9948123   4.176   2.753   4.757 -0.7411 -1.4152 -0.8045
   93MOL   H10048124   4.227   2.571   4.579  1.1161 -1.1402  1.3544
   93MOL   H10148125   4.382   2.632   4.399  0.1270 -0.5327  1.2411
   93MOL   H10248126   4.737   3.075   4.311  0.3300 -1.9192 -0.4817
   93MOL   H10348127   4.815   3.254   4.462 -1.4424  1.1175 -0.8470
   93MOL   H10448128   4.724   3.279   4.681 -0.5218 -1.2141  2.0501
   93MOL   H10548129   4.521   3.152   4.745  2.3396 -2.3873  0.7758
   93MOL   C10648130   4.573   2.878   4.143 -0.8109 -0.1689  0.0615
   93MOL   C10748131   4.449   2.964   4.125  0.5739 -0.0315  0.2297
   93MOL   N10848132   4.450   3.056   4.008  0.5951 -0.3710  0.0437
   93MOL   C10948133   4.473   3.195   4.009  0.1686  0.9054 -0.2428
   93MOL   C11048134   4.462   3.257   3.885 -0.7156  0.1283 -0.3997
   93MOL   C11148135   4.488   3.397   3.875  0.1592 -0.4509  0.2216
   93MOL   C11248136   4.521   3.473   3.990 -0.7417  0.4187 -0.1023
   93MOL   C11348137   4.533   3.411   4.113 -0.0735  0.9158 -0.1516
   93MOL   C11448138   4.509   3.270   4.123 -0.4550  0.0200  0.4027
   93MOL   C11548139   4.431   3.148   3.797  0.5684 -0.3301 -0.1551
   93MOL   C11648140   4.426   3.027   3.871  0.7262 -0.5112 -0.1963
   93MOL   C11748141   4.405   2.908   3.796 -0.0345  0.0014 -0.4244
   93MOL   C11848142   4.381   2.908   3.660 -0.5318  0.0681 -0.0125
   93MOL   C11948143   4.391   3.031   3.591  0.1010 -0.5826  0.5858
   93MOL   C12048144   4.424   3.151   3.658  0.1923 -0.8807  0.6657
   93MOL   H12148145   4.651   2.950   4.121  1.8373 -1.8191  3.4689
   93MOL   H12248146   4.591   2.801   4.068 -1.7449 -0.4215  0.0986
   93MOL   H12348147   4.451   3.027   4.214 -0.3170  0.8969 -0.3863
   93MOL   H12448148   4.485   3.439   3.776  0.8447 -0.7169  0.0865
   93MOL   H12548149   4.539   3.579   3.976  2.6977  0.2234  2.1497
   93MOL   H12648150   4.548   3.471   4.202  1.4461 -1.2397  1.0688
   93MOL   H12748151   4.524   3.234   4.223  0.5386 -0.1633  0.1933
   93MOL   H12848152   4.404   2.810   3.842 -2.0093  0.5691  0.7979
   93MOL   H12948153   4.369   2.816   3.604  1.5094  0.6571 -1.4633
   93MOL   H13048154   4.395   3.026   3.483  0.0233 -2.1208  0.6371
   93MOL   H13148155   4.444   3.244   3.607  1.7569 -1.2165  0.6520
   93MOL   C13248156   4.313   2.890   4.143 -0.4921 -0.1400 -0.1867
   93MOL   C13348157   4.201   2.998   4.168  0.3314  0.1997  0.2686
   93MOL   N13448158   4.073   2.934   4.151 -0.2943  0.3199  0.5939
   93MOL   C13548159   3.982   2.968   4.047 -0.0640  0.4733 -0.2774
   93MOL   C13648160   3.868   2.886   4.061 -0.2664 -0.2456 -0.2024
   93MOL   C13748161   3.753   2.912   3.981 -0.5595  0.3776  0.7578
   93MOL   C13848162   3.748   3.027   3.904  0.3758  1.5516 -0.6667
   93MOL   C13948163   3.863   3.107   3.883  0.7879 -0.1474  0.2229
   93MOL   C14048164   3.984   3.079   3.950 -0.1879 -0.1081 -0.0986
   93MOL   C14148165   3.895   2.785   4.166 -0.2935  0.2053  0.2284
   93MOL   C14248166   4.016   2.830   4.225  0.0447 -0.3807 -0.1282
   93MOL   C14348167   4.060   2.770   4.344 -1.0567 -0.1521  0.4713
   93MOL   C14448168   3.990   2.656   4.389 -0.2632 -0.1545  0.3979
   93MOL   C14548169   3.867   2.612   4.323  0.3809 -0.2267  0.4224
   93MOL   C14648170   3.821   2.679   4.211 -0.0270  0.9753 -0.4017
   93MOL   H14748171   4.298   2.841   4.047 -1.6230  0.5754 -0.3857
   93MOL   H14848172   4.311   2.815   4.222  2.1935  0.8703  0.8938
   93MOL   H14948173   4.200   3.067   4.084 -0.6159  1.1585  1.0463
   93MOL   H15048174   3.668   2.846   3.978 -1.5291  1.6011  0.8911
   93MOL   H15148175   3.658   3.031   3.844  0.0328  0.6449 -0.2235
   93MOL   H15248176   3.847   3.190   3.816  0.3460 -0.7374 -0.4212
   93MOL   H15348177   4.065   3.150   3.947  0.1382 -0.4709  0.1379
   93MOL   H15448178   4.152   2.802   4.390 -1.0671 -1.2128  1.2456
   93MOL   H15548179   4.012   2.605   4.481 -2.0724 -0.4564  0.6866
   93MOL   H15648180   3.806   2.529   4.354 -1.0919  0.1736 -1.3252
   93MOL   H15748181   3.725   2.655   4.167 -1.8606  0.1611  3.8390
   93MOL   C15848182   4.200   3.094   4.290 -0.0041  0.3967 -0.5506
   93MOL   C15948183   4.079   3.182   4.303  0.0840  0.1203  0.2289
   93MOL   N16048184   4.050   3.211   4.447  0.1591 -0.5460  0.5450
   93MOL   C16148185   3.929   3.188   4.515  0.0705 -0.2286  0.1171
   93MOL   C16248186   3.941   3.237   4.649 -0.1972  0.1940  0.1836
   93MOL   C16348187   3.831   3.214   4.734 -0.2344  0.2320 -0.6017
   93MOL   C16448188   3.710   3.157   4.692 -0.0545 -0.8096 -0.4046
   93MOL   C16548189   3.700   3.105   4.562  0.3063  0.0624 -0.4360
   93MOL   C16648190   3.805   3.130   4.475  0.7092  0.2888  0.4709
   93MOL   C16748191   4.073   3.294   4.670 -1.0101 -0.1740  0.1375
   93MOL   C16848192   4.135   3.270   4.540  0.3151 -1.2420 -0.2857
   93MOL   C16948193   4.271   3.310   4.517 -0.4418  0.6550 -0.5222
   93MOL   C17048194   4.344   3.367   4.624 -0.0725  0.5122  1.6113
   93MOL   C17148195   4.284   3.389   4.747 -0.6397 -0.2364 -0.0324
   93MOL   C17248196   4.151   3.349   4.771 -0.0311 -0.0039  0.1363
   93MOL   H17348197   4.213   3.033   4.380 -1.2847  0.4981 -0.2971
   93MOL   H17448198   4.284   3.164   4.288  3.1841 -3.2539 -1.4183
   93MOL   H17548199   3.988   3.130   4.271 -1.1159  1.6498  1.1020
   93MOL   H17648200   3.843   3.252   4.834 -1.5534 -1.9109  0.3962
   93MOL   H17748201   3.636   3.148   4.771 -0.4978  2.0522 -0.4562
   93MOL   H17848202   3.606   3.069   4.523  0.7248 -2.8415  1.0787
   93MOL   H17948203   3.798   3.104   4.370 -0.1324  0.4195  0.4984
   93MOL   H18048204   4.322   3.297   4.422  0.1657 -2.8188  0.2037
   93MOL   H18148205   4.448   3.381   4.601 -0.3126 -3.0279 -1.9892
   93MOL   H18248206   4.348   3.435   4.821 -0.5406 -0.7244  0.1859
   93MOL   H18348207   4.101   3.363   4.866  0.3051  0.6387  0.2257
   93MOL   C18448208   4.092   3.311   4.218  0.1847 -0.3130  0.3866
   93MOL   C18548209   3.976   3.411   4.216 -0.8663 -0.2293 -0.1612
   93MOL   N18648210   4.023   3.542   4.160  0.3424 -0.1732  0.1487
   93MOL   C18748211   4.024   3.665   4.228 -0.0784  0.0957  0.4030
   93MOL   C18848212   4.093   3.758   4.145  0.1866  0.0512  0.0719
   93MOL   C18948213   4.121   3.880   4.189  0.0780  0.2708  0.8989
   93MOL   C19048214   4.083   3.916   4.322  0.3394 -0.3614  0.3375
   93MOL   C19148215   4.016   3.828   4.410  0.8470  0.3114  0.1407
   93MOL   C19248216   3.984   3.702   4.358 -0.4621 -0.5576 -0.3878
   93MOL   C19348217   4.114   3.699   4.021 -0.4387 -0.4834  0.1893
   93MOL   C19448218   4.084   3.565   4.036 -0.4914  0.2237 -0.3560
   93MOL   C19548219   4.101   3.479   3.926  0.4745  1.1349  0.4992
   93MOL   C19648220   4.151   3.529   3.803 -0.3697 -0.2799 -0.1840
   93MOL   C19748221   4.187   3.665   3.788 -0.6784 -0.5848 -0.0319
   93MOL   C19848222   4.176   3.749   3.904 -0.6164  0.5044  0.1205
   93MOL   H19948223   4.171   3.372   4.261 -1.1814  1.6799  0.1215
   93MOL   H20048224   4.136   3.286   4.121  0.5626  0.9746  0.2148
   93MOL   H20148225   3.958   3.431   4.321 -1.1066  0.1261 -0.2723
   93MOL   H20248226   4.179   3.942   4.123 -0.8038 -0.6546 -0.7785
   93MOL   H20348227   4.106   4.017   4.354  0.0403 -0.6190  1.3691
   93MOL   H20448228   3.962   3.853   4.501 -1.5897  1.2872 -1.5129
   93MOL   H20548229   3.934   3.639   4.431 -2.6952  0.7498 -0.7282
   93MOL   H20648230   4.073   3.375   3.923 -1.6068  1.6696  0.5728
   93MOL   H20748231   4.165   3.466   3.716 -1.9211 -0.5268 -0.2729
   93MOL   H20848232   4.232   3.708   3.700  0.9952 -0.1900  0.9721
   93MOL   H20948233   4.208   3.852   3.900  0.3519  0.1515 -1.5931
   93MOL   C21048234   3.853   3.354   4.144  0.1489  0.4538  0.5514
   93MOL   C21148235   3.731   3.446   4.156  0.5864 -0.4992  0.5126
   93MOL   N21248236   3.631   3.418   4.054 -0.1402 -0.2617 -0.0023
   93MOL   C21348237   3.587   3.513   3.956 -0.9041  0.5693  0.8981
   93MOL   C21448238   3.478   3.454   3.875 -0.5224  0.8960  0.1787
   93MOL   C21548239   3.408   3.536   3.786 -0.2731 -0.3918  0.0497
   93MOL   C21648240   3.447   3.668   3.766 -0.3789  0.4594  0.2830
   93MOL   C21748241   3.554   3.722   3.837 -0.2785 -0.1768 -0.3789
   93MOL   C21848242   3.623   3.645   3.927 -0.3582 -0.6595  0.6377
   93MOL   C21948243   3.459   3.318   3.922  0.1085  0.1921  0.5903
   93MOL   C22048244   3.557   3.302   4.026  0.7407  0.2085 -0.3960
   93MOL   C22148245   3.564   3.179   4.097  0.1822 -1.1635  0.2972
   93MOL   C22248246   3.474   3.074   4.068 -0.5621 -0.3922 -0.4268
   93MOL   C22348247   3.380   3.083   3.960  0.3500  0.4229  0.1828
   93MOL   C22448248   3.375   3.206   3.893  0.0507 -0.1951  0.4657
   93MOL   H22548249   3.874   3.342   4.038  0.4039 -0.0417  0.6596
   93MOL   H22648250   3.835   3.252   4.177  1.9813  0.1285  0.6258
   93MOL   H22748251   3.769   3.546   4.136 -1.1857  0.2965  1.0904
   93MOL   H22848252   3.326   3.492   3.731 -1.4332 -1.1776  2.3649
   93MOL   H22948253   3.391   3.724   3.692 -0.1851 -0.7628 -0.8192
   93MOL   H23048254   3.572   3.828   3.828 -0.9061 -0.0351  0.0830
   93MOL   H23148255   3.706   3.687   3.983 -0.2712 -0.0515  0.0496
   93MOL   H23248256   3.633   3.169   4.179 -0.0722  0.1764  0.6916
   93MOL   H23348257   3.489   2.990   4.133 -1.2247  0.7995  1.2962
   93MOL   H23448258   3.313   3.001   3.940  1.5441 -0.1910 -1.3979
   93MOL   H23548259   3.299   3.233   3.821 -0.6843 -1.0665  0.9130
   93MOL   C23648260   3.684   3.444   4.299 -0.5696 -0.0975 -0.8583
   93MOL   C23748261   3.540   3.486   4.334  0.2319 -0.2220 -0.4683
   93MOL   N23848262   3.506   3.464   4.472  0.1202 -0.1024 -0.4332
   93MOL   C23948263   3.428   3.356   4.518 -0.7106  0.5500 -0.5433
   93MOL   C24048264   3.407   3.366   4.659 -1.3628  0.3389  1.1350
   93MOL   C24148265   3.336   3.262   4.717  0.1441 -0.2893 -0.4728
   93MOL   C24248266   3.275   3.157   4.648 -0.4968  0.0353 -0.1238
   93MOL   C24348267   3.305   3.145   4.508 -0.9385 -0.2812  0.2493
   93MOL   C24448268   3.383   3.246   4.439  0.1476  0.2380 -0.0993
   93MOL   C24548269   3.491   3.471   4.703  0.6337 -0.1104  0.9833
   93MOL   C24648270   3.556   3.529   4.586  0.3830 -0.0018  0.0609
   93MOL   C24748271   3.650   3.635   4.607 -1.1977  0.3029 -0.1357
   93MOL   C24848272   3.679   3.675   4.737 -0.0504 -1.1350 -0.1479
   93MOL   C24948273   3.621   3.619   4.847  0.2746 -0.0347 -0.5978
   93MOL   C25048274   3.524   3.519   4.835 -0.8758  0.3977  0.3734
   93MOL   H25148275   3.691   3.340   4.330  1.9804 -0.2842 -1.9455
   93MOL   H25248276   3.754   3.504   4.358 -0.6652 -1.7862  1.0119
   93MOL   H25348277   3.473   3.431   4.267  0.6651 -3.2865  1.4948
   93MOL   H25448278   3.328   3.251   4.824  0.2305 -3.3040 -0.7303
   93MOL   H25548279   3.232   3.077   4.706 -0.4130  0.0271 -0.0715
   93MOL   H25648280   3.283   3.055   4.453  0.3937 -0.1181 -0.5776
   93MOL   H25748281   3.413   3.226   4.337 -1.0382  2.4102 -0.8924
   93MOL   H25848282   3.681   3.690   4.519  1.0173  0.6528  0.8293
   93MOL   H25948283   3.748   3.758   4.741 -1.1377 -0.2271 -0.1627
   93MOL   H26048284   3.656   3.646   4.945 -1.0936 -1.6984  0.3868
   93MOL   H26148285   3.495   3.466   4.925  0.0384  0.1436  0.5237
   93MOL   C26248286   3.513   3.631   4.289 -0.3776 -0.6301 -0.5567
   93MOL   C26348287   3.356   3.667   4.301  0.1036 -0.0131 -0.5862
   93MOL   N26448288   3.354   3.810   4.330  0.2734  0.8049 -0.2979
   93MOL   C26548289   3.328   3.869   4.451  0.4065 -0.2978  0.1919
   93MOL   C26648290   3.347   4.010   4.444  0.1579  0.2333  0.3493
   93MOL   C26748291   3.326   4.087   4.558  0.3161 -0.2580 -0.0309
   93MOL   C26848292   3.284   4.029   4.677 -0.4044 -0.6612 -0.4231
   93MOL   C26948293   3.263   3.888   4.683  0.0715  0.1471 -0.4527
   93MOL   C27048294   3.285   3.808   4.572  0.7906 -0.5641  0.5167
   93MOL   C27148295   3.373   4.037   4.306 -0.2123 -0.4177  0.1817
   93MOL   C27248296   3.381   3.908   4.236 -0.2927 -0.7193  0.4311
   93MOL   C27348297   3.421   3.903   4.102  0.1662 -0.0631  0.8362
   93MOL   C27448298   3.451   4.022   4.033  0.3619  0.6161  0.0621
   93MOL   C27548299   3.447   4.146   4.102 -0.6551 -0.1781 -0.1084
   93MOL   C27648300   3.412   4.151   4.238  0.1403 -0.6180 -0.5059
   93MOL   H27748301   3.563   3.707   4.348 -1.1209 -0.8371  0.3388
   93MOL   H27848302   3.548   3.649   4.187  1.8779  2.7227  0.7415
   93MOL   H27948303   3.310   3.605   4.377 -0.5185  0.3623 -0.6565
   93MOL   H28048304   3.344   4.192   4.542 -0.2410 -0.2563 -0.6793
   93MOL   H28148305   3.261   4.080   4.769  1.6022 -1.1533  0.3867
   93MOL   H28248306   3.222   3.859   4.778  0.0958  2.4089  0.2771
   93MOL   H28348307   3.268   3.702   4.574  0.7980 -0.6910 -3.1396
   93MOL   H28448308   3.455   3.815   4.049  2.5558  1.4166 -0.1716
   93MOL   H28548309   3.504   4.010   3.939 -0.1470  0.8976 -0.2675
   93MOL   H28648310   3.481   4.240   4.060 -1.2225  0.8164  1.6060
   93MOL   H28748311   3.424   4.246   4.289  2.0384 -1.3845  0.5035
   93MOL   C28848312   3.277   3.633   4.172 -0.9369 -0.6824 -0.6174
   93MOL   C28948313   3.149   3.541   4.188 -1.1104  0.0022 -0.3973
   93MOL   N29048314   3.043   3.588   4.283 -0.0026 -0.2670  0.1252
   93MOL   C29148315   3.000   3.517   4.396  0.3577  2.1217 -0.9366
   93MOL   C29248316   2.879   3.582   4.441  0.1101  0.4448 -0.1724
   93MOL   C29348317   2.801   3.517   4.543  0.7104 -0.3370  0.3253
   93MOL   C29448318   2.846   3.398   4.603 -0.3074  0.7319  0.4755
   93MOL   C29548319   2.966   3.339   4.565 -0.1989  0.9733  0.0582
   93MOL   C29648320   3.037   3.396   4.458  0.0949 -0.2501 -0.4121
   93MOL   C29748321   2.866   3.702   4.366 -0.8249  0.0148  0.6750
   93MOL   C29848322   2.973   3.708   4.267  0.1342 -0.2732 -0.4869
   93MOL   C29948323   2.970   3.810   4.169 -0.4182 -0.4485  0.2301
   93MOL   C30048324   2.881   3.915   4.177  0.6814 -1.4227  0.7017
   93MOL   C30148325   2.786   3.926   4.279 -0.1510 -0.3679  0.4432
   93MOL   C30248326   2.776   3.813   4.361  0.1874 -0.3648 -0.3229
   93MOL   H30348327   3.242   3.720   4.117  0.8991  0.6173  0.2263
   93MOL   H30448328   3.349   3.579   4.110 -1.6522  0.9961 -2.9590
   93MOL   H30548329   3.191   3.452   4.235 -0.3055  0.1248 -0.8810
   93MOL   H30648330   2.705   3.561   4.563  0.9897  0.1442  0.5958
   93MOL   H30748331   2.780   3.350   4.674 -0.8904  0.6714 -0.1088
   93MOL   H30848332   2.990   3.241   4.605 -0.6528  1.0971  0.6366
   93MOL   H30948333   3.131   3.349   4.431 -1.3384 -2.6183 -1.4758
   93MOL   H31048334   3.035   3.807   4.083  2.4744  0.6212  2.3013
   93MOL   H31148335   2.890   3.984   4.094 -1.6256 -2.2565 -0.2655
   93MOL   H31248336   2.724   4.014   4.291  1.0367  0.4419  0.7371
   93MOL   H31348337   2.705   3.816   4.442 -1.6366 -0.0859 -1.9037
   93MOL   C31448338   3.090   3.491   4.054  0.8066  0.3605  0.3825
   93MOL   C31548339   2.978   3.387   4.064 -0.4038 -0.7085  0.4997
   93MOL   N31648340   2.888   3.404   3.948  0.5271  0.0726 -0.2538
   93MOL   C31748341   2.765   3.468   3.957  0.3301  0.4382  0.8006
   93MOL   C31848342   2.705   3.462   3.828  0.3840  0.4895  0.0708
   93MOL   C31948343   2.572   3.517   3.819  0.4161 -0.0876  0.3570
   93MOL   C32048344   2.504   3.561   3.931  0.0384 -0.2898  0.2624
   93MOL   C32148345   2.562   3.571   4.057  0.0144  0.3548  0.2524
   93MOL   C32248346   2.695   3.525   4.067 -0.3397 -0.2362  0.5264
   93MOL   C32348347   2.799   3.401   3.739 -0.6018 -0.3445 -0.2299
   93MOL   C32448348   2.916   3.380   3.811  0.1503  0.9300 -0.5230
   93MOL   C32548349   3.028   3.334   3.747 -0.4500  0.6981  0.0902
   93MOL   C32648350   3.035   3.311   3.613 -0.3161  0.3075  0.3484
   93MOL   C32748351   2.920   3.331   3.536  0.5277 -0.5914 -0.0068
   93MOL   C32848352   2.800   3.372   3.601  0.0152  0.1580  0.3125
   93MOL   H32948353   3.053   3.582   4.007 -1.3406 -0.7966 -0.2770
   93MOL   H33048354   3.171   3.458   3.990 -0.2203  0.9251 -1.2629
   93MOL   H33148355   2.922   3.416   4.153  1.3120  0.7705  1.1279
   93MOL   H33248356   2.525   3.496   3.725 -0.3628 -0.4193  0.8141
   93MOL   H33348357   2.401   3.594   3.938 -0.6911 -2.6015  0.8736
   93MOL   H33448358   2.513   3.623   4.138  0.0376  0.8938 -0.0784
   93MOL   H33548359   2.749   3.534   4.160  1.0411 -0.8431 -0.1999
   93MOL   H33648360   3.114   3.315   3.809 -0.1324 -0.0177 -0.5694
   93MOL   H33748361   3.131   3.287   3.569 -0.5574  1.7143 -0.9981
   93MOL   H33848362   2.922   3.329   3.428 -1.9315 -1.4038 -0.0675
   93MOL   H33948363   2.709   3.389   3.545  0.7054  0.8448 -0.6169
   93MOL   C34048364   3.021   3.245   4.085  0.2283  0.2173 -0.2026
   93MOL   C34148365   2.924   3.127   4.062 -0.7949  0.3381 -0.3793
   93MOL   N34248366   2.995   3.006   4.087 -0.1459 -0.4902 -0.2076
   93MOL   C34348367   3.037   2.920   3.979 -0.6513  0.2325  0.2030
   93MOL   C34448368   3.105   2.806   4.031 -0.2983 -0.4943 -0.0529
   93MOL   C34548369   3.153   2.703   3.943 -0.2372 -0.2749  0.2218
   93MOL   C34648370   3.133   2.718   3.802 -0.0173  0.5704 -0.0555
   93MOL   C34748371   3.076   2.836   3.755 -0.2423 -0.1329  0.1356
   93MOL   C34848372   3.030   2.935   3.842 -0.1150 -0.1891  0.1629
   93MOL   C34948373   3.104   2.825   4.174 -0.2720  0.3028 -1.3505
   93MOL   C35048374   3.036   2.947   4.206 -0.9520  0.0596 -0.6867
   93MOL   C35148375   3.032   2.996   4.336 -0.2396  0.2250 -0.2180
   93MOL   C35248376   3.074   2.911   4.436 -0.2004 -0.0656  0.1762
   93MOL   C35348377   3.127   2.787   4.407 -0.4434  0.6821  0.1682
   93MOL   C35448378   3.154   2.750   4.278 -0.0412 -0.9592 -0.2247
   93MOL   H35548379   3.100   3.228   4.012 -0.9019 -1.7399 -1.0207
   93MOL   H35648380   3.066   3.238   4.185 -2.3594  0.9017  1.0351
   93MOL   H35748381   2.895   3.130   3.957 -0.5039  0.4150 -0.4566
   93MOL   H35848382   3.187   2.608   3.982  1.7276  0.3561  0.0967
   93MOL   H35948383   3.158   2.645   3.726 -1.6739 -1.6183  1.4241
   93MOL   H36048384   3.061   2.848   3.649  2.1916 -1.3235 -0.3762
   93MOL   H36148385   2.971   3.013   3.798 -1.2378 -1.2850 -0.2992
   93MOL   H36248386   2.986   3.092   4.350 -1.7423 -0.9085  2.9779
   93MOL   H36348387   3.072   2.935   4.542  2.4486 -1.1779  0.5086
   93MOL   H36448388   3.148   2.721   4.490 -0.1328  0.8833  0.2486
   93MOL   H36548389   3.196   2.655   4.246  0.8567  0.0897 -2.2458
   93MOL   C36648390   2.790   3.137   4.130  0.1291 -0.4264 -0.0710
   93MOL   C36748391   2.696   3.008   4.102 -1.3357 -0.3334  0.1002
   93MOL   N36848392   2.574   3.010   4.186  0.1369 -0.9338 -0.5710
   93MOL   C36948393   2.551   2.946   4.305  0.0910  0.9326 -0.5126
   93MOL   C37048394   2.412   2.956   4.334  0.3786  0.0221 -0.5125
   93MOL   C37148395   2.365   2.875   4.442  0.3762  0.4975 -0.5162
   93MOL   C37248396   2.453   2.807   4.524 -0.0449  0.8864  0.4979
   93MOL   C37348397   2.588   2.801   4.495 -0.1909 -0.8550 -0.0758
   93MOL   C37448398   2.642   2.874   4.388  0.3798  0.1313  0.7345
   93MOL   C37548399   2.360   3.050   4.239 -0.4244 -0.0127  0.3354
   93MOL   C37648400   2.473   3.101   4.161 -0.1996  0.0100 -1.0459
   93MOL   C37748401   2.454   3.199   4.060 -0.1475  0.3086 -0.0992
   93MOL   C37848402   2.326   3.250   4.035 -0.3532 -0.2605 -0.1143
   93MOL   C37948403   2.216   3.196   4.111  0.0750  0.0760  0.5563
   93MOL   C38048404   2.236   3.098   4.211  0.7947  0.0299 -0.1393
   93MOL   H38148405   2.812   3.139   4.237  3.1636 -1.5194 -0.6126
   93MOL   H38248406   2.745   3.236   4.128 -0.2946 -0.6089  0.4042
   93MOL   H38348407   2.756   2.928   4.144 -1.1563 -1.6297 -2.5018
   93MOL   H38448408   2.259   2.878   4.465  1.0573 -0.4341  3.0169
   93MOL   H38548409   2.410   2.755   4.609  0.9035 -0.9613 -0.1257
   93MOL   H38648410   2.659   2.749   4.557 -0.2737  1.0162  1.6187
   93MOL   H38748411   2.745   2.854   4.363  0.4659 -1.0880  1.9853
   93MOL   H38848412   2.542   3.232   4.007  0.6617  0.5865  1.3913
   93MOL   H38948413   2.318   3.330   3.962 -0.0952  1.6549  1.8963
   93MOL   H39048414   2.118   3.220   4.075 -0.0463  1.2575  1.6839
   93MOL   H39148415   2.150   3.053   4.257  0.8086  0.0228 -0.1207
   93MOL   C39248416   2.661   2.972   3.954 -0.4993  1.1523  0.1414
   93MOL   C39348417   2.538   2.879   3.937  0.1215 -0.3567 -0.0942
   93MOL   N39448418   2.495   2.856   3.796  0.1169 -0.2316  0.3379
   93MOL   C39548419   2.369   2.887   3.741  0.1807  0.1464  0.9700
   93MOL   C39648420   2.368   2.854   3.602  0.1318  0.5797 -0.0460
   93MOL   C39748421   2.251   2.869   3.522 -0.5817  0.4524  0.4443
   93MOL   C39848422   2.131   2.921   3.582  0.0179  0.1122 -0.6587
   93MOL   C39948423   2.133   2.965   3.716  0.2167  0.3694  0.5797
   93MOL   C40048424   2.251   2.948   3.796 -0.1931 -0.1655  0.1555
   93MOL   C40148425   2.501   2.807   3.571 -0.6034  0.4715 -0.3396
   93MOL   C40248426   2.576   2.812   3.695 -0.5254  0.6623  0.1970
   93MOL   C40348427   2.715   2.774   3.689  0.7407  0.0389 -0.5644
   93MOL   C40448428   2.767   2.722   3.567 -0.0251  0.2776 -0.6049
   93MOL   C40548429   2.693   2.707   3.448 -0.4392 -0.3762  0.7396
   93MOL   C40648430   2.560   2.751   3.458 -0.7557  1.0452 -0.0060
   93MOL   H40748431   2.624   3.060   3.902 -0.6152  0.9858 -0.0596
   93MOL   H40848432   2.754   2.935   3.910 -0.1700  0.5948  1.2727
   93MOL   H40948433   2.451   2.917   3.990 -1.3611 -1.8055 -1.3893
   93MOL   H41048434   2.237   2.853   3.416  2.1074  0.9285 -0.0150
   93MOL   H41148435   2.045   2.925   3.517  0.5392  0.4611 -1.3320
   93MOL   H41248436   2.046   3.012   3.760  0.4884 -0.9578  2.6170
   93MOL   H41348437   2.250   2.978   3.900 -0.2284  1.6078 -0.3586
   93MOL   H41448438   2.778   2.763   3.776 -0.6631 -1.7539  0.2549
   93MOL   H41548439   2.870   2.691   3.557  0.0763 -0.6203  2.8396
   93MOL   H41648440   2.735   2.664   3.358 -2.8049  1.0379 -1.0855
   93MOL   H41748441   2.499   2.752   3.369  0.8415  2.6828 -1.1171
   93MOL   C41848442   2.565   2.739   3.993 -0.1877 -0.0921 -0.3061
   93MOL   C41948443   2.449   2.643   3.995 -0.5269  0.9249 -0.1855
   93MOL   N42048444   2.501   2.505   4.020 -0.3456 -0.6442  0.6709
   93MOL   C42148445   2.521   2.404   3.922  0.3594  0.2299  0.9140
   93MOL   C42248446   2.570   2.284   3.982 -0.3375  0.5711 -0.0460
   93MOL   C42348447   2.594   2.166   3.899 -0.0013  0.1970  0.1750
   93MOL   C42448448   2.578   2.175   3.762  1.3353 -0.0616  0.0659
   93MOL   C42548449   2.546   2.298   3.702  0.8566  0.0633  0.1852
   93MOL   C42648450   2.512   2.405   3.784  0.6183 -0.1625 -0.0568
   93MOL   C42748451   2.577   2.313   4.126 -0.2706 -0.2556 -0.6599
   93MOL   C42848452   2.532   2.450   4.142  0.2105  0.4610 -0.3817
   93MOL   C42948453   2.527   2.500   4.275 -0.4920 -0.0109  0.0837
   93MOL   C43048454   2.560   2.417   4.385  0.0439  0.0801 -0.3620
   93MOL   C43148455   2.598   2.279   4.365 -0.1861  0.1391  0.0410
   93MOL   C43248456   2.614   2.231   4.237  0.0467  0.6531  0.1337
   93MOL   H43348457   2.642   2.679   3.943 -0.6827  0.7579 -2.1340
   93MOL   H43448458   2.601   2.744   4.095  1.2003 -0.4166 -0.7627
   93MOL   H43548459   2.408   2.641   3.895 -0.5119 -0.1322 -0.1712
   93MOL   H43648460   2.618   2.075   3.952 -1.3325  0.1560  0.7123
   93MOL   H43748461   2.616   2.090   3.707  0.6002 -0.5039  0.2246
   93MOL   H43848462   2.536   2.314   3.596  0.7456 -1.5505 -0.0566
   93MOL   H43948463   2.482   2.497   3.737  1.3575  0.0427 -0.1272
   93MOL   H44048464   2.485   2.597   4.297  1.9463  0.6630  1.8797
   93MOL   H44148465   2.553   2.452   4.486 -1.5734  0.8790 -0.7450
   93MOL   H44248466   2.609   2.216   4.452  2.3104  1.2048  0.5292
   93MOL   H44348467   2.642   2.131   4.209  1.1350  1.1322 -0.5526
   93MOL   C44448468   2.333   2.690   4.082  0.5300 -0.3681  0.6057
   93MOL   C44548469   2.221   2.581   4.110 -0.3529 -0.2605  0.4564
   93MOL   N44648470   2.122   2.645   4.190  0.2760 -0.2243  0.4643
   93MOL   C44748471   2.110   2.630   4.328  0.0921 -0.6814 -0.1340
   93MOL   C44848472   2.013   2.723   4.377 -0.7492 -0.9279  0.3538
   93MOL   C44948473   1.987   2.725   4.515  0.0952 -0.0784 -0.4207
   93MOL   C45048474   2.058   2.644   4.606 -0.5235  0.4793 -0.3765
   93MOL   C45148475   2.146   2.551   4.553  0.3277  0.4874  0.3721
   93MOL   C45248476   2.177   2.544   4.417 -0.3882 -0.0409 -0.0170
   93MOL   C45348477   1.963   2.794   4.266  0.3429 -0.1019  0.0656
   93MOL   C45448478   2.034   2.751   4.154 -0.3444  0.3119  0.4893
   93MOL   C45548479   2.012   2.811   4.023 -0.7812  0.4396 -0.3914
   93MOL   C45648480   1.912   2.912   4.005 -0.7107  0.3138 -0.2755
   93MOL   C45748481   1.838   2.948   4.118 -0.3832  0.3142  0.0501
   93MOL   C45848482   1.857   2.890   4.246  0.6683  0.6578 -0.1174
   93MOL   H45948483   2.369   2.730   4.177 -0.2756 -1.8963  1.5761
   93MOL   H46048484   2.282   2.773   4.033  2.5609 -0.4694 -1.7456
   93MOL   H46148485   2.271   2.496   4.157  1.8748  0.1455 -1.1160
   93MOL   H46248486   1.917   2.800   4.548  0.2217 -0.7207  1.3713
   93MOL   H46348487   2.040   2.657   4.711  0.1322 -0.7680 -0.1033
   93MOL   H46448488   2.213   2.500   4.620 -0.3762  0.6859  1.2324
   93MOL   H46548489   2.258   2.479   4.386 -2.9245 -1.5860 -3.6699
   93MOL   H46648490   2.058   2.768   3.936 -0.8260 -0.9853  0.2880
   93MOL   H46748491   1.889   2.956   3.909  2.6337  1.2045 -0.7088
   93MOL   H46848492   1.751   3.011   4.103  0.2733  1.2531  0.1612
   93MOL   H46948493   1.809   2.938   4.330 -0.0559  2.0537 -1.3004
   93MOL   C47048494   2.166   2.504   3.986  0.0708  0.0729  0.0408
   93MOL   C47148495   2.152   2.353   4.008 -0.2949 -0.0036  0.2938
   93MOL   N47248496   2.057   2.316   4.109 -0.0425 -0.7112 -0.3332
   93MOL   C47348497   2.091   2.264   4.237  0.1174 -0.3736 -0.0314
   93MOL   C47448498   1.968   2.269   4.315 -0.3916 -0.6864  0.6322
   93MOL   C47548499   1.975   2.231   4.451  0.4116 -0.2759 -0.5879
   93MOL   C47648500   2.091   2.175   4.516  0.1722 -0.1553 -0.2710
   93MOL   C47748501   2.205   2.175   4.434  0.6987 -0.1788  0.0918
   93MOL   C47848502   2.207   2.220   4.300 -0.5150 -0.3296 -0.4489
   93MOL   C47948503   1.859   2.313   4.234 -0.1270  0.0781 -0.1942
   93MOL   C48048504   1.916   2.338   4.105  0.0737 -0.2816 -0.5779
   93MOL   C48148505   1.834   2.381   3.997 -0.2076 -0.5430 -0.9713
   93MOL   C48248506   1.695   2.397   4.021  0.4650 -0.2331  0.0671
   93MOL   C48348507   1.640   2.372   4.146 -0.1729 -0.4400  0.2586
   93MOL   C48448508   1.719   2.331   4.252  0.2882  0.4797 -0.6169
   93MOL   H48548509   2.066   2.541   3.966  0.5419  1.2863 -0.1019
   93MOL   H48648510   2.227   2.526   3.899 -1.3893  0.2405 -0.9466
   93MOL   H48748511   2.251   2.323   4.043  1.1534  1.6584 -2.2259
   93MOL   H48848512   1.889   2.253   4.513  1.5398 -1.0270  1.3020
   93MOL   H48948513   2.091   2.143   4.619  0.7428 -1.8550 -0.7868
   93MOL   H49048514   2.300   2.135   4.469  0.0263 -1.4616  0.4852
   93MOL   H49148515   2.304   2.217   4.253 -1.6705 -0.5885 -2.8675
   93MOL   H49248516   1.881   2.416   3.906  1.7295  0.3632  0.3426
   93MOL   H49348517   1.625   2.428   3.944  0.2997  0.3576  0.4513
   93MOL   H49448518   1.535   2.392   4.160  0.1917  2.6908 -0.9641
   93MOL   H49548519   1.679   2.302   4.348  1.8859 -0.4715 -0.2354
   93MOL   C49648520   2.127   2.286   3.866 -0.2740 -0.0086  0.2766
   93MOL   C49748521   2.082   2.134   3.878 -0.1018  0.3535  0.7991
   93MOL   N49848522   2.048   2.085   3.749 -0.1787  0.2436  0.1849
   93MOL   C49948523   2.138   2.040   3.650 -0.0005  0.5762  0.1847
   93MOL   C50048524   2.065   1.990   3.537 -0.7387 -0.1893  0.0701
   93MOL   C50148525   2.137   1.940   3.424  0.0187 -0.0610 -0.9004
   93MOL   C50248526   2.278   1.937   3.425  0.5113 -0.6879 -0.2828
   93MOL   C50348527   2.353   1.981   3.537 -0.3543  0.3857  0.2681
   93MOL   C50448528   2.282   2.033   3.648 -0.0775  0.0212  0.6212
   93MOL   C50548529   1.928   2.024   3.564  0.5466 -0.0087  0.7394
   93MOL   C50648530   1.922   2.083   3.691  0.2539 -0.3502  0.4303
   93MOL   C50748531   1.798   2.113   3.750  0.0830 -0.1134  0.7585
   93MOL   C50848532   1.680   2.096   3.680 -0.2259  1.0310 -0.0610
   93MOL   C50948533   1.680   2.029   3.560  0.9141 -0.5685 -0.0872
   93MOL   C51048534   1.804   1.995   3.499 -0.3182  0.4383 -0.5437
   93MOL   H51148535   2.063   2.354   3.809 -0.4049  0.4869  1.0116
   93MOL   H51248536   2.222   2.279   3.814  1.3745 -0.5217  3.2551
   93MOL   H51348537   1.995   2.125   3.944  1.1457 -1.4868  2.2273
   93MOL   H51448538   2.076   1.915   3.339 -0.1285  0.3962 -0.9311
   93MOL   H51548539   2.336   1.894   3.345  1.2703 -1.0803  0.4693
   93MOL   H51648540   2.459   1.969   3.547 -0.0568  2.4897 -0.0920
   93MOL   H51748541   2.339   2.071   3.731  0.9046  0.0319 -0.0421
   93MOL   H51848542   1.796   2.153   3.850 -1.1295 -1.7236  1.3904
   93MOL   H51948543   1.591   2.121   3.737 -0.7435 -0.2647 -0.2869
   93MOL   H52048544   1.586   2.018   3.508 -0.2101  1.8976  1.3244
   93MOL   H52148545   1.794   1.945   3.404 -0.9973 -0.2483 -0.1139
   93MOL   H52248546   2.172   2.083   3.911 -0.5746 -1.0616 -0.0214
   94MOL     C148547   1.842   0.090   2.980 -0.3772 -0.3174 -1.0434
   94MOL     C248548   1.827   0.189   2.862 -0.0595  0.0882 -0.0998
   94MOL     N348549   1.897   0.153   2.738  0.6760 -0.7654  0.3517
   94MOL     C448550   2.014   0.212   2.693 -0.0543  0.3448  0.2858
   94MOL     C548551   2.050   0.166   2.561 -0.4096  0.2228 -0.3775
   94MOL     C648552   2.163   0.215   2.498  0.1951 -0.2506 -0.2128
   94MOL     C748553   2.230   0.320   2.556  0.2878  0.4019 -0.8170
   94MOL     C848554   2.196   0.366   2.680 -0.4162  0.2201 -0.5259
   94MOL     C948555   2.090   0.316   2.754 -0.0558  0.0757 -0.4416
   94MOL    C1048556   1.950   0.060   2.536  0.8710  0.8990 -0.1439
   94MOL    C1148557   1.857   0.061   2.646 -0.0985 -1.1847 -0.4911
   94MOL    C1248558   1.748   8.197   2.650  0.2096 -0.2289 -0.3358
   94MOL    C1348559   1.732   8.093   2.554 -0.3395 -0.1384 -0.0064
   94MOL    C1448560   1.818   8.097   2.444  0.0405 -0.2531  0.1637
   94MOL    C1548561   1.921   8.195   2.431  0.6856 -0.1396  0.5930
   94MOL    H1648562   1.788   8.226   2.956  0.7857 -0.5702 -2.8111
   94MOL    H1748563   1.803   0.127   3.075 -1.3894  0.7116 -1.8495
   94MOL    H1848564   1.875   0.282   2.894  0.3628 -0.5975  1.3282
   94MOL    H1948565   2.195   0.183   2.400 -0.9653  0.2418 -0.7633
   94MOL    H2048566   2.318   0.360   2.508 -0.7788  0.0803 -3.1639
   94MOL    H2148567   2.244   0.451   2.727  1.3613 -1.0993  0.0956
   94MOL    H2248568   2.055   0.367   2.843 -0.9037  2.0507 -1.8682
   94MOL    H2348569   1.676   8.202   2.731  1.6673 -1.9301  1.0960
   94MOL    H2448570   1.659   8.014   2.555 -0.8157  0.3083  0.3256
   94MOL    H2548571   1.804   8.026   2.363 -1.3791  0.8641 -0.6029
   94MOL    H2648572   1.979   8.200   2.340 -1.9614 -3.1923 -1.3669
   94MOL    H2748573   1.948   0.067   2.996 -0.4950  1.3740  2.7434
   94MOL    C2848574   1.683   0.224   2.834 -0.0016 -0.0196 -0.0284
   94MOL    C2948575   1.613   0.314   2.934  0.0231 -0.8276  0.0228
   94MOL    N3048576   1.686   0.435   2.973 -0.2055 -0.2541 -0.2519
   94MOL    C3148577   1.731   0.471   3.105 -0.6286  0.0920 -0.2362
   94MOL    C3248578   1.786   0.597   3.104  0.4688  0.3277  0.5516
   94MOL    C3348579   1.824   0.644   3.233 -1.4032 -0.5156 -0.6583
   94MOL    C3448580   1.806   0.572   3.350 -0.6350 -0.2901 -0.1456
   94MOL    C3548581   1.757   0.443   3.350  0.8654  0.2607  0.2980
   94MOL    C3648582   1.719   0.395   3.224 -0.6312  0.2769  0.6731
   94MOL    C3748583   1.787   0.634   2.962 -0.6606 -0.2265 -0.1681
   94MOL    C3848584   1.731   0.533   2.885  0.5029  0.3301 -0.6440
   94MOL    C3948585   1.720   0.553   2.743 -0.0881 -0.3519 -0.0757
   94MOL    C4048586   1.776   0.664   2.680 -0.0337  0.7713  0.3729
   94MOL    C4148587   1.838   0.762   2.757 -0.8269 -0.1314 -0.8691
   94MOL    C4248588   1.838   0.746   2.897 -0.2154 -0.2578  1.1236
   94MOL    H4348589   1.700   0.281   2.742 -0.9222 -1.1698 -0.9283
   94MOL    H4448590   1.612   0.145   2.810 -0.0720 -0.5463  1.8915
   94MOL    H4548591   1.592   0.266   3.029  0.6377 -1.2192 -0.0383
   94MOL    H4648592   1.876   0.739   3.237 -3.4200  0.6873 -2.4009
   94MOL    H4748593   1.852   0.600   3.444  0.0966 -2.6238  0.2454
   94MOL    H4848594   1.744   0.389   3.443 -0.1563 -0.4493 -0.2619
   94MOL    H4948595   1.677   0.296   3.221  0.2062 -0.1010  1.2708
   94MOL    H5048596   1.667   0.488   2.675  0.2466 -2.2300  1.4141
   94MOL    H5148597   1.774   0.658   2.572 -1.5716  0.2113  0.4169
   94MOL    H5248598   1.889   0.848   2.717 -1.4291  0.3077 -0.7063
   94MOL    H5348599   1.899   0.819   2.949  0.7414  1.1059 -1.7730
   94MOL    C5448600   1.472   0.367   2.887  0.2837 -0.5357 -0.5723
   94MOL    C5548601   1.341   0.287   2.912  0.3584  0.1557  0.7237
   94MOL    N5648602   1.331   0.219   3.040  0.8461  0.2806  0.1147
   94MOL    C5748603   1.276   0.093   3.056 -0.3818 -0.0464 -0.3132
   94MOL    C5848604   1.276   0.053   3.189  0.1942  0.1371  0.3885
   94MOL    C5948605   1.217   8.161   3.224  1.0566  0.2331  0.4154
   94MOL    C6048606   1.171   8.073   3.127 -0.3722 -0.1056 -0.3320
   94MOL    C6148607   1.193   8.107   2.994  0.6516 -0.3920  0.6062
   94MOL    C6248608   1.228   0.003   2.959 -0.3722 -1.0520  0.0088
   94MOL    C6348609   1.336   0.158   3.264  0.3995 -0.0692  0.0036
   94MOL    C6448610   1.363   0.262   3.169 -0.1323 -0.0501  0.1673
   94MOL    C6548611   1.416   0.388   3.215  0.0401  0.2606  0.4556
   94MOL    C6648612   1.434   0.407   3.358  0.6101  0.0483  0.0573
   94MOL    C6748613   1.402   0.301   3.449 -0.1723 -0.6392  0.6700
   94MOL    C6848614   1.364   0.176   3.401 -0.8953  0.0733 -0.1941
   94MOL    H6948615   1.452   0.468   2.924  0.9670  0.0471 -1.7618
   94MOL    H7048616   1.471   0.388   2.780  2.4817 -1.2129 -0.7487
   94MOL    H7148617   1.334   0.212   2.832  0.0549 -0.9106  1.7368
   94MOL    H7248618   1.221   8.117   3.323  0.3240 -0.5143  0.1205
   94MOL    H7348619   1.143   7.974   3.158  1.5993 -0.4789  0.2895
   94MOL    H7448620   1.165   8.036   2.918 -2.8382  2.2100 -0.6706
   94MOL    H7548621   1.232   0.032   2.855  0.2856 -0.4783  0.1904
   94MOL    H7648622   1.435   0.474   3.151  2.4712 -0.8909 -0.4358
   94MOL    H7748623   1.479   0.498   3.393  0.9073 -0.1786  0.2613
   94MOL    H7848624   1.410   0.313   3.556  0.5566  1.2968  0.4252
   94MOL    H7948625   1.337   0.094   3.466  0.1698 -0.7969 -0.8334
   94MOL    C8048626   1.216   0.370   2.900 -0.4447  0.0452  0.4036
   94MOL    C8148627   1.193   0.436   2.763  1.1480  0.0057  0.6168
   94MOL    N8248628   1.202   0.345   2.652 -0.8324  0.2762  0.4845
   94MOL    C8348629   1.294   0.358   2.546 -0.6186 -0.0090  0.6160
   94MOL    C8448630   1.283   0.249   2.461  0.3976  0.1701 -0.6761
   94MOL    C8548631   1.374   0.239   2.356 -0.2624 -0.4186 -0.3029
   94MOL    C8648632   1.482   0.327   2.335 -0.2863  0.3608 -0.5035
   94MOL    C8748633   1.491   0.439   2.424 -0.0334 -0.6421 -0.4942
   94MOL    C8848634   1.397   0.451   2.525 -0.9694  0.3478  0.0327
   94MOL    C8948635   1.167   0.176   2.504 -0.0856  0.0994 -0.7846
   94MOL    C9048636   1.124   0.238   2.621 -0.2834 -0.4476  0.2626
   94MOL    C9148637   1.013   0.186   2.689  0.0145  0.8992  0.2410
   94MOL    C9248638   0.947   0.072   2.638  0.3059 -0.0031 -0.3210
   94MOL    C9348639   0.995   0.011   2.523 -0.3445  0.4398 -0.1237
   94MOL    C9448640   1.104   0.061   2.451 -0.4986 -0.4150 -0.0701
   94MOL    H9548641   1.131   0.310   2.934  0.0115  0.1295  1.7154
   94MOL    H9648642   1.225   0.447   2.977  0.1268  2.6032 -2.1290
   94MOL    H9748643   1.272   0.508   2.741  0.9690 -0.4088 -1.5569
   94MOL    H9848644   1.367   0.160   2.282  1.2290  1.6494 -2.7182
   94MOL    H9948645   1.566   0.313   2.269  0.0052  0.6203 -0.1942
   94MOL   H10048646   1.567   0.513   2.405 -0.0275 -0.2980  0.8303
   94MOL   H10148647   1.405   0.534   2.593  0.7778  1.0003 -0.9469
   94MOL   H10248648   0.978   0.234   2.779 -0.5295  0.6414  0.1727
   94MOL   H10348649   0.881   0.023   2.708  0.5661  0.8599  0.5497
   94MOL   H10448650   0.958   8.140   2.494 -1.5189  1.3607 -1.8727
   94MOL   H10548651   1.132   0.018   2.357 -2.0464 -1.3840 -0.0891
   94MOL   C10648652   1.060   0.509   2.751  0.6815  0.3022 -0.4796
   94MOL   C10748653   1.063   0.642   2.843  0.1724  0.3372  0.1001
   94MOL   N10848654   1.162   0.743   2.801  0.2391  0.4125 -0.3011
   94MOL   C10948655   1.276   0.775   2.871  0.2047 -0.4269 -0.7771
   94MOL   C11048656   1.354   0.869   2.798 -0.4873  0.1611 -0.2411
   94MOL   C11148657   1.470   0.922   2.849  0.3020  0.3232 -0.6616
   94MOL   C11248658   1.520   0.871   2.974  0.1851  0.2361 -0.1648
   94MOL   C11348659   1.455   0.762   3.037  0.7593  0.0406 -0.2717
   94MOL   C11448660   1.328   0.726   2.996 -0.6578  0.2232  0.5682
   94MOL   C11548661   1.287   0.894   2.671  0.0788 -0.0831  0.1296
   94MOL   C11648662   1.178   0.802   2.674 -0.7119 -0.6497 -0.3235
   94MOL   C11748663   1.090   0.793   2.563  0.5904  0.3778 -0.8713
   94MOL   C11848664   1.119   0.869   2.447 -0.2563  1.4995 -0.6536
   94MOL   C11948665   1.223   0.959   2.450 -0.4280 -0.2104  0.2106
   94MOL   C12048666   1.306   0.976   2.561  0.0760 -0.6391 -0.3101
   94MOL   H12148667   1.029   0.531   2.648  0.3153 -0.9680 -0.6493
   94MOL   H12248668   0.992   0.440   2.801  1.6365  0.2863  0.8232
   94MOL   H12348669   1.076   0.623   2.950 -1.3743 -0.7425  0.1173
   94MOL   H12448670   1.514   0.997   2.785 -0.9026  1.3465 -0.2940
   94MOL   H12548671   1.612   0.910   3.016 -0.2765  0.8876  0.2606
   94MOL   H12648672   1.494   0.711   3.124 -2.2183  0.1564  1.2214
   94MOL   H12748673   1.264   0.661   3.053 -2.0431  0.7951 -0.3097
   94MOL   H12848674   1.010   0.721   2.560 -0.2631  1.2094  0.9197
   94MOL   H12948675   1.071   0.864   2.351 -1.0031  0.2753 -0.2202
   94MOL   H13048676   1.245   1.010   2.358  1.2382 -0.7434  0.2949
   94MOL   H13148677   1.394   1.039   2.556 -0.9025  0.6914 -1.2821
   94MOL   C13248678   0.923   0.707   2.845  0.4180 -0.0071 -0.0911
   94MOL   C13348679   0.825   0.623   2.933 -0.0761  0.4486 -0.1471
   94MOL   N13448680   0.867   0.619   3.075 -0.4409  0.3099 -0.0342
   94MOL   C13548681   0.911   0.506   3.143  0.1685 -0.7168 -0.7139
   94MOL   C13648682   0.935   0.547   3.279  0.5295  0.2790  0.8968
   94MOL   C13748683   0.982   0.453   3.373 -0.1726 -0.3863 -0.6078
   94MOL   C13848684   1.002   0.318   3.338  0.4148 -0.1329  0.6029
   94MOL   C13948685   0.984   0.283   3.199 -0.6994  0.0403  0.5009
   94MOL   C14048686   0.939   0.377   3.106 -0.3081 -0.8035 -0.8603
   94MOL   C14148687   0.897   0.685   3.285 -0.0757 -0.1068 -0.7031
   94MOL   C14248688   0.856   0.728   3.157  0.3424 -0.0321  0.0391
   94MOL   C14348689   0.827   0.862   3.135 -0.8066  0.1757  0.6735
   94MOL   C14448690   0.820   0.958   3.236  0.3580 -0.4193  0.3208
   94MOL   C14548691   0.854   0.913   3.365  0.0008  0.1076 -0.5040
   94MOL   C14648692   0.889   0.781   3.387  0.8881  0.0249 -1.1926
   94MOL   H14748693   0.916   0.810   2.880 -2.3257 -0.4456  0.8196
   94MOL   H14848694   0.881   0.710   2.745 -0.0101 -0.6894  0.0617
   94MOL   H14948695   0.831   0.523   2.891 -1.1057  0.6058 -0.6747
   94MOL   H15048696   0.997   0.495   3.471 -2.1539  0.2084 -0.5541
   94MOL   H15148697   1.043   0.242   3.405  3.5202  2.1012  1.3680
   94MOL   H15248698   0.990   0.184   3.159 -2.5427  0.1909 -0.2103
   94MOL   H15348699   0.911   0.343   3.007 -0.1326 -1.6112 -0.6328
   94MOL   H15448700   0.797   0.890   3.035 -1.5877  0.5302  0.9971
   94MOL   H15548701   0.790   1.060   3.220 -0.7087 -0.3330  2.7095
   94MOL   H15648702   0.843   0.987   3.443 -0.8538 -0.2684 -0.2599
   94MOL   H15748703   0.925   0.746   3.483  0.8739  0.7040 -0.9357
   94MOL   C15848704   0.681   0.660   2.924 -0.5151 -0.5051 -0.1837
   94MOL   C15948705   0.619   0.650   2.781  0.5194 -0.1676 -0.4442
   94MOL   N16048706   0.636   0.522   2.717  0.1477  0.5189 -0.4509
   94MOL   C16148707   0.711   0.498   2.597 -0.6054  0.4237  0.2270
   94MOL   C16248708   0.714   0.359   2.574  0.0327 -0.3719 -0.6889
   94MOL   C16348709   0.786   0.313   2.462  0.2520 -0.5061  0.3675
   94MOL   C16448710   0.850   0.403   2.376 -0.0349 -0.0335 -0.2710
   94MOL   C16548711   0.852   0.545   2.402  0.2404  0.0317 -0.1283
   94MOL   C16648712   0.780   0.590   2.511  0.3555 -0.3716  0.7644
   94MOL   C16748713   0.642   0.290   2.674 -0.6917 -0.1729 -0.2996
   94MOL   C16848714   0.586   0.396   2.758 -0.2590  0.5621 -0.1744
   94MOL   C16948715   0.497   0.356   2.863 -0.1522  0.3147  0.9679
   94MOL   C17048716   0.470   0.219   2.886 -0.0235 -0.0157 -0.4022
   94MOL   C17148717   0.523   0.121   2.803 -0.0983  0.9054 -0.3023
   94MOL   C17248718   0.618   0.158   2.711 -0.5522  0.8549  0.1508
   94MOL   H17348719   0.627   0.604   3.000 -0.4027 -1.5728 -0.8765
   94MOL   H17448720   0.670   0.760   2.966  2.9317 -1.3961  3.1123
   94MOL   H17548721   0.672   0.720   2.717 -0.2049  2.1113  1.3659
   94MOL   H17648722   0.781   0.207   2.442  0.2254 -0.3248 -0.5945
   94MOL   H17748723   0.897   0.355   2.291 -0.9075  2.5664 -2.2897
   94MOL   H17848724   0.897   0.617   2.334 -0.0216  0.6966  0.4042
   94MOL   H17948725   0.778   0.696   2.530  0.7221  0.1619 -1.9350
   94MOL   H18048726   0.446   0.431   2.921  0.1076 -0.7449  2.5809
   94MOL   H18148727   0.397   0.183   2.957 -1.8345  0.8466 -1.8115
   94MOL   H18248728   0.492   0.018   2.811  2.8518 -0.0259 -0.1284
   94MOL   H18348729   0.678   0.080   2.667 -0.5450  1.7141 -1.3983
   94MOL   C18448730   0.471   0.705   2.801 -0.0015 -0.2748 -0.3568
   94MOL   C18548731   0.455   0.860   2.783  0.6601  0.5326  0.4171
   94MOL   N18648732   0.532   0.916   2.675 -0.1087  0.1444 -0.0390
   94MOL   C18748733   0.653   0.991   2.687 -0.5109  0.4834 -0.7909
   94MOL   C18848734   0.724   0.988   2.567 -0.2038  0.7769  0.0787
   94MOL   C18948735   0.856   1.043   2.568 -0.0983 -0.0266  0.4313
   94MOL   C19048736   0.904   1.115   2.679  0.3771  0.4498  0.7616
   94MOL   C19148737   0.833   1.127   2.800  0.0496  0.4131  0.3567
   94MOL   C19248738   0.712   1.047   2.807 -0.5705  0.1826  0.5822
   94MOL   C19348739   0.646   0.915   2.471 -0.6394  0.5122 -0.4703
   94MOL   C19448740   0.522   0.881   2.540 -0.2389  0.1694  0.1792
   94MOL   C19548741   0.420   0.802   2.478 -0.0943 -0.1221 -0.0917
   94MOL   C19648742   0.441   0.758   2.345 -0.4417  0.2132  0.0829
   94MOL   C19748743   0.557   0.799   2.273 -0.4253 -0.5579  0.5999
   94MOL   C19848744   0.659   0.873   2.337  1.2079 -0.0683 -0.5404
   94MOL   H19948745   0.401   0.662   2.729 -1.6983 -0.3457  1.3309
   94MOL   H20048746   0.430   0.673   2.897  0.6917  0.4791  0.1981
   94MOL   H20148747   0.481   0.907   2.877  0.2142 -0.8821  1.2616
   94MOL   H20248748   0.910   1.036   2.475 -0.0292 -1.7655  0.5965
   94MOL   H20348749   1.003   1.157   2.664  0.2745  0.6322  0.5932
   94MOL   H20448750   0.894   1.177   2.873  0.2373  0.8093 -0.0709
   94MOL   H20548751   0.653   1.047   2.897  0.6295  1.7427  1.3892
   94MOL   H20648752   0.325   0.778   2.523  0.0829  0.0402  0.3691
   94MOL   H20748753   0.366   0.695   2.300  1.3266 -1.8743 -0.0015
   94MOL   H20848754   0.575   0.771   2.170  0.7824  2.7141 -0.1325
   94MOL   H20948755   0.753   0.902   2.293  2.0357 -1.4518  0.2924
   94MOL   C21048756   0.303   0.896   2.764 -0.9861  0.5209 -0.3262
   94MOL   C21148757   0.237   0.929   2.900 -0.8368  0.0822  0.3762
   94MOL   N21248758   0.282   1.058   2.953 -0.1432  0.0994  0.5096
   94MOL   C21348759   0.358   1.078   3.066  0.0665 -0.5665  0.5872
   94MOL   C21448760   0.390   1.216   3.082  0.1933  0.4919  0.1160
   94MOL   C21548761   0.479   1.254   3.188  0.3313  0.3358 -0.1825
   94MOL   C21648762   0.525   1.166   3.283  0.4234  0.5131 -0.5025
   94MOL   C21748763   0.501   1.028   3.265 -0.4517  0.0945  1.1415
   94MOL   C21848764   0.415   0.981   3.158  0.3173 -0.1531  0.1752
   94MOL   C21948765   0.323   1.287   2.976  0.1864 -0.3970 -0.1338
   94MOL   C22048766   0.250   1.188   2.904 -0.5277  1.3019  0.1732
   94MOL   C22148767   0.156   1.227   2.807 -0.4550  0.2405  0.3358
   94MOL   C22248768   0.151   1.366   2.767 -0.1535  0.0910  0.0401
   94MOL   C22348769   0.224   1.469   2.836  0.0357 -0.0413 -0.3441
   94MOL   C22448770   0.315   1.427   2.940 -0.0799  0.6574  0.2978
   94MOL   H22548771   0.291   0.990   2.712 -0.5002 -0.1526 -1.6822
   94MOL   H22648772   0.245   0.820   2.712 -2.7570  0.6382  1.4135
   94MOL   H22748773   0.273   0.856   2.974 -1.9637 -0.7124  0.1453
   94MOL   H22848774   0.510   1.357   3.205 -1.8601  0.7994  1.2429
   94MOL   H22948775   0.584   1.200   3.367 -1.4280  1.1752  0.5721
   94MOL   H23048776   0.539   0.962   3.342  0.5677 -2.1293 -1.1807
   94MOL   H23148777   0.386   0.878   3.149 -3.2427  0.7612  0.4380
   94MOL   H23248778   0.107   1.161   2.738 -0.3823  0.1017  0.4163
   94MOL   H23348779   0.076   1.392   2.694 -0.6663  1.6784  1.1189
   94MOL   H23448780   0.219   1.575   2.815 -2.7193  0.1256  0.8855
   94MOL   H23548781   0.376   1.497   2.994  1.3731 -0.2529 -0.1549
   94MOL   C23648782   0.080   0.915   2.908  0.0737  0.2578 -0.0498
   94MOL   C23748783   0.011   0.962   3.046 -0.3770 -0.6812  0.5166
   94MOL   N23848784   8.197   1.105   3.041  0.2990 -0.3749  0.2540
   94MOL   C23948785   0.007   1.202   3.128  0.1154  1.0091 -0.0218
   94MOL   C24048786   8.180   1.324   3.085  0.8004  0.8091 -0.4911
   94MOL   C24148787   8.220   1.445   3.146 -0.4669 -0.3812 -0.3330
   94MOL   C24248788   0.091   1.438   3.256  0.6796  0.2293  0.0614
   94MOL   C24348789   0.124   1.314   3.310  0.0279 -0.0580 -0.3197
   94MOL   C24448790   0.091   1.196   3.237 -0.9791  0.5657  0.4454
   94MOL   C24548791   8.094   1.296   2.972  0.0618  0.3273 -0.4406
   94MOL   C24648792   8.101   1.156   2.955 -0.3382  0.4454 -0.0660
   94MOL   C24748793   8.032   1.100   2.847  0.2838  0.4633 -0.0317
   94MOL   C24848794   7.942   1.174   2.764 -1.0593  0.1206  0.3698
   94MOL   C24948795   7.954   1.316   2.773  0.2939 -0.6968  0.1335
   94MOL   C25048796   8.026   1.375   2.879 -0.1514  0.6687  0.2362
   94MOL   H25148797   0.035   0.965   2.822 -0.6504 -1.3812 -0.6429
   94MOL   H25248798   0.051   0.810   2.898 -0.3380  0.3036  0.6311
   94MOL   H25348799   0.085   0.957   3.126 -1.0121 -2.9409  0.9947
   94MOL   H25448800   8.179   1.537   3.108 -0.6872  0.1179  1.1052
   94MOL   H25548801   0.127   1.527   3.305 -0.2688  0.9327 -0.4798
   94MOL   H25648802   0.182   1.316   3.401 -0.8763  0.9744  0.2483
   94MOL   H25748803   0.136   1.104   3.271  0.0808  0.4319 -1.3026
   94MOL   H25848804   8.063   1.001   2.817  1.2722  1.2058 -1.5424
   94MOL   H25948805   7.900   1.141   2.670  1.6991 -0.6144 -0.6388
   94MOL   H26048806   7.902   1.383   2.706 -1.1046 -0.4395  1.4363
   94MOL   H26148807   8.040   1.482   2.877 -1.8036  0.8923 -0.4214
   94MOL   C26248808   8.119   0.870   3.070 -0.0121 -0.0579  0.1509
   94MOL   C26348809   8.150   0.738   3.136 -0.0912 -0.5401  0.2478
   94MOL   N26448810   0.015   0.756   3.252 -0.0721  0.1886  0.3942
   94MOL   C26548811   0.136   0.683   3.261 -0.1576  0.3775  0.3368
   94MOL   C26648812   0.208   0.726   3.378  0.3278  0.2374  0.6361
   94MOL   C26748813   0.334   0.673   3.408 -0.4215 -0.4088  0.1838
   94MOL   C26848814   0.395   0.573   3.332 -0.4078  1.2738 -0.5950
   94MOL   C26948815   0.328   0.541   3.210  0.5974  0.6853  0.1673
   94MOL   C27048816   0.200   0.595   3.176  0.2298  0.2433  0.4293
   94MOL   C27148817   0.123   0.817   3.448  0.0005  0.3510 -0.0701
   94MOL   C27248818   0.008   0.836   3.369  0.4278  0.1173 -0.2992
   94MOL   C27348819   8.135   0.924   3.406 -0.3926  0.1237  0.4102
   94MOL   C27448820   8.144   0.987   3.528 -0.6878 -0.1637 -1.0499
   94MOL   C27548821   0.022   0.958   3.613  0.5859  0.0727 -0.9271
   94MOL   C27648822   0.132   0.884   3.573  0.0306  0.9880  0.0991
   94MOL   H27748823   8.049   0.923   3.134  0.5963  0.7353  0.1693
   94MOL   H27848824   8.062   0.844   2.980 -0.7062 -1.5773  1.0220
   94MOL   H27948825   8.208   0.681   3.064  0.8741 -0.4309  0.9306
   94MOL   H28048826   0.379   0.704   3.502  0.2458  1.7931 -0.8118
   94MOL   H28148827   0.488   0.527   3.360 -1.7436 -0.4880  1.0784
   94MOL   H28248828   0.380   0.466   3.152  1.7315  3.2429 -2.2075
   94MOL   H28348829   0.155   0.558   3.085 -1.4646  0.1664  1.2890
   94MOL   H28448830   8.053   0.944   3.338 -0.7836  1.3974  1.2250
   94MOL   H28548831   8.065   1.056   3.556  0.6846  1.5632 -1.3325
   94MOL   H28648832   0.032   1.013   3.705  0.0927 -1.3679  0.0121
   94MOL   H28748833   0.221   0.883   3.634 -0.5991 -1.8857  1.0337
   94MOL   C28848834   8.022   0.654   3.173  0.3153  0.3634 -0.2626
   94MOL   C28948835   7.940   0.600   3.050 -0.1056 -0.0207 -0.0625
   94MOL   N29048836   8.027   0.532   2.954  0.6461 -0.8653 -0.0462
   94MOL   C29148837   8.031   0.560   2.814 -0.0925  0.2322 -0.6222
   94MOL   C29248838   8.137   0.485   2.753 -0.4429  0.6985 -1.1609
   94MOL   C29348839   8.159   0.500   2.614 -0.3842 -0.0675 -0.4290
   94MOL   C29448840   8.072   0.581   2.535  0.1611  0.3703  0.2578
   94MOL   C29548841   7.963   0.648   2.597 -0.4332  0.5866  0.3090
   94MOL   C29648842   7.947   0.638   2.734  0.2312 -0.1356  0.1493
   94MOL   C29748843   8.191   0.405   2.860 -0.0643  0.6629  0.0866
   94MOL   C29848844   8.109   0.428   2.971 -0.6711  0.4657 -0.2391
   94MOL   C29948845   8.136   0.349   3.086  0.2401  0.1220 -0.2007
   94MOL   C30048846   0.003   0.245   3.087 -0.1710  0.0955 -0.5451
   94MOL   C30148847   0.083   0.224   2.974 -0.1483 -1.1281  0.2267
   94MOL   C30248848   0.064   0.305   2.857 -0.1889  0.4316 -0.3424
   94MOL   H30348849   8.053   0.567   3.231 -1.6034  0.7131  1.3581
   94MOL   H30448850   7.961   0.720   3.235  0.6463 -1.2782  1.8865
   94MOL   H30548851   7.903   0.692   3.004  0.1289  0.6480  1.0811
   94MOL   H30648852   0.014   0.444   2.573 -0.7164 -1.4468  0.7321
   94MOL   H30748853   8.094   0.611   2.434 -0.0428  0.9854  0.3908
   94MOL   H30848854   7.894   0.700   2.531  0.1495 -1.9407 -2.4157
   94MOL   H30948855   7.865   0.694   2.776  0.5428  2.6701 -2.7453
   94MOL   H31048856   8.069   0.352   3.170  0.5237 -0.3912  0.0452
   94MOL   H31148857   0.020   0.180   3.172  1.0886 -1.1468 -1.7088
   94MOL   H31248858   0.159   0.148   2.980  0.3093 -0.4966  2.5658
   94MOL   H31348859   0.127   0.305   2.769  0.9147 -2.5098  0.3748
   94MOL   C31448860   7.820   0.517   3.093  0.2010 -0.6050 -0.4019
   94MOL   C31548861   7.718   0.603   3.180  0.6130 -0.1954  1.0754
   94MOL   N31648862   7.699   0.735   3.133 -0.5891 -0.5302  0.1255
   94MOL   C31748863   7.719   0.846   3.209  0.0084  0.7083 -0.3758
   94MOL   C31848864   7.715   0.963   3.130  0.6048  0.6084  0.8200
   94MOL   C31948865   7.743   1.090   3.183 -0.4068 -0.3388  0.4186
   94MOL   C32048866   7.777   1.095   3.319  0.6469  1.3556 -0.5548
   94MOL   C32148867   7.773   0.982   3.402 -0.1371 -0.1084 -0.4746
   94MOL   C32248868   7.749   0.857   3.349 -0.3141  0.3311 -0.1945
   94MOL   C32348869   7.681   0.918   2.998 -0.2527 -0.3184 -0.1492
   94MOL   C32448870   7.653   0.782   3.004  0.4000  0.1920 -0.1337
   94MOL   C32548871   7.602   0.716   2.892 -0.3286  0.6634 -0.1816
   94MOL   C32648872   7.583   0.786   2.774  0.0356 -0.1272 -0.7523
   94MOL   C32748873   7.620   0.920   2.761 -0.5939 -0.6150 -0.3120
   94MOL   C32848874   7.678   0.984   2.876  0.3333  0.0085 -0.0260
   94MOL   H32948875   7.770   0.478   3.004 -0.9111  0.6921 -0.3709
   94MOL   H33048876   7.857   0.435   3.154  1.3335 -2.1001 -3.0542
   94MOL   H33148877   7.759   0.612   3.280 -1.4918 -0.0670  1.9467
   94MOL   H33248878   7.758   1.174   3.117 -0.9249  0.5660  1.4593
   94MOL   H33348879   7.801   1.195   3.352  1.0422  1.0155  0.2036
   94MOL   H33448880   7.800   0.984   3.506 -1.9517  0.2824  0.0145
   94MOL   H33548881   7.757   0.766   3.408 -1.0848  0.6989  0.4812
   94MOL   H33648882   7.594   0.608   2.887  1.2017  0.5930 -1.4455
   94MOL   H33748883   7.537   0.746   2.684 -1.1963  0.7292 -0.5128
   94MOL   H33848884   7.594   0.971   2.670  0.4949  0.3299 -0.1019
   94MOL   H33948885   7.696   1.090   2.872  1.0179 -0.1557 -1.5075
   94MOL   C34048886   7.582   0.526   3.198  0.1865  0.2699 -0.2029
   94MOL   C34148887   7.598   0.392   3.274 -0.1755  0.0881  1.0278
   94MOL   N34248888   7.683   0.406   3.390  0.6419 -0.6555 -0.0270
   94MOL   C34348889   7.800   0.330   3.414 -0.5605  0.2386 -0.6185
   94MOL   C34448890   7.863   0.375   3.537 -0.0029 -0.2032  0.2238
   94MOL   C34548891   7.985   0.317   3.571  0.1315  0.2526  0.3543
   94MOL   C34648892   8.044   0.213   3.499  0.4940 -0.0604  0.2633
   94MOL   C34748893   7.980   0.163   3.385 -0.8528 -0.4447 -0.6447
   94MOL   C34848894   7.861   0.223   3.338 -0.6587  0.2091 -0.1874
   94MOL   C34948895   7.773   0.471   3.597 -0.3372 -1.2495 -0.4404
   94MOL   C35048896   7.666   0.487   3.503 -1.1096 -0.4983 -0.1546
   94MOL   C35148897   7.562   0.577   3.537  0.0046 -0.2677  0.0849
   94MOL   C35248898   7.563   0.644   3.660 -0.1566  0.5868  0.0905
   94MOL   C35348899   7.669   0.625   3.751 -0.1547 -0.6149  0.0697
   94MOL   C35448900   7.775   0.541   3.718 -0.4199 -0.8248 -0.0486
   94MOL   H35548901   7.511   0.590   3.250 -0.2914 -0.5416  0.1520
   94MOL   H35648902   7.533   0.515   3.101 -0.3198  0.5482  0.0203
   94MOL   H35748903   7.646   0.316   3.213  0.9969 -0.5849  2.7436
   94MOL   H35848904   8.027   0.352   3.665 -1.5884 -0.4162  1.3911
   94MOL   H35948905   8.127   0.159   3.542 -0.5123 -1.6418  0.3009
   94MOL   H36048906   8.012   0.078   3.325 -1.8647 -0.3368 -1.3614
   94MOL   H36148907   7.826   0.182   3.244  1.7872 -3.4550  0.3907
   94MOL   H36248908   7.491   0.589   3.456  1.3028 -0.4425 -1.0979
   94MOL   H36348909   7.491   0.722   3.679  0.8199  1.7143 -0.8313
   94MOL   H36448910   7.663   0.675   3.846 -0.7358  2.6405 -1.5913
   94MOL   H36548911   7.856   0.521   3.787 -0.1997 -2.3610 -0.7346
   94MOL   C36648912   7.459   0.338   3.314  0.7872  0.1820 -0.1959
   94MOL   C36748913   7.363   0.300   3.196 -0.0499 -0.2081 -0.6074
   94MOL   N36848914   7.432   0.224   3.088 -0.4793  0.2294  0.5221
   94MOL   C36948915   7.435   0.261   2.957 -0.6904 -0.3024 -0.1372
   94MOL   C37048916   7.506   0.162   2.886  0.6184  0.3038 -0.3540
   94MOL   C37148917   7.522   0.174   2.747  0.1291 -0.1168  0.4304
   94MOL   C37248918   7.478   0.287   2.681  0.1516  0.2559  0.5019
   94MOL   C37348919   7.400   0.384   2.755 -0.5200  0.1651  0.7242
   94MOL   C37448920   7.378   0.373   2.889 -0.1310  0.5806 -0.5736
   94MOL   C37548921   7.542   0.054   2.976 -0.9589 -0.5961  0.8412
   94MOL   C37648922   7.498   0.100   3.103  0.3584  0.1482  0.0633
   94MOL   C37748923   7.511   0.014   3.212  0.1923  0.4021  0.6378
   94MOL   C37848924   7.572   8.113   3.204  0.4621 -0.0003  0.6657
   94MOL   C37948925   7.622   8.074   3.077  0.6146 -0.8548  0.1018
   94MOL   C38048926   7.608   8.158   2.966  0.8583 -0.2398 -0.3996
   94MOL   H38148927   7.475   0.247   3.371 -1.4257 -0.6518 -0.8428
   94MOL   H38248928   7.409   0.396   3.391  0.7738 -0.2098  0.0911
   94MOL   H38348929   7.321   0.389   3.149  0.0238 -0.1594 -0.5821
   94MOL   H38448930   7.559   0.090   2.690  0.1684 -0.0107  0.2996
   94MOL   H38548931   7.481   0.297   2.574 -1.2188 -0.5558  0.3727
   94MOL   H38648932   7.354   0.469   2.706  1.4488 -0.1439 -1.7656
   94MOL   H38748933   7.307   0.437   2.940 -0.9137 -1.4370  0.9265
   94MOL   H38848934   7.464   0.036   3.306  0.0009 -1.7163  1.0688
   94MOL   H38948935   7.593   8.051   3.290  1.4444 -2.1271 -1.0497
   94MOL   H39048936   7.671   7.977   3.072 -1.5453 -1.9100 -1.6194
   94MOL   H39148937   7.638   8.129   2.866 -1.6458 -0.7796 -1.0458
   94MOL   C39248938   7.240   0.231   3.260  0.9379  0.7247 -0.1031
   94MOL   C39348939   7.154   0.156   3.162  0.0265 -0.3536 -0.2620
   94MOL   N39448940   7.070   0.065   3.242 -0.4675 -0.4298  0.4630
   94MOL   C39548941   7.108   8.154   3.257  0.9444 -0.5065  0.2578
   94MOL   C39648942   7.013   8.088   3.338 -0.1395  0.3870  0.2690
   94MOL   C39748943   7.027   7.949   3.351  0.0360 -0.2760  0.2717
   94MOL   C39848944   7.133   7.875   3.302 -0.7113 -0.5022  0.4233
   94MOL   C39948945   7.232   7.950   3.233 -0.2459  0.6461  0.0634
   94MOL   C40048946   7.220   8.086   3.211 -0.4262  0.1902 -0.3538
   94MOL   C40148947   6.911   8.184   3.370 -0.8305 -0.1656 -0.4795
   94MOL   C40248948   6.957   0.087   3.320  0.4656  0.6801  0.5470
   94MOL   C40348949   6.880   0.204   3.345  0.8075 -0.0750 -0.6790
   94MOL   C40448950   6.754   0.188   3.403 -0.4122  0.3747  0.5492
   94MOL   C40548951   6.718   0.065   3.459  0.5059  0.4049 -0.6416
   94MOL   C40648952   6.793   8.177   3.440 -0.2731 -0.3023  0.0384
   94MOL   H40748953   7.269   0.147   3.323 -0.0269 -0.5828 -1.3626
   94MOL   H40848954   7.187   0.298   3.327 -1.9264 -0.7544 -0.8019
   94MOL   H40948955   7.205   0.098   3.086  2.6149 -0.4267  1.4702
   94MOL   H41048956   6.942   7.902   3.398 -1.2074  0.9009 -0.7572
   94MOL   H41148957   7.131   7.767   3.312 -1.5728 -0.5891 -0.6242
   94MOL   H41248958   7.310   7.903   3.174 -0.4937  1.9137 -1.2810
   94MOL   H41348959   7.285   8.127   3.135  0.5956 -1.5194 -0.4494
   94MOL   H41448960   6.914   0.300   3.308 -3.0616  0.4743 -3.0417
   94MOL   H41548961   6.680   0.267   3.407 -0.5232  0.3932 -1.4749
   94MOL   H41648962   6.625   0.059   3.513  0.3724 -2.9992 -1.0855
   94MOL   H41748963   6.765   8.079   3.477  2.7650 -1.0006  0.6357
   94MOL   C41848964   7.079   0.244   3.062  0.1121  0.0268  0.3356
   94MOL   C41948965   6.952   0.182   3.000 -0.5843  0.2917 -0.1232
   94MOL   N42048966   6.879   0.277   2.919  0.4691 -0.1893 -0.4995
   94MOL   C42148967   6.750   0.312   2.940  0.5861  0.2498  0.2189
   94MOL   C42248968   6.705   0.401   2.835 -0.2416  0.2623  0.4759
   94MOL   C42348969   6.577   0.449   2.844 -0.2644  0.7706 -0.3377
   94MOL   C42448970   6.492   0.422   2.957 -0.0143  0.5738 -0.0671
   94MOL   C42548971   6.540   0.338   3.058  0.1417  0.5319  0.6238
   94MOL   C42648972   6.667   0.280   3.050 -0.3199  0.0740 -0.2291
   94MOL   C42748973   6.818   0.408   2.745  0.2126 -0.2878 -0.2171
   94MOL   C42848974   6.923   0.327   2.799  0.3303 -0.4272  0.5530
   94MOL   C42948975   7.039   0.306   2.724  0.9795 -0.2612  0.6807
   94MOL   C43048976   7.060   0.371   2.602  0.8074  0.3844  0.9941
   94MOL   C43148977   6.962   0.459   2.550  0.3344 -0.7195 -0.5971
   94MOL   C43248978   6.839   0.475   2.617  0.3526  0.4817  0.6274
   94MOL   H43348979   7.052   0.338   3.110 -2.5665 -0.9059  0.7576
   94MOL   H43448980   7.143   0.268   2.976  0.5332  1.0549  0.9322
   94MOL   H43548981   6.894   0.158   3.089  1.5640  2.1475  1.8476
   94MOL   H43648982   6.539   0.505   2.760 -1.3444  0.4743 -0.0483
   94MOL   H43748983   6.390   0.457   2.967 -0.0554  1.3511 -2.8954
   94MOL   H43848984   6.475   0.316   3.142 -2.7898  2.0363 -1.1743
   94MOL   H43948985   6.697   0.216   3.132  1.9609  2.0129  0.4932
   94MOL   H44048986   7.118   0.239   2.754  0.8290 -0.1179  1.4150
   94MOL   H44148987   7.153   0.359   2.549  1.1315 -0.1467  1.6655
   94MOL   H44248988   6.963   0.515   2.458  0.9495 -0.5908 -0.5117
   94MOL   H44348989   6.763   0.544   2.583  1.7959  1.3297 -0.9370
   94MOL   C44448990   6.987   0.050   2.923  0.5056 -0.1613  0.3233
   94MOL   C44548991   6.865   8.190   2.874 -1.3435  0.0621  0.7435
   94MOL   N44648992   6.908   8.080   2.783  0.0850  0.4908  0.4900
   94MOL   C44748993   6.893   8.079   2.641  0.7058 -0.4752  0.3646
   94MOL   C44848994   6.944   7.952   2.594 -0.0749 -0.2806 -0.3084
   94MOL   C44948995   6.939   7.927   2.453  0.1773 -0.0377 -0.0524
   94MOL   C45048996   6.869   8.021   2.368 -0.3934  0.4231 -0.4817
   94MOL   C45148997   6.810   8.138   2.419 -0.1225  0.2541  0.1124
   94MOL   C45248998   6.835   8.173   2.552  0.2646 -0.2512  0.3700
   94MOL   C45348999   7.001   7.886   2.705 -0.3789  0.1629  0.1979
   94MOL   C45449000   6.970   7.965   2.823 -0.6192 -0.3476 -0.0981
   94MOL   C45549001   7.006   7.913   2.954  0.6976  0.5068 -0.3758
   94MOL   C45649002   7.053   7.781   2.965 -0.1546 -0.2969  0.3996
   94MOL   C45749003   7.087   7.705   2.850  1.0298 -0.4487 -0.1287
   94MOL   C45849004   7.067   7.762   2.721  0.2927 -0.2219  0.1509
   94MOL   H45949005   7.048   0.074   2.835  1.0403  0.2111  0.7906
   94MOL   H46049006   7.057   8.211   2.975  1.2938 -0.9547 -1.6974
   94MOL   H46149007   6.801   0.030   2.817 -0.9565  0.8920  1.2843
   94MOL   H46249008   6.982   7.835   2.418 -0.7279 -1.4734  2.4666
   94MOL   H46349009   6.861   7.997   2.263 -1.8634 -2.9198  0.3305
   94MOL   H46449010   6.751   8.204   2.356 -0.6593  0.1336  0.4916
   94MOL   H46549011   6.792   0.038   2.588  0.8622 -0.3058  1.2280
   94MOL   H46649012   6.983   7.962   3.047 -1.8609 -1.8081  0.2673
   94MOL   H46749013   7.069   7.739   3.063  0.3443 -0.0317  0.4325
   94MOL   H46849014   7.111   7.600   2.848  2.3342 -0.1602 -0.0466
   94MOL   H46949015   7.075   7.700   2.632 -4.0174 -1.7935  0.7553
   94MOL   C47049016   6.775   8.139   2.990  0.4490  0.3846 -0.2348
   94MOL   C47149017   6.655   8.039   2.979  0.9225  0.2485  0.7882
   94MOL   N47249018   6.608   7.997   3.117 -0.0219 -0.4526  0.6648
   94MOL   C47349019   6.638   7.880   3.183  0.3604 -0.7348 -0.7190
   94MOL   C47449020   6.580   7.882   3.318 -0.1522 -0.0779 -0.8397
   94MOL   C47549021   6.605   7.773   3.406  0.0088  0.0414 -0.1782
   94MOL   C47649022   6.680   7.660   3.360  0.7206 -1.0508 -0.0436
   94MOL   C47749023   6.727   7.653   3.229  0.1311  0.8165  0.0228
   94MOL   C47849024   6.716   7.768   3.147  0.0939  0.2809  0.0438
   94MOL   C47949025   6.516   8.010   3.333 -0.1074 -0.4916  0.4400
   94MOL   C48049026   6.544   8.076   3.208  0.0121  0.0470 -0.2066
   94MOL   C48149027   6.517   8.213   3.203  0.0299  0.2888  0.2604
   94MOL   C48249028   6.455   0.052   3.308  0.2556  0.2797  0.1038
   94MOL   C48349029   6.403   8.212   3.416  0.1005 -0.6469  0.1698
   94MOL   C48449030   6.439   8.077   3.432 -0.0177  0.4772  0.1356
   94MOL   H48549031   6.843   8.098   3.064  0.8758  0.8682 -0.3595
   94MOL   H48649032   6.736   0.005   3.032 -1.2176 -0.6613  0.6234
   94MOL   H48749033   6.694   7.946   2.936 -0.2266 -0.4442  1.2097
   94MOL   H48849034   6.564   7.782   3.505  0.2516 -3.2116  0.2974
   94MOL   H48949035   6.693   7.573   3.422 -0.0669 -2.1882 -1.4558
   94MOL   H49049036   6.794   7.575   3.198  1.8258  2.1502  0.2303
   94MOL   H49149037   6.770   7.775   3.054  0.5908 -1.0539  0.2178
   94MOL   H49249038   6.549   0.048   3.120 -0.0694 -0.5273 -0.3997
   94MOL   H49349039   6.421   0.155   3.302 -1.4854 -0.2478  0.6326
   94MOL   H49449040   6.335   0.030   3.488 -1.3275 -1.0773 -0.8833
   94MOL   H49549041   6.408   8.028   3.523 -0.3079 -1.4274 -0.9616
   94MOL   C49649042   6.539   8.080   2.893  0.5284 -0.0961  0.3712
   94MOL   C49749043   6.544   8.049   2.742 -0.3701  0.1078  0.1205
   94MOL   N49849044   6.432   8.106   2.672 -0.0475  0.2636 -0.1043
   94MOL   C49949045   6.306   8.051   2.657 -0.0129 -0.1941 -0.6331
   94MOL   C50049046   6.218   8.146   2.599  0.5700  0.1191  0.1792
   94MOL   C50149047   6.085   8.105   2.574 -0.2039 -0.1947  0.1618
   94MOL   C50249048   6.037   7.979   2.616 -0.8919  0.4727  0.7306
   94MOL   C50349049   6.121   7.890   2.682 -0.9125  0.2313 -0.2394
   94MOL   C50449050   6.255   7.930   2.704 -0.0756  0.5874 -0.6007
   94MOL   C50549051   6.299   0.036   2.569 -0.5753 -0.6628 -0.5100
   94MOL   C50649052   6.426   0.008   2.621  0.4915 -0.5290 -0.2608
   94MOL   C50749053   6.522   0.111   2.634  0.0697  0.1534 -0.0446
   94MOL   C50849054   6.498   0.242   2.587  0.5000 -0.7450 -0.1371
   94MOL   C50949055   6.375   0.266   2.525  0.1646 -0.5410  0.1728
   94MOL   C51049056   6.273   0.169   2.521  0.1978 -0.3747 -0.1751
   94MOL   H51149057   6.452   8.036   2.942  2.2082 -3.2132  0.7111
   94MOL   H51249058   6.512   8.185   2.903  0.7124 -0.1408  1.3955
   94MOL   H51349059   6.538   7.942   2.727 -1.5915 -0.1573  2.2408
   94MOL   H51449060   6.023   8.184   2.536 -0.3657 -0.2451  0.3197
   94MOL   H51549061   5.931   7.964   2.602 -0.8432  0.0803  0.7705
   94MOL   H51649062   6.089   7.794   2.721 -0.7030  0.3404  0.2060
   94MOL   H51749063   6.309   7.854   2.759 -0.4935  1.0143  0.4145
   94MOL   H51849064   6.617   0.090   2.680  0.2016  0.7358 -0.0438
   94MOL   H51949065   6.574   0.318   2.584  0.0392 -0.2719  0.2019
   94MOL   H52049066   6.368   0.359   2.472  0.8224 -0.7191 -0.2284
   94MOL   H52149067   6.179   0.197   2.475  1.4605  0.4971 -2.2582
   94MOL   H52249068   6.638   8.077   2.695  0.6358 -0.3280  1.8100
   95MOL     C149069   2.845   1.822   8.028  0.0512  0.4707 -0.5107
   95MOL     C249070   2.812   1.685   7.965 -0.2656  0.0379  0.1274
   95MOL     N349071   2.745   1.594   8.068 -0.4129  0.0268  0.0118
   95MOL     C449072   2.799   1.477   8.130 -0.1257  0.1589  0.6691
   95MOL     C549073   2.704   1.424   8.219 -0.4610  0.1195  0.3751
   95MOL     C649074   2.738   1.308   0.064  0.0436  0.4716  0.6338
   95MOL     C749075   2.862   1.249   0.043 -0.0590 -0.3724  0.4305
   95MOL     C849076   2.958   1.312   8.190 -0.5110 -0.0782  0.0117
   95MOL     C949077   2.924   1.419   8.113  1.1020 -0.0563  1.1357
   95MOL    C1049078   2.588   1.514   8.216 -0.0397 -0.8279 -0.6173
   95MOL    C1149079   2.617   1.619   8.122 -0.2488 -0.2163  0.1055
   95MOL    C1249080   2.524   1.721   8.097 -0.0310  0.4202 -0.0641
   95MOL    C1349081   2.405   1.727   8.170 -0.3954  0.1948 -0.2790
   95MOL    C1449082   2.374   1.638   0.045  1.0599 -0.3620  0.5895
   95MOL    C1549083   2.462   1.527   0.059  0.2922 -0.3926  0.3249
   95MOL    H1649084   2.819   1.832   8.133 -0.0932  0.1557 -0.5151
   95MOL    H1749085   2.781   1.898   7.983  1.2826  3.0906  2.0007
   95MOL    H1849086   2.909   1.638   7.957 -0.2406 -0.0629  0.9571
   95MOL    H1949087   2.670   1.256   0.130 -0.2805  0.4397  0.2759
   95MOL    H2049088   2.899   1.166   0.103 -0.0716 -1.0157 -0.4424
   95MOL    H2149089   3.055   1.266   8.179 -1.2642 -1.4390 -1.0237
   95MOL    H2249090   3.001   1.457   8.047  2.4255 -0.7798  2.2251
   95MOL    H2349091   2.542   1.807   8.034 -2.0841  1.1081  0.2424
   95MOL    H2449092   2.337   1.810   8.158  0.7542  1.0624 -0.8482
   95MOL    H2549093   2.286   1.657   0.106 -0.7122 -1.6752 -1.4820
   95MOL    H2649094   2.436   1.449   0.130  1.3066  0.3906  1.5869
   95MOL    H2749095   2.946   1.857   8.008  0.0554 -0.2451 -1.8455
   95MOL    C2849096   2.740   1.688   7.827  0.6713  0.0097  0.4219
   95MOL    C2949097   2.813   1.767   7.710 -1.5165  0.1728  0.3452
   95MOL    N3049098   2.961   1.751   7.709  0.1102  0.1830  0.0738
   95MOL    C3149099   3.060   1.848   7.691  0.1672 -0.4296 -0.3308
   95MOL    C3249100   3.184   1.785   7.696 -0.4226 -0.5401 -0.4063
   95MOL    C3349101   3.296   1.871   7.686 -0.2501  0.1533 -0.3651
   95MOL    C3449102   3.287   2.010   7.657 -0.4795 -0.7776  0.0543
   95MOL    C3549103   3.160   2.072   7.649  0.7327  0.6626 -0.4973
   95MOL    C3649104   3.045   1.991   7.678  0.3842 -0.0010  0.5633
   95MOL    C3749105   3.165   1.643   7.706  0.1921  0.6036 -0.2321
   95MOL    C3849106   3.023   1.627   7.706 -0.3331 -0.1301 -0.1409
   95MOL    C3949107   2.964   1.495   7.713 -0.3481  0.2811 -0.5924
   95MOL    C4049108   3.048   1.388   7.731  0.4845  0.4530  0.4959
   95MOL    C4149109   3.189   1.400   7.728  0.3474 -0.2610  0.9189
   95MOL    C4249110   3.244   1.525   7.700  0.0469  0.6785 -0.1473
   95MOL    H4349111   2.719   1.588   7.789 -0.6287  0.0722  0.9381
   95MOL    H4449112   2.645   1.738   7.843  0.9535  0.2018  1.5183
   95MOL    H4549113   2.790   1.869   7.741 -0.3076  0.1164  1.4886
   95MOL    H4649114   3.393   1.825   7.697 -1.2242 -1.9196 -0.4024
   95MOL    H4749115   3.375   2.070   7.639 -0.2536 -1.4858 -1.1841
   95MOL    H4849116   3.152   2.179   7.656  1.6213  0.8482 -2.0926
   95MOL    H4949117   2.950   2.042   7.683  0.1121 -0.4136 -0.2670
   95MOL    H5049118   2.858   1.475   7.717 -0.3161  0.4702  2.1062
   95MOL    H5149119   3.007   1.289   7.747 -0.0499  0.9521  2.2874
   95MOL    H5249120   3.244   1.308   7.745 -1.7952 -1.5467  1.1250
   95MOL    H5349121   3.351   1.520   7.705  0.0583 -0.1945 -1.1446
   95MOL    C5449122   2.762   1.743   7.570 -0.0954 -0.2512  0.6301
   95MOL    C5549123   2.613   1.784   7.551  0.9552  1.3522 -0.0228
   95MOL    N5649124   2.571   1.905   7.621  0.1202 -0.1106  0.3446
   95MOL    C5749125   2.471   1.913   7.716 -0.1747  0.2851  0.0499
   95MOL    C5849126   2.468   2.046   7.763 -0.2488 -0.2246  0.4819
   95MOL    C5949127   2.364   2.088   7.849  0.0419 -0.2567 -0.3612
   95MOL    C6049128   2.278   1.993   7.893 -0.2163 -0.3778 -0.3903
   95MOL    C6149129   2.283   1.859   7.849 -0.1215  1.2311  0.6474
   95MOL    C6249130   2.386   1.815   7.768 -0.0487  0.2500  0.1539
   95MOL    C6349131   2.563   2.126   7.699 -0.5545 -0.4704  0.5176
   95MOL    C6449132   2.625   2.040   7.607  0.1237 -0.1203  0.2454
   95MOL    C6549133   2.736   2.087   7.530  0.4318  0.0604  0.2229
   95MOL    C6649134   2.774   2.216   7.543  0.1375 -0.4284  0.0963
   95MOL    C6749135   2.703   2.307   7.618  0.2146 -0.7743  0.3204
   95MOL    C6849136   2.597   2.266   7.701  0.2492  0.5519  0.5630
   95MOL    H6949137   2.832   1.800   7.509  3.0630 -3.6154  0.9895
   95MOL    H7049138   2.768   1.636   7.551  0.0809 -0.2513  0.6881
   95MOL    H7149139   2.549   1.703   7.587  0.2264  0.9461 -2.1417
   95MOL    H7249140   2.349   2.192   7.872 -1.5341  0.1153 -2.7860
   95MOL    H7349141   2.207   2.021   7.969 -0.5696 -1.6004 -0.2670
   95MOL    H7449142   2.207   1.787   7.878  0.3318 -0.2465 -1.7130
   95MOL    H7549143   2.383   1.718   7.721  1.3365  0.7110 -0.9219
   95MOL    H7649144   2.800   2.021   7.474  1.6561 -0.3728  2.0956
   95MOL    H7749145   2.850   2.253   7.477  0.2431  0.6644  0.8192
   95MOL    H7849146   2.720   2.413   7.619  0.0676 -0.7475  1.4153
   95MOL    H7949147   2.543   2.320   7.778  0.2169  1.0496  0.1923
   95MOL    C8049148   2.591   1.795   7.394  0.3936  0.2371  0.8728
   95MOL    C8149149   2.449   1.761   7.341 -0.1683 -0.4924  0.6798
   95MOL    N8249150   2.338   1.844   7.402  0.2417  0.3678 -0.3660
   95MOL    C8349151   2.237   1.794   7.485 -0.3422  0.3682 -0.0153
   95MOL    C8449152   2.151   1.907   7.526  0.2997  0.0906 -0.0581
   95MOL    C8549153   2.034   1.885   7.598  0.6409  0.9138  0.3029
   95MOL    C8649154   1.999   1.755   7.635  0.1540  0.3111 -0.0561
   95MOL    C8749155   2.086   1.645   7.607 -0.4827 -0.2132  0.5444
   95MOL    C8849156   2.208   1.661   7.527  0.1950  0.0111 -0.1533
   95MOL    C8949157   2.212   2.024   7.478 -0.5692 -0.0666  0.2711
   95MOL    C9049158   2.325   1.982   7.401  0.0268  0.0292  0.5289
   95MOL    C9149159   2.407   2.065   7.334  0.5696  0.7135  0.1054
   95MOL    C9249160   2.383   2.202   7.335  0.1226  0.1977  0.3011
   95MOL    C9349161   2.272   2.254   7.396  0.0562 -0.7070  0.4964
   95MOL    C9449162   2.191   2.165   7.472 -0.1965 -0.3223  0.1050
   95MOL    H9549163   2.627   1.894   7.365 -2.2490  0.6050 -1.3772
   95MOL    H9649164   2.668   1.733   7.348 -0.0958  0.5901 -0.4217
   95MOL    H9749165   2.438   1.660   7.380  3.1452 -0.8330  0.8133
   95MOL    H9849166   1.963   1.965   7.616 -1.3079 -0.6550 -0.2057
   95MOL    H9949167   1.919   1.743   7.706 -0.0254  1.4319 -0.0588
   95MOL   H10049168   2.056   1.547   7.641 -0.6230 -0.5329 -0.4841
   95MOL   H10149169   2.263   1.573   7.497  1.7964  0.0922  2.3938
   95MOL   H10249170   2.508   2.041   7.302  0.2683 -2.0086  1.0544
   95MOL   H10349171   2.455   2.265   7.285 -0.1276  0.7721  0.6631
   95MOL   H10449172   2.251   2.360   7.384  0.5663 -0.4977  1.4578
   95MOL   H10549173   2.092   2.195   7.501  0.5738  0.4818  1.9974
   95MOL   C10649174   2.435   1.758   7.192 -0.2880  0.4528 -0.8767
   95MOL   C10749175   2.502   1.637   7.115 -0.4586 -0.0857  0.4745
   95MOL   N10849176   2.398   1.525   7.103  0.2893  0.3952 -0.0670
   95MOL   C10949177   2.396   1.409   7.175 -0.4594  0.1710 -0.1371
   95MOL   C11049178   2.283   1.331   7.132  0.6120  0.0115 -0.1271
   95MOL   C11149179   2.264   1.207   7.192  0.9176 -0.1524  0.1548
   95MOL   C11249180   2.347   1.160   7.297  0.0760  0.0179 -0.0656
   95MOL   C11349181   2.457   1.241   7.336 -0.3327 -0.0653  0.0197
   95MOL   C11449182   2.483   1.362   7.270  0.6299  0.8727 -0.6477
   95MOL   C11549183   2.218   1.408   7.033 -0.2034 -0.0234  0.6359
   95MOL   C11649184   2.284   1.535   7.023 -0.7178  1.0344  0.4153
   95MOL   C11749185   2.235   1.632   6.946 -0.9499 -0.4895  0.0758
   95MOL   C11849186   2.115   1.621   6.874 -0.2314 -0.9855 -0.0839
   95MOL   C11949187   2.042   1.501   6.881 -0.2833  0.3509  0.0429
   95MOL   C12049188   2.095   1.393   6.965 -0.5594 -0.0937  0.1492
   95MOL   H12149189   2.333   1.767   7.156 -0.5960 -3.5206 -1.1615
   95MOL   H12249190   2.483   1.843   7.143 -1.8871  0.0265 -3.2772
   95MOL   H12349191   2.575   1.598   7.186 -0.3093 -2.7057 -1.0350
   95MOL   H12449192   2.180   1.147   7.160  2.2153 -0.6071 -2.5738
   95MOL   H12549193   2.332   1.065   7.346 -1.1482  0.8095  1.1291
   95MOL   H12649194   2.527   1.216   7.415  0.7337 -0.4947 -1.0442
   95MOL   H12749195   2.573   1.413   7.300  1.1479 -0.3113 -0.1889
   95MOL   H12849196   2.289   1.725   6.941  1.5099 -1.8487  0.4585
   95MOL   H12949197   2.075   1.696   6.807 -0.0420 -0.4400  0.4101
   95MOL   H13049198   1.955   1.483   6.820 -0.6103 -2.2941  1.1964
   95MOL   H13149199   2.046   1.297   6.970  0.6553 -0.8391 -1.8098
   95MOL   C13249200   2.571   1.683   6.983  0.4829  0.1241  0.2976
   95MOL   C13349201   2.724   1.725   6.989 -0.1596  0.1843  0.4402
   95MOL   N13449202   2.807   1.624   7.062  0.0095  0.6457  0.6160
   95MOL   C13549203   2.911   1.653   7.160  0.6466 -0.3145 -0.1981
   95MOL   C13649204   2.957   1.533   7.219  0.5851 -0.2687 -0.3648
   95MOL   C13749205   3.037   1.542   7.333  0.1850  0.0886  0.2077
   95MOL   C13849206   3.103   1.662   7.363  0.2222 -0.4621  0.1124
   95MOL   C13949207   3.061   1.779   7.303 -0.5555  0.7799  0.8916
   95MOL   C14049208   2.963   1.775   7.202  0.0460  0.4642 -0.4123
   95MOL   C14149209   2.884   1.426   7.143 -0.5129  0.3903  0.7437
   95MOL   C14249210   2.804   1.484   7.047  0.2022 -0.5460 -0.6086
   95MOL   C14349211   2.736   1.401   6.957  0.8787  0.1470  0.5383
   95MOL   C14449212   2.742   1.261   6.958 -0.2354  0.6644 -0.2931
   95MOL   C14549213   2.812   1.207   7.068 -0.0767 -0.1157 -0.0938
   95MOL   C14649214   2.882   1.286   7.155 -0.3172  0.3303 -0.0798
   95MOL   H14749215   2.553   1.599   6.916 -1.7786  1.2824 -0.6070
   95MOL   H14849216   2.525   1.767   6.931  1.5242  1.1153  0.9564
   95MOL   H14949217   2.718   1.815   7.051 -0.1368 -0.9585  2.1286
   95MOL   H15049218   3.059   1.452   7.388  2.4429  0.7433  0.4548
   95MOL   H15149219   3.166   1.668   7.450 -0.4656 -0.3560  0.6038
   95MOL   H15249220   3.097   1.872   7.346 -0.9250  2.4213 -2.1574
   95MOL   H15349221   2.933   1.867   7.154 -0.0626 -0.3140 -1.8626
   95MOL   H15449222   2.684   1.459   6.882  0.5347  1.2501  1.6144
   95MOL   H15549223   2.690   1.197   6.888  1.4403 -0.3180 -0.6685
   95MOL   H15649224   2.824   1.101   7.082  0.5109 -0.1100 -0.5690
   95MOL   H15749225   2.941   1.253   7.238  0.2907  1.9073  0.1401
   95MOL   C15849226   2.799   1.763   6.854  0.0936  0.0320  0.2691
   95MOL   C15949227   2.750   1.890   6.780 -0.1898 -0.3190  0.0208
   95MOL   N16049228   2.794   2.013   6.844 -0.3516 -0.2509  0.4119
   95MOL   C16149229   2.711   2.113   6.901  0.7318  0.1740  0.0509
   95MOL   C16249230   2.790   2.227   6.939 -0.2081 -0.6073 -0.2032
   95MOL   C16349231   2.729   2.333   6.996 -0.4648 -0.8697 -0.6001
   95MOL   C16449232   2.591   2.336   7.015  0.1215  0.3434  0.2093
   95MOL   C16549233   2.509   2.225   6.977 -0.3847  0.2267 -0.1897
   95MOL   C16649234   2.572   2.116   6.923 -0.3459 -0.2032  0.7722
   95MOL   C16749235   2.927   2.191   6.910 -0.7564 -0.3792 -0.0800
   95MOL   C16849236   2.923   2.057   6.851  0.8235 -0.0993 -0.4241
   95MOL   C16949237   3.042   1.990   6.815  0.6312 -0.0279 -0.7354
   95MOL   C17049238   3.162   2.055   6.840 -0.4843  0.2804  0.4497
   95MOL   C17149239   3.171   2.191   6.875  0.0667 -0.1746  0.1668
   95MOL   C17249240   3.057   2.257   6.916 -0.2283 -0.0846 -0.2756
   95MOL   H17349241   2.908   1.759   6.857  0.0523 -4.2202 -0.3939
   95MOL   H17449242   2.775   1.679   6.788  0.0430  0.0857  0.2173
   95MOL   H17549243   2.643   1.871   6.770  0.3869 -2.5917 -2.0795
   95MOL   H17649244   2.785   2.424   7.013  2.2266 -2.8520  1.5755
   95MOL   H17749245   2.538   2.413   7.069 -2.6598 -0.5900 -1.0910
   95MOL   H17849246   2.402   2.229   6.988 -0.3409 -0.6448  0.5891
   95MOL   H17949247   2.521   2.029   6.883  3.1256 -0.9872 -2.1780
   95MOL   H18049248   3.048   1.893   6.769 -1.2599 -1.3806  1.6919
   95MOL   H18149249   3.252   2.003   6.812 -1.0342 -0.1505 -0.5288
   95MOL   H18249250   3.270   2.230   6.894 -0.5668  1.7671 -0.4177
   95MOL   H18349251   3.071   2.351   6.967  1.2172  0.5163 -1.7317
   95MOL   C18449252   2.786   1.898   6.625  0.9045 -0.3289 -0.7015
   95MOL   C18549253   2.718   1.786   6.541 -0.7445  0.2831 -0.4191
   95MOL   N18649254   2.578   1.766   6.563 -0.0965  0.1167  0.1406
   95MOL   C18749255   2.523   1.637   6.598 -0.0803 -0.5441  0.3027
   95MOL   C18849256   2.380   1.647   6.596 -0.0254  0.0916 -0.5168
   95MOL   C18949257   2.304   1.527   6.629 -0.5031 -0.6188  0.1135
   95MOL   C19049258   2.378   1.411   6.659  0.1800 -0.2928 -0.3534
   95MOL   C19149259   2.520   1.410   6.665  0.2871 -0.0504 -0.0236
   95MOL   C19249260   2.587   1.521   6.624 -0.0236  0.4567  0.8891
   95MOL   C19349261   2.348   1.783   6.565 -0.2050 -0.1014 -0.3761
   95MOL   C19449262   2.469   1.854   6.538 -0.5025  0.1569 -0.8489
   95MOL   C19549263   2.470   1.985   6.488  0.0889  0.1809  0.2444
   95MOL   C19649264   2.346   2.057   6.482 -0.3215  0.0260  0.3813
   95MOL   C19749265   2.225   1.985   6.511  0.1621 -0.3423 -0.5748
   95MOL   C19849266   2.224   1.849   6.551  0.2979 -0.9905 -1.1426
   95MOL   H19949267   2.761   1.994   6.579 -0.2426 -1.0326 -1.5895
   95MOL   H20049268   2.891   1.883   6.603  0.6451 -3.5893  0.0639
   95MOL   H20149269   2.770   1.697   6.576 -0.8279  0.3493 -0.1232
   95MOL   H20249270   2.197   1.536   6.620 -0.6471 -1.4429  1.0009
   95MOL   H20349271   2.333   1.317   6.687 -0.8066 -0.1031 -1.2643
   95MOL   H20449272   2.561   1.314   6.691 -0.3247  0.0102  1.2318
   95MOL   H20549273   2.695   1.510   6.622 -0.1631 -0.8180 -0.6193
   95MOL   H20649274   2.557   2.043   6.463 -0.0147  1.3533  2.4262
   95MOL   H20749275   2.355   2.163   6.463  0.4955  0.0286  0.7662
   95MOL   H20849276   2.127   2.031   6.502  0.3995  0.1426 -0.7463
   95MOL   H20949277   2.133   1.796   6.577 -0.4194  0.5422 -0.4612
   95MOL   C21049278   2.763   1.816   6.396  0.3988  0.1018 -0.0550
   95MOL   C21149279   2.750   1.706   6.293  0.0652 -0.3320  0.2554
   95MOL   N21249280   2.633   1.732   6.208  0.6332  0.0630 -0.1401
   95MOL   C21349281   2.520   1.647   6.208 -0.0943 -0.0450  0.0473
   95MOL   C21449282   2.412   1.716   6.141 -0.4072  0.2413  0.4964
   95MOL   C21549283   2.287   1.656   6.148 -0.1988 -0.4206  1.2761
   95MOL   C21649284   2.266   1.532   6.212  0.5151 -0.3697 -0.3809
   95MOL   C21749285   2.379   1.469   6.274 -0.1537 -0.1585  0.8223
   95MOL   C21849286   2.509   1.522   6.275 -0.6875  0.4723 -0.0346
   95MOL   C21949287   2.464   1.841   6.094 -0.2850 -0.6187  0.2158
   95MOL   C22049288   2.598   1.849   6.142 -0.6484 -1.3228  1.0330
   95MOL   C22149289   2.674   1.965   6.111 -0.1417 -0.2281 -0.6000
   95MOL   C22249290   2.613   2.067   6.033  0.0584 -0.0789  1.2211
   95MOL   C22349291   2.483   2.051   5.984  0.2820  0.3270  0.1697
   95MOL   C22449292   2.408   1.943   6.015  0.1510  0.5156 -0.4673
   95MOL   H22549293   2.709   1.907   6.371  0.4358  0.2851  0.5202
   95MOL   H22649294   2.869   1.844   6.400  0.3158  0.3024  0.7620
   95MOL   H22749295   2.741   1.618   6.357 -0.8918  0.8374  1.7856
   95MOL   H22849296   2.211   1.704   6.088  1.3852  0.3545 -0.1679
   95MOL   H22949297   2.167   1.493   6.226 -0.3835  2.8328  3.0801
   95MOL   H23049298   2.355   1.383   6.335 -0.1808 -0.5723  0.2338
   95MOL   H23149299   2.594   1.477   6.324 -1.0452 -1.3985 -1.1180
   95MOL   H23249300   2.777   1.974   6.141  0.3280 -1.1844 -1.8798
   95MOL   H23349301   2.658   2.165   6.018  1.6339 -0.8506  0.7756
   95MOL   H23449302   2.437   2.127   5.923 -2.9920 -1.4312  0.3017
   95MOL   H23549303   2.302   1.946   5.994  0.0279  0.8833  0.1967
   95MOL   C23649304   2.875   1.666   6.210  0.4904  0.0821 -0.5939
   95MOL   C23749305   3.005   1.617   6.285 -0.0237 -0.7164 -0.4514
   95MOL   N23849306   2.980   1.518   6.392 -0.4444  0.1194 -0.2692
   95MOL   C23949307   3.023   1.528   6.526 -0.1859  1.0914  0.1182
   95MOL   C24049308   2.977   1.421   6.605 -0.1546 -0.5675 -0.1434
   95MOL   C24149309   3.023   1.409   6.737 -0.0479  0.0246  0.2859
   95MOL   C24249310   3.112   1.501   6.789  0.0596 -0.5107 -0.2279
   95MOL   C24349311   3.151   1.613   6.719 -0.0962  0.4113  0.0458
   95MOL   C24449312   3.107   1.628   6.586  0.1282  0.0618 -1.0194
   95MOL   C24549313   2.887   1.348   6.520 -0.0109 -0.4275  1.2137
   95MOL   C24649314   2.905   1.398   6.386  0.1775  0.6566 -0.2743
   95MOL   C24749315   2.832   1.333   6.289 -0.0796 -0.6357 -0.8426
   95MOL   C24849316   2.752   1.223   6.312  0.2323  0.0485 -0.3725
   95MOL   C24949317   2.736   1.165   6.437 -0.3898 -0.2129 -0.5799
   95MOL   C25049318   2.807   1.236   6.541 -0.1758  0.1556  0.0005
   95MOL   H25149319   2.853   1.592   6.132 -0.4431  0.1956 -0.4452
   95MOL   H25249320   2.902   1.757   6.158 -0.5925  0.4666 -0.4984
   95MOL   H25349321   3.028   1.704   6.347 -3.6329 -0.5997  0.8163
   95MOL   H25449322   2.978   1.331   6.797  0.5507 -0.3602  0.2359
   95MOL   H25549323   3.155   1.479   6.886 -1.2856  0.7745  0.6840
   95MOL   H25649324   3.218   1.688   6.757 -0.7807  0.1311  1.8873
   95MOL   H25749325   3.139   1.716   6.532 -0.1803  1.4344  0.9604
   95MOL   H25849326   2.843   1.363   6.186 -0.4986  1.1674 -0.3734
   95MOL   H25949327   2.703   1.173   6.229 -1.1487 -0.3535  0.6732
   95MOL   H26049328   2.669   1.082   6.456  0.1506 -0.2965  1.1221
   95MOL   H26149329   2.802   1.203   6.643 -0.4483 -0.4771 -0.2202
   95MOL   C26249330   3.134   1.594   6.196 -0.4290 -0.7682  0.7635
   95MOL   C26349331   3.196   1.720   6.135  0.1756  0.0110  0.8845
   95MOL   N26449332   3.226   1.825   6.235  0.3877  0.0713  0.3314
   95MOL   C26549333   3.160   1.947   6.256  0.1709  0.3435 -0.5138
   95MOL   C26649334   3.206   1.998   6.378 -0.2275  0.1636 -0.3903
   95MOL   C26749335   3.151   2.117   6.429 -0.7599  0.4174 -0.1664
   95MOL   C26849336   3.055   2.187   6.351 -0.2142  0.1850  0.4208
   95MOL   C26949337   3.015   2.136   6.222  0.2444 -0.5683 -0.0335
   95MOL   C27049338   3.069   2.014   6.178  0.3881 -0.2161 -0.1868
   95MOL   C27149339   3.303   1.910   6.430  0.1777 -0.0834  0.6409
   95MOL   C27249340   3.312   1.802   6.341 -0.5641  0.4033 -0.2960
   95MOL   C27349341   3.404   1.702   6.368 -0.2332 -0.0817 -0.4042
   95MOL   C27449342   3.475   1.704   6.487  0.2816  0.5166 -0.0282
   95MOL   C27549343   3.464   1.808   6.580 -0.2329 -0.1529 -0.3262
   95MOL   C27649344   3.378   1.916   6.546  0.1290 -0.0529 -0.4193
   95MOL   H27749345   3.208   1.534   6.250 -0.8802 -1.9068  0.1201
   95MOL   H27849346   3.097   1.529   6.117 -0.4106  0.5901 -0.3778
   95MOL   H27949347   3.114   1.763   6.077 -0.2979 -0.0310  1.5163
   95MOL   H28049348   3.185   2.159   6.522 -0.4094  4.0826 -1.8836
   95MOL   H28149349   3.028   2.286   6.384  0.9311 -0.0244  1.9955
   95MOL   H28249350   2.948   2.191   6.158  1.6052  1.6590  0.4197
   95MOL   H28349351   3.037   1.983   6.079  0.7536 -0.2109 -0.3053
   95MOL   H28449352   3.417   1.617   6.301  0.5754  0.1885 -0.6025
   95MOL   H28549353   3.537   1.617   6.502  0.3233  0.4214 -0.7227
   95MOL   H28649354   3.521   1.812   6.672 -3.5467 -1.5914  1.9094
   95MOL   H28749355   3.375   2.011   6.598 -0.7927  1.5625 -3.3169
   95MOL   C28849356   3.321   1.704   6.047 -0.1110 -0.3640  0.2241
   95MOL   C28949357   3.354   1.826   5.950 -0.4060 -0.2032  0.1980
   95MOL   N29049358   3.462   1.910   6.011  0.1846  0.3538 -0.4968
   95MOL   C29149359   3.442   2.046   6.049  0.0724  0.3660  0.2987
   95MOL   C29249360   3.567   2.100   6.099  0.4977 -0.1271  0.3404
   95MOL   C29349361   3.568   2.229   6.149  0.0237  0.1479 -0.3066
   95MOL   C29449362   3.448   2.310   6.148  0.1902  0.2381 -0.4824
   95MOL   C29549363   3.329   2.258   6.091 -0.2515  0.0499  0.7798
   95MOL   C29649364   3.335   2.132   6.029 -0.0166  0.6389 -0.5919
   95MOL   C29749365   3.658   1.992   6.089  0.1400 -0.3563 -0.0178
   95MOL   C29849366   3.590   1.874   6.042  0.6148  0.2041 -0.1282
   95MOL   C29949367   3.669   1.751   6.033  0.3238 -0.9895 -0.0941
   95MOL   C30049368   3.805   1.739   6.073  0.5643  0.0930 -0.0626
   95MOL   C30149369   3.868   1.858   6.117  0.3145  0.4234 -0.4615
   95MOL   C30249370   3.794   1.979   6.122  0.7701 -0.9581  0.2840
   95MOL   H30349371   3.417   1.678   6.092 -0.8527 -3.9332 -0.1207
   95MOL   H30449372   3.305   1.625   5.974  0.3526 -1.5518  1.4026
   95MOL   H30549373   3.256   1.874   5.937  1.1777  2.2865 -3.5872
   95MOL   H30649374   3.663   2.268   6.182 -0.8197  1.6971  0.3436
   95MOL   H30749375   3.457   2.409   6.192 -0.2013  0.1715 -0.2458
   95MOL   H30849376   3.234   2.308   6.081 -0.8609 -1.2924 -0.2698
   95MOL   H30949377   3.252   2.084   5.979  1.0387 -0.5889 -1.1865
   95MOL   H31049378   3.616   1.668   5.989 -1.1785 -0.1045 -0.0027
   95MOL   H31149379   3.852   1.643   6.065 -3.6710 -2.2785  1.7160
   95MOL   H31249380   3.962   1.847   6.169 -0.5374  1.6347  1.3866
   95MOL   H31349381   3.833   2.071   6.163 -1.4542 -0.4608  1.3732
   95MOL   C31449382   3.391   1.800   5.802 -0.7506 -0.2923  0.3585
   95MOL   C31549383   3.279   1.751   5.697  0.1513  0.0549 -0.2723
   95MOL   N31649384   3.145   1.797   5.731  0.3040  0.0168 -0.3572
   95MOL   C31749385   3.035   1.724   5.781  0.6404 -0.0299 -0.2259
   95MOL   C31849386   2.923   1.815   5.804  1.0871 -0.1344 -0.2401
   95MOL   C31949387   2.800   1.758   5.845  0.2174  0.0387  0.0685
   95MOL   C32049388   2.784   1.622   5.884 -0.2594  0.1644  0.7524
   95MOL   C32149389   2.895   1.540   5.862 -0.3519 -0.0468 -0.4034
   95MOL   C32249390   3.017   1.592   5.814  0.5883 -0.3623  0.2162
   95MOL   C32349391   2.969   1.952   5.769  0.2169  0.6739 -0.6152
   95MOL   C32449392   3.101   1.935   5.717  0.0335 -0.0153  0.9266
   95MOL   C32549393   3.171   2.050   5.673 -0.2539 -0.4702  0.3222
   95MOL   C32649394   3.110   2.178   5.680 -0.4545  0.6721  0.7286
   95MOL   C32749395   2.978   2.196   5.729  0.3464 -0.0719  0.2697
   95MOL   C32849396   2.910   2.084   5.775 -0.1951 -0.0714 -0.8508
   95MOL   H32949397   3.419   1.897   5.760  1.3897 -0.8617  0.4473
   95MOL   H33049398   3.472   1.727   5.804  0.4811  0.9667 -1.8377
   95MOL   H33149399   3.279   1.642   5.691 -0.3834  0.0345  0.1315
   95MOL   H33249400   2.720   1.828   5.868 -0.1269 -1.1664  2.6854
   95MOL   H33349401   2.693   1.577   5.922  1.3226 -2.5746  1.5039
   95MOL   H33449402   2.900   1.438   5.897  2.9709  0.2693  0.2310
   95MOL   H33549403   3.101   1.523   5.814 -0.4161 -1.6324  1.7024
   95MOL   H33649404   3.272   2.044   5.637  0.1491 -0.1655  1.4062
   95MOL   H33749405   3.157   2.251   5.615 -0.1512 -1.4427 -1.4994
   95MOL   H33849406   2.921   2.287   5.737  1.0404  0.1464  3.4437
   95MOL   H33949407   2.810   2.095   5.816  0.6720 -1.5248  1.7722
   95MOL   C34049408   3.325   1.780   5.546  0.0286  0.0314  0.7781
   95MOL   C34149409   3.205   1.755   5.443  0.3112 -0.7272 -0.1147
   95MOL   N34249410   3.226   1.836   5.327 -0.3326 -0.2138  0.0635
   95MOL   C34349411   3.143   1.949   5.288  0.7800 -0.4065  0.8799
   95MOL   C34449412   3.194   2.002   5.165 -0.2652  0.2551 -0.2917
   95MOL   C34549413   3.132   2.108   5.100  0.5055 -0.4100 -0.0564
   95MOL   C34649414   3.013   2.157   5.159  0.5548  0.0092 -0.1351
   95MOL   C34749415   2.957   2.107   5.275  0.5362  0.0563 -0.2035
   95MOL   C34849416   3.023   1.997   5.339  0.5897  0.2892 -0.2246
   95MOL   C34949417   3.307   1.913   5.134  0.1749 -0.2715  0.1897
   95MOL   C35049418   3.330   1.825   5.236 -0.1303  0.0408 -0.8437
   95MOL   C35149419   3.448   1.751   5.238 -0.0018  0.0071  0.2213
   95MOL   C35249420   3.541   1.753   5.130  0.3951  0.2065 -0.7944
   95MOL   C35349421   3.512   1.836   5.022 -0.0883 -0.1674  0.5920
   95MOL   C35449422   3.401   1.922   5.032  0.4722  0.1312 -0.0624
   95MOL   H35549423   3.362   1.881   5.532  3.7603 -0.8684  3.4465
   95MOL   H35649424   3.418   1.727   5.527 -0.1543  0.5356 -1.6665
   95MOL   H35749425   3.119   1.797   5.496 -0.6581 -1.8973 -0.7381
   95MOL   H35849426   3.163   2.146   5.003  0.8151  0.4007  0.3530
   95MOL   H35949427   2.963   2.241   5.112  0.2656  0.2331  0.5720
   95MOL   H36049428   2.871   2.153   5.321 -1.1295 -2.6598 -0.5546
   95MOL   H36149429   2.973   1.955   5.425 -1.7214  1.8158 -0.7832
   95MOL   H36249430   3.472   1.688   5.322 -1.0413  0.9850  1.2882
   95MOL   H36349431   3.623   1.683   5.124  0.0386 -0.0322 -3.3513
   95MOL   H36449432   3.582   1.837   4.940  0.3591 -1.2259  0.9462
   95MOL   H36549433   3.372   1.990   4.954  0.2988 -1.7011 -1.6478
   95MOL   C36649434   3.165   1.610   5.408 -0.2277  0.6630  0.3618
   95MOL   C36749435   3.024   1.598   5.326 -0.6201 -0.0854 -0.7715
   95MOL   N36849436   3.014   1.465   5.271  0.0491  0.5933 -0.1376
   95MOL   C36949437   3.028   1.430   5.134 -0.0403 -0.3155 -0.1834
   95MOL   C37049438   3.003   1.291   5.119  0.5016 -0.2833 -0.0736
   95MOL   C37149439   2.998   1.229   4.991 -0.4370 -0.0856  0.5805
   95MOL   C37249440   3.010   1.313   4.879  0.1319 -0.0849 -0.0377
   95MOL   C37349441   3.037   1.452   4.891 -0.4115  0.7782 -0.7858
   95MOL   C37449442   3.048   1.510   5.022  0.0516 -0.3538 -0.7036
   95MOL   C37549443   2.983   1.236   5.252 -0.3870 -0.0203  0.2909
   95MOL   C37649444   2.985   1.349   5.343 -0.3783  0.5520  0.0658
   95MOL   C37749445   2.978   1.319   5.477 -0.2883 -0.7440  0.3355
   95MOL   C37849446   2.963   1.193   5.525 -0.4356  0.2968 -0.1190
   95MOL   C37949447   2.945   1.083   5.440 -0.3963  0.6680  0.0113
   95MOL   C38049448   2.958   1.104   5.303  0.3758 -0.1388  0.3853
   95MOL   H38149449   3.239   1.566   5.341 -0.6032 -0.4152  0.6428
   95MOL   H38249450   3.146   1.551   5.498  0.7643  1.2596  0.9756
   95MOL   H38349451   3.030   1.665   5.239  1.0221  2.7861  1.4582
   95MOL   H38449452   2.992   1.127   4.954  0.0644 -0.1907  0.7839
   95MOL   H38549453   2.993   1.270   4.781  0.1013  0.5473 -0.3108
   95MOL   H38649454   3.028   1.507   4.799  1.0564  3.1583  0.4248
   95MOL   H38749455   3.070   1.614   5.037 -0.2343 -0.2550 -0.9663
   95MOL   H38849456   2.992   1.389   5.558 -0.3315  1.3334 -1.3958
   95MOL   H38949457   2.946   1.182   5.631 -1.1060 -3.8356 -0.5740
   95MOL   H39049458   2.940   0.979   5.469  4.2512 -0.2491 -2.0376
   95MOL   H39149459   2.947   1.026   5.230 -0.6024  0.1990  0.1709
   95MOL   C39249460   2.911   1.638   5.420 -0.4000  0.8832  0.0340
   95MOL   C39349461   2.773   1.609   5.362 -0.4328  1.1135  0.5551
   95MOL   N39449462   2.673   1.611   5.474  0.3558  0.6760  0.5688
   95MOL   C39549463   2.614   1.498   5.530 -0.1490  0.0172  0.3423
   95MOL   C39649464   2.513   1.542   5.625  0.1484  0.1800  0.0091
   95MOL   C39749465   2.432   1.443   5.690  0.0846  0.5571  0.3970
   95MOL   C39849466   2.457   1.308   5.661 -0.7176 -0.5562  1.0502
   95MOL   C39949467   2.542   1.264   5.562 -0.5121 -0.6003 -0.1891
   95MOL   C40049468   2.623   1.360   5.504 -0.1333  0.5870  0.1530
   95MOL   C40149469   2.513   1.686   5.624 -0.0720  0.1557  0.2373
   95MOL   C40249470   2.618   1.725   5.539 -0.2285 -0.1102 -0.2672
   95MOL   C40349471   2.647   1.871   5.536 -0.0203  0.1588  0.2729
   95MOL   C40449472   2.568   1.964   5.605  0.1999  0.2073 -0.0957
   95MOL   C40549473   2.454   1.921   5.672  0.0070 -0.0253  0.3962
   95MOL   C40649474   2.436   1.781   5.700  0.4702 -0.3551  0.6329
   95MOL   H40749475   2.919   1.580   5.512 -1.1027  1.8227  0.7008
   95MOL   H40849476   2.913   1.741   5.457 -0.2849  1.4565 -1.5310
   95MOL   H40949477   2.768   1.510   5.317  1.6961  2.0466 -1.8091
   95MOL   H41049478   2.345   1.471   5.747 -0.3111  0.0792  0.0336
   95MOL   H41149479   2.395   1.231   5.705 -1.6145 -0.8109 -0.6150
   95MOL   H41249480   2.531   1.164   5.522 -0.2992 -0.0351 -1.6999
   95MOL   H41349481   2.701   1.334   5.434 -0.0740 -0.1073  0.4821
   95MOL   H41449482   2.726   1.910   5.473 -0.0270 -0.4178 -0.0986
   95MOL   H41549483   2.579   2.071   5.601  3.0067  0.0338  1.7034
   95MOL   H41649484   2.401   2.010   5.704  1.9356  1.3083 -0.0621
   95MOL   H41749485   2.360   1.755   5.772  1.5915 -1.9302  1.2978
   95MOL   C41849486   2.736   1.709   5.249 -0.1597 -0.4804 -0.6188
   95MOL   C41949487   2.604   1.695   5.170 -0.3913 -0.3175  0.3427
   95MOL   N42049488   2.610   1.590   5.073  0.2106 -0.2566  0.8631
   95MOL   C42149489   2.657   1.600   4.947 -0.0247 -0.4751  0.0051
   95MOL   C42249490   2.653   1.472   4.885  0.1895 -0.0736 -0.1677
   95MOL   C42349491   2.696   1.453   4.757 -0.0381 -0.3968  0.2942
   95MOL   C42449492   2.737   1.562   4.680  0.1756 -0.3683 -0.1179
   95MOL   C42549493   2.761   1.686   4.739  0.3160  1.0958 -0.3876
   95MOL   C42649494   2.713   1.707   4.870  0.2502  0.7274  0.3028
   95MOL   C42749495   2.607   1.380   4.986  0.8791  0.3661 -0.4414
   95MOL   C42849496   2.567   1.459   5.097 -0.4667  0.6362  0.4603
   95MOL   C42949497   2.507   1.399   5.209 -0.9397 -0.4339  0.0261
   95MOL   C43049498   2.484   1.264   5.213 -0.0287 -0.0918  0.3698
   95MOL   C43149499   2.521   1.187   5.105 -0.1166 -0.2196 -0.0210
   95MOL   C43249500   2.578   1.245   4.990 -0.6787  0.7039 -0.5499
   95MOL   H43349501   2.751   1.811   5.286 -1.4929 -0.3464 -0.4323
   95MOL   H43449502   2.816   1.702   5.175 -1.4590  1.5296 -2.2674
   95MOL   H43549503   2.620   1.777   5.100  1.4895 -1.4388 -0.5845
   95MOL   H43649504   2.691   1.352   4.720 -1.1691  0.1686 -1.1342
   95MOL   H43749505   2.776   1.546   4.580  0.7065 -2.1141  0.3417
   95MOL   H43849506   2.810   1.764   4.683  0.0382  0.5748 -1.3667
   95MOL   H43949507   2.721   1.810   4.904  0.6934  0.8553 -0.1848
   95MOL   H44049508   2.484   1.454   5.299 -0.8498  2.1227 -1.4709
   95MOL   H44149509   2.456   1.222   5.308  0.9967 -0.6547  0.4331
   95MOL   H44249510   2.497   1.082   5.114 -0.3985 -0.0720  0.9770
   95MOL   H44349511   2.608   1.178   4.910  2.2466  0.5360  0.6185
   95MOL   C44449512   2.470   1.715   5.251 -0.2563 -0.1241  0.0977
   95MOL   C44549513   2.342   1.737   5.164  0.2516 -0.9823 -0.6515
   95MOL   N44649514   2.247   1.792   5.255  0.5501 -0.3291  0.1936
   95MOL   C44749515   2.120   1.735   5.290 -0.3093  0.5139 -0.1159
   95MOL   C44849516   2.048   1.828   5.367 -0.9366  1.0109 -0.1963
   95MOL   C44949517   1.920   1.794   5.405 -0.0186 -0.1010 -0.7671
   95MOL   C45049518   1.862   1.671   5.370  0.6488  0.2099  0.0862
   95MOL   C45149519   1.933   1.579   5.291  0.0142  0.2844 -0.3563
   95MOL   C45249520   2.065   1.610   5.252 -0.3019  0.0448  0.1240
   95MOL   C45349521   2.129   1.941   5.379  0.0688 -0.2850 -0.3548
   95MOL   C45449522   2.252   1.919   5.312  0.0651  0.0322  0.2420
   95MOL   C45549523   2.345   2.032   5.314  0.1903 -0.7739  0.3662
   95MOL   C45649524   2.318   2.149   5.389 -0.5791 -0.0061  0.3161
   95MOL   C45749525   2.197   2.160   5.457 -0.2694  0.8457  0.5417
   95MOL   C45849526   2.106   2.055   5.457  0.3957  0.7190  0.1092
   95MOL   H45949527   2.444   1.635   5.320  0.0496 -0.5544 -0.2787
   95MOL   H46049528   2.491   1.803   5.312  0.4612 -0.6162  0.5678
   95MOL   H46149529   2.309   1.638   5.132 -0.3545 -2.0413  3.0023
   95MOL   H46249530   1.873   1.868   5.468 -0.4687  0.4384 -1.7100
   95MOL   H46349531   1.761   1.654   5.405  0.5907  2.0291  0.8375
   95MOL   H46449532   1.886   1.485   5.268  1.0707  0.1059 -1.8404
   95MOL   H46549533   2.124   1.539   5.196 -2.4395 -2.2107  0.6682
   95MOL   H46649534   2.438   2.035   5.258 -0.0501 -0.9660 -0.0508
   95MOL   H46749535   2.389   2.230   5.399 -0.2470 -0.4757  1.8122
   95MOL   H46849536   2.167   2.245   5.516 -0.4059  0.6871  0.7002
   95MOL   H46949537   2.010   2.068   5.505 -0.6974 -1.3600 -1.4282
   95MOL   C47049538   2.358   1.824   5.036 -0.3964  0.0641 -0.8280
   95MOL   C47149539   2.218   1.883   4.979 -0.5080 -0.0041 -0.4051
   95MOL   N47249540   2.228   2.026   4.935  0.3774 -0.2876 -0.2280
   95MOL   C47349541   2.134   2.129   4.958  0.5220  0.3365 -0.1662
   95MOL   C47449542   2.178   2.249   4.888 -0.4750 -0.4026  0.1525
   95MOL   C47549543   2.088   2.359   4.879 -0.6118 -0.1318  0.1979
   95MOL   C47649544   1.957   2.350   4.936  0.1718 -0.7391  0.1425
   95MOL   C47749545   1.924   2.248   5.019  0.4296  0.0394 -0.2443
   95MOL   C47849546   2.009   2.131   5.028  0.9996  0.3562 -0.8478
   95MOL   C47949547   2.309   2.218   4.832  0.6858  0.0827  0.2689
   95MOL   C48049548   2.333   2.081   4.857  0.5806  0.0513  0.2799
   95MOL   C48149549   2.445   2.016   4.796  0.2771  0.5234 -0.2559
   95MOL   C48249550   2.524   2.085   4.706 -0.5108  0.7662 -0.3553
   95MOL   C48349551   2.511   2.225   4.701 -0.0280  0.0792 -0.6706
   95MOL   C48449552   2.408   2.294   4.765  0.5378  1.0201 -0.3782
   95MOL   H48549553   2.426   1.900   5.076  0.4007 -1.6791  1.1736
   95MOL   H48649554   2.408   1.772   4.955  0.5655  1.1556 -0.9536
   95MOL   H48749555   2.153   1.894   5.066  0.1848  0.0347  0.1128
   95MOL   H48849556   2.105   2.446   4.817 -1.3569 -0.3839 -0.3593
   95MOL   H48949557   1.890   2.433   4.922  2.1962  1.4070  2.5650
   95MOL   H49049558   1.830   2.252   5.072 -0.7455  0.4138 -2.3193
   95MOL   H49149559   1.975   2.055   5.096  2.2997  1.1351  0.7032
   95MOL   H49249560   2.475   1.913   4.807 -1.0238  0.1911  0.2925
   95MOL   H49349561   2.611   2.042   4.659 -1.5755  0.8431 -2.4967
   95MOL   H49449562   2.590   2.286   4.660 -0.3999  1.1030  0.0921
   95MOL   H49549563   2.401   2.402   4.760  1.8652  1.1625  0.3676
   95MOL   C49649564   2.150   1.793   4.882 -0.7080  0.0892  0.0865
   95MOL   C49749565   2.005   1.823   4.850  0.7773  0.0896 -0.8157
   95MOL   N49849566   1.944   1.731   4.763 -0.1535  0.8024 -0.1304
   95MOL   C49949567   1.915   1.742   4.623 -0.1180 -0.6537 -0.4782
   95MOL   C50049568   1.863   1.623   4.570  0.6979 -0.1962  0.2755
   95MOL   C50149569   1.834   1.614   4.430  1.0958 -0.5677  0.5851
   95MOL   C50249570   1.863   1.725   4.348 -0.1279 -0.2336  0.7899
   95MOL   C50349571   1.906   1.846   4.403  0.7338  0.0230  0.5857
   95MOL   C50449572   1.941   1.851   4.541 -0.2078  0.7388 -0.4850
   95MOL   C50549573   1.849   1.533   4.685  0.4815  0.5182  1.4387
   95MOL   C50649574   1.906   1.598   4.800 -0.6265 -0.3490  0.6252
   95MOL   C50749575   1.905   1.530   4.925 -0.0199 -0.7943 -0.0840
   95MOL   C50849576   1.861   1.401   4.934 -0.4710 -0.2541  0.9344
   95MOL   C50949577   1.810   1.336   4.822  0.0344  0.6628 -0.4276
   95MOL   C51049578   1.808   1.398   4.696  0.1008 -0.4133  0.0675
   95MOL   H51149579   2.201   1.796   4.786  1.8121 -3.4429  1.2103
   95MOL   H51249580   2.169   1.691   4.913 -2.3715 -0.8518 -1.9245
   95MOL   H51349581   1.988   1.922   4.808 -0.4273  0.6470  0.9144
   95MOL   H51449582   1.795   1.518   4.400 -0.6771 -0.2723  1.8626
   95MOL   H51549583   1.853   1.712   4.242  0.2402  1.3653  0.5548
   95MOL   H51649584   1.909   1.926   4.330 -0.6763 -1.1307 -0.7770
   95MOL   H51749585   1.981   1.940   4.587 -1.2044  0.0802  1.7308
   95MOL   H51849586   1.943   1.579   5.013 -1.2146  0.4787 -0.2494
   95MOL   H51949587   1.874   1.354   5.030  2.2858 -0.4679  0.5080
   95MOL   H52049588   1.775   1.235   4.831  3.3813 -0.3736  2.0369
   95MOL   H52149589   1.772   1.339   4.613  2.2950 -1.2764 -0.2972
   95MOL   H52249590   1.946   1.816   4.941  0.7325  0.5034 -0.8103
   8.22736   8.22736   8.22736
