;
; Gromacs include topology (itp) file.
; For Molecular Group XYZ
; Force field scheme: opls2005
; Produced from DL_FIELD v4.11
;


[ moleculetype ]
; name    nrexcl
XYZ    3

[ atoms ]
; nr   type   resnr   residu    atom    cgnr    charge    mass
    1        CT    1  MOL      C1     1  -0.1800000   12.0115
    2        CT    1  MOL      C2     2   0.1513000   12.0115
    3        NA    1  MOL      N3     3  -0.1333000   14.0067
    4      C56A    1  MOL      C4     4  -0.0390000   12.0115
    5      C56B    1  MOL      C5     5   0.0000000   12.0115
    6        CA    1  MOL      C6     6  -0.1150000   12.0115
    7        CA    1  MOL      C7     7  -0.1150000   12.0115
    8        CA    1  MOL      C8     8  -0.1150000   12.0115
    9        CA    1  MOL      C9     9  -0.1150000   12.0115
   10      C56B    1  MOL     C10    10   0.0000000   12.0115
   11      C56A    1  MOL     C11    11  -0.0390000   12.0115
   12        CA    1  MOL     C12    12  -0.1150000   12.0115
   13        CA    1  MOL     C13    13  -0.1150000   12.0115
   14        CA    1  MOL     C14    14  -0.1150000   12.0115
   15        CA    1  MOL     C15    15  -0.1150000   12.0115
   16        HC    1  MOL     H16    16   0.0600000    1.0080
   17        HC    1  MOL     H17    17   0.0600000    1.0080
   18        HC    1  MOL     H18    18   0.0600000    1.0080
   19        HA    1  MOL     H19    19   0.1150000    1.0080
   20        HA    1  MOL     H20    20   0.1150000    1.0080
   21        HA    1  MOL     H21    21   0.1150000    1.0080
   22        HA    1  MOL     H22    22   0.1150000    1.0080
   23        HA    1  MOL     H23    23   0.1150000    1.0080
   24        HA    1  MOL     H24    24   0.1150000    1.0080
   25        HA    1  MOL     H25    25   0.1150000    1.0080
   26        HA    1  MOL     H26    26   0.1150000    1.0080
   27        HC    1  MOL     H27    27   0.0600000    1.0080
   28        CT    1  MOL     C28    28  -0.1200000   12.0115
   29        CT    1  MOL     C29    29   0.1513000   12.0115
   30        NA    1  MOL     N30    30  -0.1333000   14.0067
   31      C56A    1  MOL     C31    31  -0.0390000   12.0115
   32      C56B    1  MOL     C32    32   0.0000000   12.0115
   33        CA    1  MOL     C33    33  -0.1150000   12.0115
   34        CA    1  MOL     C34    34  -0.1150000   12.0115
   35        CA    1  MOL     C35    35  -0.1150000   12.0115
   36        CA    1  MOL     C36    36  -0.1150000   12.0115
   37      C56B    1  MOL     C37    37   0.0000000   12.0115
   38      C56A    1  MOL     C38    38  -0.0390000   12.0115
   39        CA    1  MOL     C39    39  -0.1150000   12.0115
   40        CA    1  MOL     C40    40  -0.1150000   12.0115
   41        CA    1  MOL     C41    41  -0.1150000   12.0115
   42        CA    1  MOL     C42    42  -0.1150000   12.0115
   43        HC    1  MOL     H43    43   0.0600000    1.0080
   44        HC    1  MOL     H44    44   0.0600000    1.0080
   45        HC    1  MOL     H45    45   0.0600000    1.0080
   46        HA    1  MOL     H46    46   0.1150000    1.0080
   47        HA    1  MOL     H47    47   0.1150000    1.0080
   48        HA    1  MOL     H48    48   0.1150000    1.0080
   49        HA    1  MOL     H49    49   0.1150000    1.0080
   50        HA    1  MOL     H50    50   0.1150000    1.0080
   51        HA    1  MOL     H51    51   0.1150000    1.0080
   52        HA    1  MOL     H52    52   0.1150000    1.0080
   53        HA    1  MOL     H53    53   0.1150000    1.0080
   54        CT    1  MOL     C54    54  -0.1200000   12.0115
   55        CT    1  MOL     C55    55   0.1513000   12.0115
   56        NA    1  MOL     N56    56  -0.1333000   14.0067
   57      C56A    1  MOL     C57    57  -0.0390000   12.0115
   58      C56B    1  MOL     C58    58   0.0000000   12.0115
   59        CA    1  MOL     C59    59  -0.1150000   12.0115
   60        CA    1  MOL     C60    60  -0.1150000   12.0115
   61        CA    1  MOL     C61    61  -0.1150000   12.0115
   62        CA    1  MOL     C62    62  -0.1150000   12.0115
   63      C56B    1  MOL     C63    63   0.0000000   12.0115
   64      C56A    1  MOL     C64    64  -0.0390000   12.0115
   65        CA    1  MOL     C65    65  -0.1150000   12.0115
   66        CA    1  MOL     C66    66  -0.1150000   12.0115
   67        CA    1  MOL     C67    67  -0.1150000   12.0115
   68        CA    1  MOL     C68    68  -0.1150000   12.0115
   69        HC    1  MOL     H69    69   0.0600000    1.0080
   70        HC    1  MOL     H70    70   0.0600000    1.0080
   71        HC    1  MOL     H71    71   0.0600000    1.0080
   72        HA    1  MOL     H72    72   0.1150000    1.0080
   73        HA    1  MOL     H73    73   0.1150000    1.0080
   74        HA    1  MOL     H74    74   0.1150000    1.0080
   75        HA    1  MOL     H75    75   0.1150000    1.0080
   76        HA    1  MOL     H76    76   0.1150000    1.0080
   77        HA    1  MOL     H77    77   0.1150000    1.0080
   78        HA    1  MOL     H78    78   0.1150000    1.0080
   79        HA    1  MOL     H79    79   0.1150000    1.0080
   80        CT    1  MOL     C80    80  -0.1200000   12.0115
   81        CT    1  MOL     C81    81   0.1513000   12.0115
   82        NA    1  MOL     N82    82  -0.1333000   14.0067
   83      C56A    1  MOL     C83    83  -0.0390000   12.0115
   84      C56B    1  MOL     C84    84   0.0000000   12.0115
   85        CA    1  MOL     C85    85  -0.1150000   12.0115
   86        CA    1  MOL     C86    86  -0.1150000   12.0115
   87        CA    1  MOL     C87    87  -0.1150000   12.0115
   88        CA    1  MOL     C88    88  -0.1150000   12.0115
   89      C56B    1  MOL     C89    89   0.0000000   12.0115
   90      C56A    1  MOL     C90    90  -0.0390000   12.0115
   91        CA    1  MOL     C91    91  -0.1150000   12.0115
   92        CA    1  MOL     C92    92  -0.1150000   12.0115
   93        CA    1  MOL     C93    93  -0.1150000   12.0115
   94        CA    1  MOL     C94    94  -0.1150000   12.0115
   95        HC    1  MOL     H95    95   0.0600000    1.0080
   96        HC    1  MOL     H96    96   0.0600000    1.0080
   97        HC    1  MOL     H97    97   0.0600000    1.0080
   98        HA    1  MOL     H98    98   0.1150000    1.0080
   99        HA    1  MOL     H99    99   0.1150000    1.0080
  100        HA    1  MOL    H100   100   0.1150000    1.0080
  101        HA    1  MOL    H101   101   0.1150000    1.0080
  102        HA    1  MOL    H102   102   0.1150000    1.0080
  103        HA    1  MOL    H103   103   0.1150000    1.0080
  104        HA    1  MOL    H104   104   0.1150000    1.0080
  105        HA    1  MOL    H105   105   0.1150000    1.0080
  106        CT    1  MOL    C106   106  -0.1200000   12.0115
  107        CT    1  MOL    C107   107   0.1513000   12.0115
  108        NA    1  MOL    N108   108  -0.1333000   14.0067
  109      C56A    1  MOL    C109   109  -0.0390000   12.0115
  110      C56B    1  MOL    C110   110   0.0000000   12.0115
  111        CA    1  MOL    C111   111  -0.1150000   12.0115
  112        CA    1  MOL    C112   112  -0.1150000   12.0115
  113        CA    1  MOL    C113   113  -0.1150000   12.0115
  114        CA    1  MOL    C114   114  -0.1150000   12.0115
  115      C56B    1  MOL    C115   115   0.0000000   12.0115
  116      C56A    1  MOL    C116   116  -0.0390000   12.0115
  117        CA    1  MOL    C117   117  -0.1150000   12.0115
  118        CA    1  MOL    C118   118  -0.1150000   12.0115
  119        CA    1  MOL    C119   119  -0.1150000   12.0115
  120        CA    1  MOL    C120   120  -0.1150000   12.0115
  121        HC    1  MOL    H121   121   0.0600000    1.0080
  122        HC    1  MOL    H122   122   0.0600000    1.0080
  123        HC    1  MOL    H123   123   0.0600000    1.0080
  124        HA    1  MOL    H124   124   0.1150000    1.0080
  125        HA    1  MOL    H125   125   0.1150000    1.0080
  126        HA    1  MOL    H126   126   0.1150000    1.0080
  127        HA    1  MOL    H127   127   0.1150000    1.0080
  128        HA    1  MOL    H128   128   0.1150000    1.0080
  129        HA    1  MOL    H129   129   0.1150000    1.0080
  130        HA    1  MOL    H130   130   0.1150000    1.0080
  131        HA    1  MOL    H131   131   0.1150000    1.0080
  132        CT    1  MOL    C132   132  -0.1200000   12.0115
  133        CT    1  MOL    C133   133   0.1513000   12.0115
  134        NA    1  MOL    N134   134  -0.1333000   14.0067
  135      C56A    1  MOL    C135   135  -0.0390000   12.0115
  136      C56B    1  MOL    C136   136   0.0000000   12.0115
  137        CA    1  MOL    C137   137  -0.1150000   12.0115
  138        CA    1  MOL    C138   138  -0.1150000   12.0115
  139        CA    1  MOL    C139   139  -0.1150000   12.0115
  140        CA    1  MOL    C140   140  -0.1150000   12.0115
  141      C56B    1  MOL    C141   141   0.0000000   12.0115
  142      C56A    1  MOL    C142   142  -0.0390000   12.0115
  143        CA    1  MOL    C143   143  -0.1150000   12.0115
  144        CA    1  MOL    C144   144  -0.1150000   12.0115
  145        CA    1  MOL    C145   145  -0.1150000   12.0115
  146        CA    1  MOL    C146   146  -0.1150000   12.0115
  147        HC    1  MOL    H147   147   0.0600000    1.0080
  148        HC    1  MOL    H148   148   0.0600000    1.0080
  149        HC    1  MOL    H149   149   0.0600000    1.0080
  150        HA    1  MOL    H150   150   0.1150000    1.0080
  151        HA    1  MOL    H151   151   0.1150000    1.0080
  152        HA    1  MOL    H152   152   0.1150000    1.0080
  153        HA    1  MOL    H153   153   0.1150000    1.0080
  154        HA    1  MOL    H154   154   0.1150000    1.0080
  155        HA    1  MOL    H155   155   0.1150000    1.0080
  156        HA    1  MOL    H156   156   0.1150000    1.0080
  157        HA    1  MOL    H157   157   0.1150000    1.0080
  158        CT    1  MOL    C158   158  -0.1200000   12.0115
  159        CT    1  MOL    C159   159   0.1513000   12.0115
  160        NA    1  MOL    N160   160  -0.1333000   14.0067
  161      C56A    1  MOL    C161   161  -0.0390000   12.0115
  162      C56B    1  MOL    C162   162   0.0000000   12.0115
  163        CA    1  MOL    C163   163  -0.1150000   12.0115
  164        CA    1  MOL    C164   164  -0.1150000   12.0115
  165        CA    1  MOL    C165   165  -0.1150000   12.0115
  166        CA    1  MOL    C166   166  -0.1150000   12.0115
  167      C56B    1  MOL    C167   167   0.0000000   12.0115
  168      C56A    1  MOL    C168   168  -0.0390000   12.0115
  169        CA    1  MOL    C169   169  -0.1150000   12.0115
  170        CA    1  MOL    C170   170  -0.1150000   12.0115
  171        CA    1  MOL    C171   171  -0.1150000   12.0115
  172        CA    1  MOL    C172   172  -0.1150000   12.0115
  173        HC    1  MOL    H173   173   0.0600000    1.0080
  174        HC    1  MOL    H174   174   0.0600000    1.0080
  175        HC    1  MOL    H175   175   0.0600000    1.0080
  176        HA    1  MOL    H176   176   0.1150000    1.0080
  177        HA    1  MOL    H177   177   0.1150000    1.0080
  178        HA    1  MOL    H178   178   0.1150000    1.0080
  179        HA    1  MOL    H179   179   0.1150000    1.0080
  180        HA    1  MOL    H180   180   0.1150000    1.0080
  181        HA    1  MOL    H181   181   0.1150000    1.0080
  182        HA    1  MOL    H182   182   0.1150000    1.0080
  183        HA    1  MOL    H183   183   0.1150000    1.0080
  184        CT    1  MOL    C184   184  -0.1200000   12.0115
  185        CT    1  MOL    C185   185   0.1513000   12.0115
  186        NA    1  MOL    N186   186  -0.1333000   14.0067
  187      C56A    1  MOL    C187   187  -0.0390000   12.0115
  188      C56B    1  MOL    C188   188   0.0000000   12.0115
  189        CA    1  MOL    C189   189  -0.1150000   12.0115
  190        CA    1  MOL    C190   190  -0.1150000   12.0115
  191        CA    1  MOL    C191   191  -0.1150000   12.0115
  192        CA    1  MOL    C192   192  -0.1150000   12.0115
  193      C56B    1  MOL    C193   193   0.0000000   12.0115
  194      C56A    1  MOL    C194   194  -0.0390000   12.0115
  195        CA    1  MOL    C195   195  -0.1150000   12.0115
  196        CA    1  MOL    C196   196  -0.1150000   12.0115
  197        CA    1  MOL    C197   197  -0.1150000   12.0115
  198        CA    1  MOL    C198   198  -0.1150000   12.0115
  199        HC    1  MOL    H199   199   0.0600000    1.0080
  200        HC    1  MOL    H200   200   0.0600000    1.0080
  201        HC    1  MOL    H201   201   0.0600000    1.0080
  202        HA    1  MOL    H202   202   0.1150000    1.0080
  203        HA    1  MOL    H203   203   0.1150000    1.0080
  204        HA    1  MOL    H204   204   0.1150000    1.0080
  205        HA    1  MOL    H205   205   0.1150000    1.0080
  206        HA    1  MOL    H206   206   0.1150000    1.0080
  207        HA    1  MOL    H207   207   0.1150000    1.0080
  208        HA    1  MOL    H208   208   0.1150000    1.0080
  209        HA    1  MOL    H209   209   0.1150000    1.0080
  210        CT    1  MOL    C210   210  -0.1200000   12.0115
  211        CT    1  MOL    C211   211   0.1513000   12.0115
  212        NA    1  MOL    N212   212  -0.1333000   14.0067
  213      C56A    1  MOL    C213   213  -0.0390000   12.0115
  214      C56B    1  MOL    C214   214   0.0000000   12.0115
  215        CA    1  MOL    C215   215  -0.1150000   12.0115
  216        CA    1  MOL    C216   216  -0.1150000   12.0115
  217        CA    1  MOL    C217   217  -0.1150000   12.0115
  218        CA    1  MOL    C218   218  -0.1150000   12.0115
  219      C56B    1  MOL    C219   219   0.0000000   12.0115
  220      C56A    1  MOL    C220   220  -0.0390000   12.0115
  221        CA    1  MOL    C221   221  -0.1150000   12.0115
  222        CA    1  MOL    C222   222  -0.1150000   12.0115
  223        CA    1  MOL    C223   223  -0.1150000   12.0115
  224        CA    1  MOL    C224   224  -0.1150000   12.0115
  225        HC    1  MOL    H225   225   0.0600000    1.0080
  226        HC    1  MOL    H226   226   0.0600000    1.0080
  227        HC    1  MOL    H227   227   0.0600000    1.0080
  228        HA    1  MOL    H228   228   0.1150000    1.0080
  229        HA    1  MOL    H229   229   0.1150000    1.0080
  230        HA    1  MOL    H230   230   0.1150000    1.0080
  231        HA    1  MOL    H231   231   0.1150000    1.0080
  232        HA    1  MOL    H232   232   0.1150000    1.0080
  233        HA    1  MOL    H233   233   0.1150000    1.0080
  234        HA    1  MOL    H234   234   0.1150000    1.0080
  235        HA    1  MOL    H235   235   0.1150000    1.0080
  236        CT    1  MOL    C236   236  -0.1200000   12.0115
  237        CT    1  MOL    C237   237   0.1513000   12.0115
  238        NA    1  MOL    N238   238  -0.1333000   14.0067
  239      C56A    1  MOL    C239   239  -0.0390000   12.0115
  240      C56B    1  MOL    C240   240   0.0000000   12.0115
  241        CA    1  MOL    C241   241  -0.1150000   12.0115
  242        CA    1  MOL    C242   242  -0.1150000   12.0115
  243        CA    1  MOL    C243   243  -0.1150000   12.0115
  244        CA    1  MOL    C244   244  -0.1150000   12.0115
  245      C56B    1  MOL    C245   245   0.0000000   12.0115
  246      C56A    1  MOL    C246   246  -0.0390000   12.0115
  247        CA    1  MOL    C247   247  -0.1150000   12.0115
  248        CA    1  MOL    C248   248  -0.1150000   12.0115
  249        CA    1  MOL    C249   249  -0.1150000   12.0115
  250        CA    1  MOL    C250   250  -0.1150000   12.0115
  251        HC    1  MOL    H251   251   0.0600000    1.0080
  252        HC    1  MOL    H252   252   0.0600000    1.0080
  253        HC    1  MOL    H253   253   0.0600000    1.0080
  254        HA    1  MOL    H254   254   0.1150000    1.0080
  255        HA    1  MOL    H255   255   0.1150000    1.0080
  256        HA    1  MOL    H256   256   0.1150000    1.0080
  257        HA    1  MOL    H257   257   0.1150000    1.0080
  258        HA    1  MOL    H258   258   0.1150000    1.0080
  259        HA    1  MOL    H259   259   0.1150000    1.0080
  260        HA    1  MOL    H260   260   0.1150000    1.0080
  261        HA    1  MOL    H261   261   0.1150000    1.0080
  262        CT    1  MOL    C262   262  -0.1200000   12.0115
  263        CT    1  MOL    C263   263   0.1513000   12.0115
  264        NA    1  MOL    N264   264  -0.1333000   14.0067
  265      C56A    1  MOL    C265   265  -0.0390000   12.0115
  266      C56B    1  MOL    C266   266   0.0000000   12.0115
  267        CA    1  MOL    C267   267  -0.1150000   12.0115
  268        CA    1  MOL    C268   268  -0.1150000   12.0115
  269        CA    1  MOL    C269   269  -0.1150000   12.0115
  270        CA    1  MOL    C270   270  -0.1150000   12.0115
  271      C56B    1  MOL    C271   271   0.0000000   12.0115
  272      C56A    1  MOL    C272   272  -0.0390000   12.0115
  273        CA    1  MOL    C273   273  -0.1150000   12.0115
  274        CA    1  MOL    C274   274  -0.1150000   12.0115
  275        CA    1  MOL    C275   275  -0.1150000   12.0115
  276        CA    1  MOL    C276   276  -0.1150000   12.0115
  277        HC    1  MOL    H277   277   0.0600000    1.0080
  278        HC    1  MOL    H278   278   0.0600000    1.0080
  279        HC    1  MOL    H279   279   0.0600000    1.0080
  280        HA    1  MOL    H280   280   0.1150000    1.0080
  281        HA    1  MOL    H281   281   0.1150000    1.0080
  282        HA    1  MOL    H282   282   0.1150000    1.0080
  283        HA    1  MOL    H283   283   0.1150000    1.0080
  284        HA    1  MOL    H284   284   0.1150000    1.0080
  285        HA    1  MOL    H285   285   0.1150000    1.0080
  286        HA    1  MOL    H286   286   0.1150000    1.0080
  287        HA    1  MOL    H287   287   0.1150000    1.0080
  288        CT    1  MOL    C288   288  -0.1200000   12.0115
  289        CT    1  MOL    C289   289   0.1513000   12.0115
  290        NA    1  MOL    N290   290  -0.1333000   14.0067
  291      C56A    1  MOL    C291   291  -0.0390000   12.0115
  292      C56B    1  MOL    C292   292   0.0000000   12.0115
  293        CA    1  MOL    C293   293  -0.1150000   12.0115
  294        CA    1  MOL    C294   294  -0.1150000   12.0115
  295        CA    1  MOL    C295   295  -0.1150000   12.0115
  296        CA    1  MOL    C296   296  -0.1150000   12.0115
  297      C56B    1  MOL    C297   297   0.0000000   12.0115
  298      C56A    1  MOL    C298   298  -0.0390000   12.0115
  299        CA    1  MOL    C299   299  -0.1150000   12.0115
  300        CA    1  MOL    C300   300  -0.1150000   12.0115
  301        CA    1  MOL    C301   301  -0.1150000   12.0115
  302        CA    1  MOL    C302   302  -0.1150000   12.0115
  303        HC    1  MOL    H303   303   0.0600000    1.0080
  304        HC    1  MOL    H304   304   0.0600000    1.0080
  305        HC    1  MOL    H305   305   0.0600000    1.0080
  306        HA    1  MOL    H306   306   0.1150000    1.0080
  307        HA    1  MOL    H307   307   0.1150000    1.0080
  308        HA    1  MOL    H308   308   0.1150000    1.0080
  309        HA    1  MOL    H309   309   0.1150000    1.0080
  310        HA    1  MOL    H310   310   0.1150000    1.0080
  311        HA    1  MOL    H311   311   0.1150000    1.0080
  312        HA    1  MOL    H312   312   0.1150000    1.0080
  313        HA    1  MOL    H313   313   0.1150000    1.0080
  314        CT    1  MOL    C314   314  -0.1200000   12.0115
  315        CT    1  MOL    C315   315   0.1513000   12.0115
  316        NA    1  MOL    N316   316  -0.1333000   14.0067
  317      C56A    1  MOL    C317   317  -0.0390000   12.0115
  318      C56B    1  MOL    C318   318   0.0000000   12.0115
  319        CA    1  MOL    C319   319  -0.1150000   12.0115
  320        CA    1  MOL    C320   320  -0.1150000   12.0115
  321        CA    1  MOL    C321   321  -0.1150000   12.0115
  322        CA    1  MOL    C322   322  -0.1150000   12.0115
  323      C56B    1  MOL    C323   323   0.0000000   12.0115
  324      C56A    1  MOL    C324   324  -0.0390000   12.0115
  325        CA    1  MOL    C325   325  -0.1150000   12.0115
  326        CA    1  MOL    C326   326  -0.1150000   12.0115
  327        CA    1  MOL    C327   327  -0.1150000   12.0115
  328        CA    1  MOL    C328   328  -0.1150000   12.0115
  329        HC    1  MOL    H329   329   0.0600000    1.0080
  330        HC    1  MOL    H330   330   0.0600000    1.0080
  331        HC    1  MOL    H331   331   0.0600000    1.0080
  332        HA    1  MOL    H332   332   0.1150000    1.0080
  333        HA    1  MOL    H333   333   0.1150000    1.0080
  334        HA    1  MOL    H334   334   0.1150000    1.0080
  335        HA    1  MOL    H335   335   0.1150000    1.0080
  336        HA    1  MOL    H336   336   0.1150000    1.0080
  337        HA    1  MOL    H337   337   0.1150000    1.0080
  338        HA    1  MOL    H338   338   0.1150000    1.0080
  339        HA    1  MOL    H339   339   0.1150000    1.0080
  340        CT    1  MOL    C340   340  -0.1200000   12.0115
  341        CT    1  MOL    C341   341   0.1513000   12.0115
  342        NA    1  MOL    N342   342  -0.1333000   14.0067
  343      C56A    1  MOL    C343   343  -0.0390000   12.0115
  344      C56B    1  MOL    C344   344   0.0000000   12.0115
  345        CA    1  MOL    C345   345  -0.1150000   12.0115
  346        CA    1  MOL    C346   346  -0.1150000   12.0115
  347        CA    1  MOL    C347   347  -0.1150000   12.0115
  348        CA    1  MOL    C348   348  -0.1150000   12.0115
  349      C56B    1  MOL    C349   349   0.0000000   12.0115
  350      C56A    1  MOL    C350   350  -0.0390000   12.0115
  351        CA    1  MOL    C351   351  -0.1150000   12.0115
  352        CA    1  MOL    C352   352  -0.1150000   12.0115
  353        CA    1  MOL    C353   353  -0.1150000   12.0115
  354        CA    1  MOL    C354   354  -0.1150000   12.0115
  355        HC    1  MOL    H355   355   0.0600000    1.0080
  356        HC    1  MOL    H356   356   0.0600000    1.0080
  357        HC    1  MOL    H357   357   0.0600000    1.0080
  358        HA    1  MOL    H358   358   0.1150000    1.0080
  359        HA    1  MOL    H359   359   0.1150000    1.0080
  360        HA    1  MOL    H360   360   0.1150000    1.0080
  361        HA    1  MOL    H361   361   0.1150000    1.0080
  362        HA    1  MOL    H362   362   0.1150000    1.0080
  363        HA    1  MOL    H363   363   0.1150000    1.0080
  364        HA    1  MOL    H364   364   0.1150000    1.0080
  365        HA    1  MOL    H365   365   0.1150000    1.0080
  366        CT    1  MOL    C366   366  -0.1200000   12.0115
  367        CT    1  MOL    C367   367   0.1513000   12.0115
  368        NA    1  MOL    N368   368  -0.1333000   14.0067
  369      C56A    1  MOL    C369   369  -0.0390000   12.0115
  370      C56B    1  MOL    C370   370   0.0000000   12.0115
  371        CA    1  MOL    C371   371  -0.1150000   12.0115
  372        CA    1  MOL    C372   372  -0.1150000   12.0115
  373        CA    1  MOL    C373   373  -0.1150000   12.0115
  374        CA    1  MOL    C374   374  -0.1150000   12.0115
  375      C56B    1  MOL    C375   375   0.0000000   12.0115
  376      C56A    1  MOL    C376   376  -0.0390000   12.0115
  377        CA    1  MOL    C377   377  -0.1150000   12.0115
  378        CA    1  MOL    C378   378  -0.1150000   12.0115
  379        CA    1  MOL    C379   379  -0.1150000   12.0115
  380        CA    1  MOL    C380   380  -0.1150000   12.0115
  381        HC    1  MOL    H381   381   0.0600000    1.0080
  382        HC    1  MOL    H382   382   0.0600000    1.0080
  383        HC    1  MOL    H383   383   0.0600000    1.0080
  384        HA    1  MOL    H384   384   0.1150000    1.0080
  385        HA    1  MOL    H385   385   0.1150000    1.0080
  386        HA    1  MOL    H386   386   0.1150000    1.0080
  387        HA    1  MOL    H387   387   0.1150000    1.0080
  388        HA    1  MOL    H388   388   0.1150000    1.0080
  389        HA    1  MOL    H389   389   0.1150000    1.0080
  390        HA    1  MOL    H390   390   0.1150000    1.0080
  391        HA    1  MOL    H391   391   0.1150000    1.0080
  392        CT    1  MOL    C392   392  -0.1200000   12.0115
  393        CT    1  MOL    C393   393   0.1513000   12.0115
  394        NA    1  MOL    N394   394  -0.1333000   14.0067
  395      C56A    1  MOL    C395   395  -0.0390000   12.0115
  396      C56B    1  MOL    C396   396   0.0000000   12.0115
  397        CA    1  MOL    C397   397  -0.1150000   12.0115
  398        CA    1  MOL    C398   398  -0.1150000   12.0115
  399        CA    1  MOL    C399   399  -0.1150000   12.0115
  400        CA    1  MOL    C400   400  -0.1150000   12.0115
  401      C56B    1  MOL    C401   401   0.0000000   12.0115
  402      C56A    1  MOL    C402   402  -0.0390000   12.0115
  403        CA    1  MOL    C403   403  -0.1150000   12.0115
  404        CA    1  MOL    C404   404  -0.1150000   12.0115
  405        CA    1  MOL    C405   405  -0.1150000   12.0115
  406        CA    1  MOL    C406   406  -0.1150000   12.0115
  407        HC    1  MOL    H407   407   0.0600000    1.0080
  408        HC    1  MOL    H408   408   0.0600000    1.0080
  409        HC    1  MOL    H409   409   0.0600000    1.0080
  410        HA    1  MOL    H410   410   0.1150000    1.0080
  411        HA    1  MOL    H411   411   0.1150000    1.0080
  412        HA    1  MOL    H412   412   0.1150000    1.0080
  413        HA    1  MOL    H413   413   0.1150000    1.0080
  414        HA    1  MOL    H414   414   0.1150000    1.0080
  415        HA    1  MOL    H415   415   0.1150000    1.0080
  416        HA    1  MOL    H416   416   0.1150000    1.0080
  417        HA    1  MOL    H417   417   0.1150000    1.0080
  418        CT    1  MOL    C418   418  -0.1200000   12.0115
  419        CT    1  MOL    C419   419   0.1513000   12.0115
  420        NA    1  MOL    N420   420  -0.1333000   14.0067
  421      C56A    1  MOL    C421   421  -0.0390000   12.0115
  422      C56B    1  MOL    C422   422   0.0000000   12.0115
  423        CA    1  MOL    C423   423  -0.1150000   12.0115
  424        CA    1  MOL    C424   424  -0.1150000   12.0115
  425        CA    1  MOL    C425   425  -0.1150000   12.0115
  426        CA    1  MOL    C426   426  -0.1150000   12.0115
  427      C56B    1  MOL    C427   427   0.0000000   12.0115
  428      C56A    1  MOL    C428   428  -0.0390000   12.0115
  429        CA    1  MOL    C429   429  -0.1150000   12.0115
  430        CA    1  MOL    C430   430  -0.1150000   12.0115
  431        CA    1  MOL    C431   431  -0.1150000   12.0115
  432        CA    1  MOL    C432   432  -0.1150000   12.0115
  433        HC    1  MOL    H433   433   0.0600000    1.0080
  434        HC    1  MOL    H434   434   0.0600000    1.0080
  435        HC    1  MOL    H435   435   0.0600000    1.0080
  436        HA    1  MOL    H436   436   0.1150000    1.0080
  437        HA    1  MOL    H437   437   0.1150000    1.0080
  438        HA    1  MOL    H438   438   0.1150000    1.0080
  439        HA    1  MOL    H439   439   0.1150000    1.0080
  440        HA    1  MOL    H440   440   0.1150000    1.0080
  441        HA    1  MOL    H441   441   0.1150000    1.0080
  442        HA    1  MOL    H442   442   0.1150000    1.0080
  443        HA    1  MOL    H443   443   0.1150000    1.0080
  444        CT    1  MOL    C444   444  -0.1200000   12.0115
  445        CT    1  MOL    C445   445   0.1513000   12.0115
  446        NA    1  MOL    N446   446  -0.1333000   14.0067
  447      C56A    1  MOL    C447   447  -0.0390000   12.0115
  448      C56B    1  MOL    C448   448   0.0000000   12.0115
  449        CA    1  MOL    C449   449  -0.1150000   12.0115
  450        CA    1  MOL    C450   450  -0.1150000   12.0115
  451        CA    1  MOL    C451   451  -0.1150000   12.0115
  452        CA    1  MOL    C452   452  -0.1150000   12.0115
  453      C56B    1  MOL    C453   453   0.0000000   12.0115
  454      C56A    1  MOL    C454   454  -0.0390000   12.0115
  455        CA    1  MOL    C455   455  -0.1150000   12.0115
  456        CA    1  MOL    C456   456  -0.1150000   12.0115
  457        CA    1  MOL    C457   457  -0.1150000   12.0115
  458        CA    1  MOL    C458   458  -0.1150000   12.0115
  459        HC    1  MOL    H459   459   0.0600000    1.0080
  460        HC    1  MOL    H460   460   0.0600000    1.0080
  461        HC    1  MOL    H461   461   0.0600000    1.0080
  462        HA    1  MOL    H462   462   0.1150000    1.0080
  463        HA    1  MOL    H463   463   0.1150000    1.0080
  464        HA    1  MOL    H464   464   0.1150000    1.0080
  465        HA    1  MOL    H465   465   0.1150000    1.0080
  466        HA    1  MOL    H466   466   0.1150000    1.0080
  467        HA    1  MOL    H467   467   0.1150000    1.0080
  468        HA    1  MOL    H468   468   0.1150000    1.0080
  469        HA    1  MOL    H469   469   0.1150000    1.0080
  470        CT    1  MOL    C470   470  -0.1200000   12.0115
  471        CT    1  MOL    C471   471   0.1513000   12.0115
  472        NA    1  MOL    N472   472  -0.1333000   14.0067
  473      C56A    1  MOL    C473   473  -0.0390000   12.0115
  474      C56B    1  MOL    C474   474   0.0000000   12.0115
  475        CA    1  MOL    C475   475  -0.1150000   12.0115
  476        CA    1  MOL    C476   476  -0.1150000   12.0115
  477        CA    1  MOL    C477   477  -0.1150000   12.0115
  478        CA    1  MOL    C478   478  -0.1150000   12.0115
  479      C56B    1  MOL    C479   479   0.0000000   12.0115
  480      C56A    1  MOL    C480   480  -0.0390000   12.0115
  481        CA    1  MOL    C481   481  -0.1150000   12.0115
  482        CA    1  MOL    C482   482  -0.1150000   12.0115
  483        CA    1  MOL    C483   483  -0.1150000   12.0115
  484        CA    1  MOL    C484   484  -0.1150000   12.0115
  485        HC    1  MOL    H485   485   0.0600000    1.0080
  486        HC    1  MOL    H486   486   0.0600000    1.0080
  487        HC    1  MOL    H487   487   0.0600000    1.0080
  488        HA    1  MOL    H488   488   0.1150000    1.0080
  489        HA    1  MOL    H489   489   0.1150000    1.0080
  490        HA    1  MOL    H490   490   0.1150000    1.0080
  491        HA    1  MOL    H491   491   0.1150000    1.0080
  492        HA    1  MOL    H492   492   0.1150000    1.0080
  493        HA    1  MOL    H493   493   0.1150000    1.0080
  494        HA    1  MOL    H494   494   0.1150000    1.0080
  495        HA    1  MOL    H495   495   0.1150000    1.0080
  496        CT    1  MOL    C496   496  -0.1200000   12.0115
  497        CT    1  MOL    C497   497   0.0913000   12.0115
  498        NA    1  MOL    N498   498  -0.1333000   14.0067
  499      C56A    1  MOL    C499   499  -0.0390000   12.0115
  500      C56B    1  MOL    C500   500   0.0000000   12.0115
  501        CA    1  MOL    C501   501  -0.1150000   12.0115
  502        CA    1  MOL    C502   502  -0.1150000   12.0115
  503        CA    1  MOL    C503   503  -0.1150000   12.0115
  504        CA    1  MOL    C504   504  -0.1150000   12.0115
  505      C56B    1  MOL    C505   505   0.0000000   12.0115
  506      C56A    1  MOL    C506   506  -0.0390000   12.0115
  507        CA    1  MOL    C507   507  -0.1150000   12.0115
  508        CA    1  MOL    C508   508  -0.1150000   12.0115
  509        CA    1  MOL    C509   509  -0.1150000   12.0115
  510        CA    1  MOL    C510   510  -0.1150000   12.0115
  511        HC    1  MOL    H511   511   0.0600000    1.0080
  512        HC    1  MOL    H512   512   0.0600000    1.0080
  513        HC    1  MOL    H513   513   0.0600000    1.0080
  514        HA    1  MOL    H514   514   0.1150000    1.0080
  515        HA    1  MOL    H515   515   0.1150000    1.0080
  516        HA    1  MOL    H516   516   0.1150000    1.0080
  517        HA    1  MOL    H517   517   0.1150000    1.0080
  518        HA    1  MOL    H518   518   0.1150000    1.0080
  519        HA    1  MOL    H519   519   0.1150000    1.0080
  520        HA    1  MOL    H520   520   0.1150000    1.0080
  521        HA    1  MOL    H521   521   0.1150000    1.0080
  522        HC    1  MOL    H522   522   0.0600000    1.0080

[ bonds ]
      1      2   1      0.1529 224262.4000
      1     16   1      0.1090 284512.0000
      1     17   1      0.1090 284512.0000
      1     27   1      0.1090 284512.0000
      2      3   1      0.1443 267776.0000
      2     18   1      0.1090 284512.0000
      2     28   1      0.1529 224262.4000
      3      4   1      0.1380 358150.4000
      3     11   1      0.1380 358150.4000
      4      5   1      0.1419 374049.6000
      4      9   1      0.1400 392459.2000
      5      6   1      0.1404 392459.2000
      5     10   1      0.1456 305432.0000
      6      7   1      0.1400 392459.2000
      6     19   1      0.1080 307105.6000
      7      8   1      0.1400 392459.2000
      7     20   1      0.1080 307105.6000
      8      9   1      0.1400 392459.2000
      8     21   1      0.1080 307105.6000
      9     22   1      0.1080 307105.6000
     10     11   1      0.1419 374049.6000
     10     15   1      0.1404 392459.2000
     11     12   1      0.1400 392459.2000
     12     13   1      0.1400 392459.2000
     12     23   1      0.1080 307105.6000
     13     14   1      0.1400 392459.2000
     13     24   1      0.1080 307105.6000
     14     15   1      0.1400 392459.2000
     14     25   1      0.1080 307105.6000
     15     26   1      0.1080 307105.6000
     28     29   1      0.1529 224262.4000
     28     43   1      0.1090 284512.0000
     28     44   1      0.1090 284512.0000
     29     30   1      0.1443 267776.0000
     29     45   1      0.1090 284512.0000
     29     54   1      0.1529 224262.4000
     30     31   1      0.1380 358150.4000
     30     38   1      0.1380 358150.4000
     31     32   1      0.1419 374049.6000
     31     36   1      0.1400 392459.2000
     32     33   1      0.1404 392459.2000
     32     37   1      0.1456 305432.0000
     33     34   1      0.1400 392459.2000
     33     46   1      0.1080 307105.6000
     34     35   1      0.1400 392459.2000
     34     47   1      0.1080 307105.6000
     35     36   1      0.1400 392459.2000
     35     48   1      0.1080 307105.6000
     36     49   1      0.1080 307105.6000
     37     38   1      0.1419 374049.6000
     37     42   1      0.1404 392459.2000
     38     39   1      0.1400 392459.2000
     39     40   1      0.1400 392459.2000
     39     50   1      0.1080 307105.6000
     40     41   1      0.1400 392459.2000
     40     51   1      0.1080 307105.6000
     41     42   1      0.1400 392459.2000
     41     52   1      0.1080 307105.6000
     42     53   1      0.1080 307105.6000
     54     55   1      0.1529 224262.4000
     54     69   1      0.1090 284512.0000
     54     70   1      0.1090 284512.0000
     55     56   1      0.1443 267776.0000
     55     71   1      0.1090 284512.0000
     55     80   1      0.1529 224262.4000
     56     57   1      0.1380 358150.4000
     56     64   1      0.1380 358150.4000
     57     58   1      0.1419 374049.6000
     57     62   1      0.1400 392459.2000
     58     59   1      0.1404 392459.2000
     58     63   1      0.1456 305432.0000
     59     60   1      0.1400 392459.2000
     59     72   1      0.1080 307105.6000
     60     61   1      0.1400 392459.2000
     60     73   1      0.1080 307105.6000
     61     62   1      0.1400 392459.2000
     61     74   1      0.1080 307105.6000
     62     75   1      0.1080 307105.6000
     63     64   1      0.1419 374049.6000
     63     68   1      0.1404 392459.2000
     64     65   1      0.1400 392459.2000
     65     66   1      0.1400 392459.2000
     65     76   1      0.1080 307105.6000
     66     67   1      0.1400 392459.2000
     66     77   1      0.1080 307105.6000
     67     68   1      0.1400 392459.2000
     67     78   1      0.1080 307105.6000
     68     79   1      0.1080 307105.6000
     80     81   1      0.1529 224262.4000
     80     95   1      0.1090 284512.0000
     80     96   1      0.1090 284512.0000
     81     82   1      0.1443 267776.0000
     81     97   1      0.1090 284512.0000
     81    106   1      0.1529 224262.4000
     82     83   1      0.1380 358150.4000
     82     90   1      0.1380 358150.4000
     83     84   1      0.1419 374049.6000
     83     88   1      0.1400 392459.2000
     84     85   1      0.1404 392459.2000
     84     89   1      0.1456 305432.0000
     85     86   1      0.1400 392459.2000
     85     98   1      0.1080 307105.6000
     86     87   1      0.1400 392459.2000
     86     99   1      0.1080 307105.6000
     87     88   1      0.1400 392459.2000
     87    100   1      0.1080 307105.6000
     88    101   1      0.1080 307105.6000
     89     90   1      0.1419 374049.6000
     89     94   1      0.1404 392459.2000
     90     91   1      0.1400 392459.2000
     91     92   1      0.1400 392459.2000
     91    102   1      0.1080 307105.6000
     92     93   1      0.1400 392459.2000
     92    103   1      0.1080 307105.6000
     93     94   1      0.1400 392459.2000
     93    104   1      0.1080 307105.6000
     94    105   1      0.1080 307105.6000
    106    107   1      0.1529 224262.4000
    106    121   1      0.1090 284512.0000
    106    122   1      0.1090 284512.0000
    107    108   1      0.1443 267776.0000
    107    123   1      0.1090 284512.0000
    107    132   1      0.1529 224262.4000
    108    109   1      0.1380 358150.4000
    108    116   1      0.1380 358150.4000
    109    110   1      0.1419 374049.6000
    109    114   1      0.1400 392459.2000
    110    111   1      0.1404 392459.2000
    110    115   1      0.1456 305432.0000
    111    112   1      0.1400 392459.2000
    111    124   1      0.1080 307105.6000
    112    113   1      0.1400 392459.2000
    112    125   1      0.1080 307105.6000
    113    114   1      0.1400 392459.2000
    113    126   1      0.1080 307105.6000
    114    127   1      0.1080 307105.6000
    115    116   1      0.1419 374049.6000
    115    120   1      0.1404 392459.2000
    116    117   1      0.1400 392459.2000
    117    118   1      0.1400 392459.2000
    117    128   1      0.1080 307105.6000
    118    119   1      0.1400 392459.2000
    118    129   1      0.1080 307105.6000
    119    120   1      0.1400 392459.2000
    119    130   1      0.1080 307105.6000
    120    131   1      0.1080 307105.6000
    132    133   1      0.1529 224262.4000
    132    147   1      0.1090 284512.0000
    132    148   1      0.1090 284512.0000
    133    134   1      0.1443 267776.0000
    133    149   1      0.1090 284512.0000
    133    158   1      0.1529 224262.4000
    134    135   1      0.1380 358150.4000
    134    142   1      0.1380 358150.4000
    135    136   1      0.1419 374049.6000
    135    140   1      0.1400 392459.2000
    136    137   1      0.1404 392459.2000
    136    141   1      0.1456 305432.0000
    137    138   1      0.1400 392459.2000
    137    150   1      0.1080 307105.6000
    138    139   1      0.1400 392459.2000
    138    151   1      0.1080 307105.6000
    139    140   1      0.1400 392459.2000
    139    152   1      0.1080 307105.6000
    140    153   1      0.1080 307105.6000
    141    142   1      0.1419 374049.6000
    141    146   1      0.1404 392459.2000
    142    143   1      0.1400 392459.2000
    143    144   1      0.1400 392459.2000
    143    154   1      0.1080 307105.6000
    144    145   1      0.1400 392459.2000
    144    155   1      0.1080 307105.6000
    145    146   1      0.1400 392459.2000
    145    156   1      0.1080 307105.6000
    146    157   1      0.1080 307105.6000
    158    159   1      0.1529 224262.4000
    158    173   1      0.1090 284512.0000
    158    174   1      0.1090 284512.0000
    159    160   1      0.1443 267776.0000
    159    175   1      0.1090 284512.0000
    159    184   1      0.1529 224262.4000
    160    161   1      0.1380 358150.4000
    160    168   1      0.1380 358150.4000
    161    162   1      0.1419 374049.6000
    161    166   1      0.1400 392459.2000
    162    163   1      0.1404 392459.2000
    162    167   1      0.1456 305432.0000
    163    164   1      0.1400 392459.2000
    163    176   1      0.1080 307105.6000
    164    165   1      0.1400 392459.2000
    164    177   1      0.1080 307105.6000
    165    166   1      0.1400 392459.2000
    165    178   1      0.1080 307105.6000
    166    179   1      0.1080 307105.6000
    167    168   1      0.1419 374049.6000
    167    172   1      0.1404 392459.2000
    168    169   1      0.1400 392459.2000
    169    170   1      0.1400 392459.2000
    169    180   1      0.1080 307105.6000
    170    171   1      0.1400 392459.2000
    170    181   1      0.1080 307105.6000
    171    172   1      0.1400 392459.2000
    171    182   1      0.1080 307105.6000
    172    183   1      0.1080 307105.6000
    184    185   1      0.1529 224262.4000
    184    199   1      0.1090 284512.0000
    184    200   1      0.1090 284512.0000
    185    186   1      0.1443 267776.0000
    185    201   1      0.1090 284512.0000
    185    210   1      0.1529 224262.4000
    186    187   1      0.1380 358150.4000
    186    194   1      0.1380 358150.4000
    187    188   1      0.1419 374049.6000
    187    192   1      0.1400 392459.2000
    188    189   1      0.1404 392459.2000
    188    193   1      0.1456 305432.0000
    189    190   1      0.1400 392459.2000
    189    202   1      0.1080 307105.6000
    190    191   1      0.1400 392459.2000
    190    203   1      0.1080 307105.6000
    191    192   1      0.1400 392459.2000
    191    204   1      0.1080 307105.6000
    192    205   1      0.1080 307105.6000
    193    194   1      0.1419 374049.6000
    193    198   1      0.1404 392459.2000
    194    195   1      0.1400 392459.2000
    195    196   1      0.1400 392459.2000
    195    206   1      0.1080 307105.6000
    196    197   1      0.1400 392459.2000
    196    207   1      0.1080 307105.6000
    197    198   1      0.1400 392459.2000
    197    208   1      0.1080 307105.6000
    198    209   1      0.1080 307105.6000
    210    211   1      0.1529 224262.4000
    210    225   1      0.1090 284512.0000
    210    226   1      0.1090 284512.0000
    211    212   1      0.1443 267776.0000
    211    227   1      0.1090 284512.0000
    211    236   1      0.1529 224262.4000
    212    213   1      0.1380 358150.4000
    212    220   1      0.1380 358150.4000
    213    214   1      0.1419 374049.6000
    213    218   1      0.1400 392459.2000
    214    215   1      0.1404 392459.2000
    214    219   1      0.1456 305432.0000
    215    216   1      0.1400 392459.2000
    215    228   1      0.1080 307105.6000
    216    217   1      0.1400 392459.2000
    216    229   1      0.1080 307105.6000
    217    218   1      0.1400 392459.2000
    217    230   1      0.1080 307105.6000
    218    231   1      0.1080 307105.6000
    219    220   1      0.1419 374049.6000
    219    224   1      0.1404 392459.2000
    220    221   1      0.1400 392459.2000
    221    222   1      0.1400 392459.2000
    221    232   1      0.1080 307105.6000
    222    223   1      0.1400 392459.2000
    222    233   1      0.1080 307105.6000
    223    224   1      0.1400 392459.2000
    223    234   1      0.1080 307105.6000
    224    235   1      0.1080 307105.6000
    236    237   1      0.1529 224262.4000
    236    251   1      0.1090 284512.0000
    236    252   1      0.1090 284512.0000
    237    238   1      0.1443 267776.0000
    237    253   1      0.1090 284512.0000
    237    262   1      0.1529 224262.4000
    238    239   1      0.1380 358150.4000
    238    246   1      0.1380 358150.4000
    239    240   1      0.1419 374049.6000
    239    244   1      0.1400 392459.2000
    240    241   1      0.1404 392459.2000
    240    245   1      0.1456 305432.0000
    241    242   1      0.1400 392459.2000
    241    254   1      0.1080 307105.6000
    242    243   1      0.1400 392459.2000
    242    255   1      0.1080 307105.6000
    243    244   1      0.1400 392459.2000
    243    256   1      0.1080 307105.6000
    244    257   1      0.1080 307105.6000
    245    246   1      0.1419 374049.6000
    245    250   1      0.1404 392459.2000
    246    247   1      0.1400 392459.2000
    247    248   1      0.1400 392459.2000
    247    258   1      0.1080 307105.6000
    248    249   1      0.1400 392459.2000
    248    259   1      0.1080 307105.6000
    249    250   1      0.1400 392459.2000
    249    260   1      0.1080 307105.6000
    250    261   1      0.1080 307105.6000
    262    263   1      0.1529 224262.4000
    262    277   1      0.1090 284512.0000
    262    278   1      0.1090 284512.0000
    263    264   1      0.1443 267776.0000
    263    279   1      0.1090 284512.0000
    263    288   1      0.1529 224262.4000
    264    265   1      0.1380 358150.4000
    264    272   1      0.1380 358150.4000
    265    266   1      0.1419 374049.6000
    265    270   1      0.1400 392459.2000
    266    267   1      0.1404 392459.2000
    266    271   1      0.1456 305432.0000
    267    268   1      0.1400 392459.2000
    267    280   1      0.1080 307105.6000
    268    269   1      0.1400 392459.2000
    268    281   1      0.1080 307105.6000
    269    270   1      0.1400 392459.2000
    269    282   1      0.1080 307105.6000
    270    283   1      0.1080 307105.6000
    271    272   1      0.1419 374049.6000
    271    276   1      0.1404 392459.2000
    272    273   1      0.1400 392459.2000
    273    274   1      0.1400 392459.2000
    273    284   1      0.1080 307105.6000
    274    275   1      0.1400 392459.2000
    274    285   1      0.1080 307105.6000
    275    276   1      0.1400 392459.2000
    275    286   1      0.1080 307105.6000
    276    287   1      0.1080 307105.6000
    288    289   1      0.1529 224262.4000
    288    303   1      0.1090 284512.0000
    288    304   1      0.1090 284512.0000
    289    290   1      0.1443 267776.0000
    289    305   1      0.1090 284512.0000
    289    314   1      0.1529 224262.4000
    290    291   1      0.1380 358150.4000
    290    298   1      0.1380 358150.4000
    291    292   1      0.1419 374049.6000
    291    296   1      0.1400 392459.2000
    292    293   1      0.1404 392459.2000
    292    297   1      0.1456 305432.0000
    293    294   1      0.1400 392459.2000
    293    306   1      0.1080 307105.6000
    294    295   1      0.1400 392459.2000
    294    307   1      0.1080 307105.6000
    295    296   1      0.1400 392459.2000
    295    308   1      0.1080 307105.6000
    296    309   1      0.1080 307105.6000
    297    298   1      0.1419 374049.6000
    297    302   1      0.1404 392459.2000
    298    299   1      0.1400 392459.2000
    299    300   1      0.1400 392459.2000
    299    310   1      0.1080 307105.6000
    300    301   1      0.1400 392459.2000
    300    311   1      0.1080 307105.6000
    301    302   1      0.1400 392459.2000
    301    312   1      0.1080 307105.6000
    302    313   1      0.1080 307105.6000
    314    315   1      0.1529 224262.4000
    314    329   1      0.1090 284512.0000
    314    330   1      0.1090 284512.0000
    315    316   1      0.1443 267776.0000
    315    331   1      0.1090 284512.0000
    315    340   1      0.1529 224262.4000
    316    317   1      0.1380 358150.4000
    316    324   1      0.1380 358150.4000
    317    318   1      0.1419 374049.6000
    317    322   1      0.1400 392459.2000
    318    319   1      0.1404 392459.2000
    318    323   1      0.1456 305432.0000
    319    320   1      0.1400 392459.2000
    319    332   1      0.1080 307105.6000
    320    321   1      0.1400 392459.2000
    320    333   1      0.1080 307105.6000
    321    322   1      0.1400 392459.2000
    321    334   1      0.1080 307105.6000
    322    335   1      0.1080 307105.6000
    323    324   1      0.1419 374049.6000
    323    328   1      0.1404 392459.2000
    324    325   1      0.1400 392459.2000
    325    326   1      0.1400 392459.2000
    325    336   1      0.1080 307105.6000
    326    327   1      0.1400 392459.2000
    326    337   1      0.1080 307105.6000
    327    328   1      0.1400 392459.2000
    327    338   1      0.1080 307105.6000
    328    339   1      0.1080 307105.6000
    340    341   1      0.1529 224262.4000
    340    355   1      0.1090 284512.0000
    340    356   1      0.1090 284512.0000
    341    342   1      0.1443 267776.0000
    341    357   1      0.1090 284512.0000
    341    366   1      0.1529 224262.4000
    342    343   1      0.1380 358150.4000
    342    350   1      0.1380 358150.4000
    343    344   1      0.1419 374049.6000
    343    348   1      0.1400 392459.2000
    344    345   1      0.1404 392459.2000
    344    349   1      0.1456 305432.0000
    345    346   1      0.1400 392459.2000
    345    358   1      0.1080 307105.6000
    346    347   1      0.1400 392459.2000
    346    359   1      0.1080 307105.6000
    347    348   1      0.1400 392459.2000
    347    360   1      0.1080 307105.6000
    348    361   1      0.1080 307105.6000
    349    350   1      0.1419 374049.6000
    349    354   1      0.1404 392459.2000
    350    351   1      0.1400 392459.2000
    351    352   1      0.1400 392459.2000
    351    362   1      0.1080 307105.6000
    352    353   1      0.1400 392459.2000
    352    363   1      0.1080 307105.6000
    353    354   1      0.1400 392459.2000
    353    364   1      0.1080 307105.6000
    354    365   1      0.1080 307105.6000
    366    367   1      0.1529 224262.4000
    366    381   1      0.1090 284512.0000
    366    382   1      0.1090 284512.0000
    367    368   1      0.1443 267776.0000
    367    383   1      0.1090 284512.0000
    367    392   1      0.1529 224262.4000
    368    369   1      0.1380 358150.4000
    368    376   1      0.1380 358150.4000
    369    370   1      0.1419 374049.6000
    369    374   1      0.1400 392459.2000
    370    371   1      0.1404 392459.2000
    370    375   1      0.1456 305432.0000
    371    372   1      0.1400 392459.2000
    371    384   1      0.1080 307105.6000
    372    373   1      0.1400 392459.2000
    372    385   1      0.1080 307105.6000
    373    374   1      0.1400 392459.2000
    373    386   1      0.1080 307105.6000
    374    387   1      0.1080 307105.6000
    375    376   1      0.1419 374049.6000
    375    380   1      0.1404 392459.2000
    376    377   1      0.1400 392459.2000
    377    378   1      0.1400 392459.2000
    377    388   1      0.1080 307105.6000
    378    379   1      0.1400 392459.2000
    378    389   1      0.1080 307105.6000
    379    380   1      0.1400 392459.2000
    379    390   1      0.1080 307105.6000
    380    391   1      0.1080 307105.6000
    392    393   1      0.1529 224262.4000
    392    407   1      0.1090 284512.0000
    392    408   1      0.1090 284512.0000
    393    394   1      0.1443 267776.0000
    393    409   1      0.1090 284512.0000
    393    418   1      0.1529 224262.4000
    394    395   1      0.1380 358150.4000
    394    402   1      0.1380 358150.4000
    395    396   1      0.1419 374049.6000
    395    400   1      0.1400 392459.2000
    396    397   1      0.1404 392459.2000
    396    401   1      0.1456 305432.0000
    397    398   1      0.1400 392459.2000
    397    410   1      0.1080 307105.6000
    398    399   1      0.1400 392459.2000
    398    411   1      0.1080 307105.6000
    399    400   1      0.1400 392459.2000
    399    412   1      0.1080 307105.6000
    400    413   1      0.1080 307105.6000
    401    402   1      0.1419 374049.6000
    401    406   1      0.1404 392459.2000
    402    403   1      0.1400 392459.2000
    403    404   1      0.1400 392459.2000
    403    414   1      0.1080 307105.6000
    404    405   1      0.1400 392459.2000
    404    415   1      0.1080 307105.6000
    405    406   1      0.1400 392459.2000
    405    416   1      0.1080 307105.6000
    406    417   1      0.1080 307105.6000
    418    419   1      0.1529 224262.4000
    418    433   1      0.1090 284512.0000
    418    434   1      0.1090 284512.0000
    419    420   1      0.1443 267776.0000
    419    435   1      0.1090 284512.0000
    419    444   1      0.1529 224262.4000
    420    421   1      0.1380 358150.4000
    420    428   1      0.1380 358150.4000
    421    422   1      0.1419 374049.6000
    421    426   1      0.1400 392459.2000
    422    423   1      0.1404 392459.2000
    422    427   1      0.1456 305432.0000
    423    424   1      0.1400 392459.2000
    423    436   1      0.1080 307105.6000
    424    425   1      0.1400 392459.2000
    424    437   1      0.1080 307105.6000
    425    426   1      0.1400 392459.2000
    425    438   1      0.1080 307105.6000
    426    439   1      0.1080 307105.6000
    427    428   1      0.1419 374049.6000
    427    432   1      0.1404 392459.2000
    428    429   1      0.1400 392459.2000
    429    430   1      0.1400 392459.2000
    429    440   1      0.1080 307105.6000
    430    431   1      0.1400 392459.2000
    430    441   1      0.1080 307105.6000
    431    432   1      0.1400 392459.2000
    431    442   1      0.1080 307105.6000
    432    443   1      0.1080 307105.6000
    444    445   1      0.1529 224262.4000
    444    459   1      0.1090 284512.0000
    444    460   1      0.1090 284512.0000
    445    446   1      0.1443 267776.0000
    445    461   1      0.1090 284512.0000
    445    470   1      0.1529 224262.4000
    446    447   1      0.1380 358150.4000
    446    454   1      0.1380 358150.4000
    447    448   1      0.1419 374049.6000
    447    452   1      0.1400 392459.2000
    448    449   1      0.1404 392459.2000
    448    453   1      0.1456 305432.0000
    449    450   1      0.1400 392459.2000
    449    462   1      0.1080 307105.6000
    450    451   1      0.1400 392459.2000
    450    463   1      0.1080 307105.6000
    451    452   1      0.1400 392459.2000
    451    464   1      0.1080 307105.6000
    452    465   1      0.1080 307105.6000
    453    454   1      0.1419 374049.6000
    453    458   1      0.1404 392459.2000
    454    455   1      0.1400 392459.2000
    455    456   1      0.1400 392459.2000
    455    466   1      0.1080 307105.6000
    456    457   1      0.1400 392459.2000
    456    467   1      0.1080 307105.6000
    457    458   1      0.1400 392459.2000
    457    468   1      0.1080 307105.6000
    458    469   1      0.1080 307105.6000
    470    471   1      0.1529 224262.4000
    470    485   1      0.1090 284512.0000
    470    486   1      0.1090 284512.0000
    471    472   1      0.1443 267776.0000
    471    487   1      0.1090 284512.0000
    471    496   1      0.1529 224262.4000
    472    473   1      0.1380 358150.4000
    472    480   1      0.1380 358150.4000
    473    474   1      0.1419 374049.6000
    473    478   1      0.1400 392459.2000
    474    475   1      0.1404 392459.2000
    474    479   1      0.1456 305432.0000
    475    476   1      0.1400 392459.2000
    475    488   1      0.1080 307105.6000
    476    477   1      0.1400 392459.2000
    476    489   1      0.1080 307105.6000
    477    478   1      0.1400 392459.2000
    477    490   1      0.1080 307105.6000
    478    491   1      0.1080 307105.6000
    479    480   1      0.1419 374049.6000
    479    484   1      0.1404 392459.2000
    480    481   1      0.1400 392459.2000
    481    482   1      0.1400 392459.2000
    481    492   1      0.1080 307105.6000
    482    483   1      0.1400 392459.2000
    482    493   1      0.1080 307105.6000
    483    484   1      0.1400 392459.2000
    483    494   1      0.1080 307105.6000
    484    495   1      0.1080 307105.6000
    496    497   1      0.1529 224262.4000
    496    511   1      0.1090 284512.0000
    496    512   1      0.1090 284512.0000
    497    498   1      0.1443 267776.0000
    497    513   1      0.1090 284512.0000
    497    522   1      0.1090 284512.0000
    498    499   1      0.1380 358150.4000
    498    506   1      0.1380 358150.4000
    499    500   1      0.1419 374049.6000
    499    504   1      0.1400 392459.2000
    500    501   1      0.1404 392459.2000
    500    505   1      0.1456 305432.0000
    501    502   1      0.1400 392459.2000
    501    514   1      0.1080 307105.6000
    502    503   1      0.1400 392459.2000
    502    515   1      0.1080 307105.6000
    503    504   1      0.1400 392459.2000
    503    516   1      0.1080 307105.6000
    504    517   1      0.1080 307105.6000
    505    506   1      0.1419 374049.6000
    505    510   1      0.1404 392459.2000
    506    507   1      0.1400 392459.2000
    507    508   1      0.1400 392459.2000
    507    518   1      0.1080 307105.6000
    508    509   1      0.1400 392459.2000
    508    519   1      0.1080 307105.6000
    509    510   1      0.1400 392459.2000
    509    520   1      0.1080 307105.6000
    510    521   1      0.1080 307105.6000

[ pairs ]
; ai   aj   funct   fudge_QQ  charge_i   charge_j   c6    c12
     16      3   2   0.50000     0.0600000   -0.1333000   3.205360e-04  1.719281e-07
     16     18   2   0.50000     0.0600000    0.0600000   6.128906e-05  1.496315e-08
     16     28   2   0.50000     0.0600000   -0.1200000   2.494471e-04  1.671101e-07
     17      3   2   0.50000     0.0600000   -0.1333000   3.205360e-04  1.719281e-07
     17     18   2   0.50000     0.0600000    0.0600000   6.128906e-05  1.496315e-08
     17     28   2   0.50000     0.0600000   -0.1200000   2.494471e-04  1.671101e-07
     27      3   2   0.50000     0.0600000   -0.1333000   3.205360e-04  1.719281e-07
     27     18   2   0.50000     0.0600000    0.0600000   6.128906e-05  1.496315e-08
     27     28   2   0.50000     0.0600000   -0.1200000   2.494471e-04  1.671101e-07
      1      4   2   0.50000    -0.1800000   -0.0390000   1.091018e-03  2.092768e-06
      1     11   2   0.50000    -0.1800000   -0.0390000   1.091018e-03  2.092768e-06
     18      4   2   0.50000     0.0600000   -0.0390000   2.680627e-04  1.873879e-07
     18     11   2   0.50000     0.0600000   -0.0390000   2.680627e-04  1.873879e-07
     28      4   2   0.50000    -0.1200000   -0.0390000   1.091018e-03  2.092768e-06
     28     11   2   0.50000    -0.1200000   -0.0390000   1.091018e-03  2.092768e-06
      1     29   2   0.50000    -0.1800000    0.1513000   1.015252e-03  1.866303e-06
      1     43   2   0.50000    -0.1800000    0.0600000   2.494471e-04  1.671101e-07
      1     44   2   0.50000    -0.1800000    0.0600000   2.494471e-04  1.671101e-07
      3     29   2   0.50000    -0.1333000    0.1513000   1.304585e-03  1.920112e-06
      3     43   2   0.50000    -0.1333000    0.0600000   3.205360e-04  1.719281e-07
      3     44   2   0.50000    -0.1333000    0.0600000   3.205360e-04  1.719281e-07
     18     29   2   0.50000     0.0600000    0.1513000   2.494471e-04  1.671101e-07
     18     43   2   0.50000     0.0600000    0.0600000   6.128906e-05  1.496315e-08
     18     44   2   0.50000     0.0600000    0.0600000   6.128906e-05  1.496315e-08
      2      5   2   0.50000     0.1513000    0.0000000   1.091018e-03  2.092768e-06
      2      9   2   0.50000     0.1513000   -0.1150000   1.091018e-03  2.092768e-06
     11      9   2   0.50000    -0.0390000   -0.1150000   1.172438e-03  2.346713e-06
      2     10   2   0.50000     0.1513000    0.0000000   1.091018e-03  2.092768e-06
      2     12   2   0.50000     0.1513000   -0.1150000   1.091018e-03  2.092768e-06
      4     12   2   0.50000    -0.0390000   -0.1150000   1.172438e-03  2.346713e-06
      3      6   2   0.50000    -0.1333000   -0.1150000   1.401943e-03  2.153106e-06
      9      6   2   0.50000    -0.1150000   -0.1150000   1.172438e-03  2.346713e-06
      9     10   2   0.50000    -0.1150000    0.0000000   1.172438e-03  2.346713e-06
      3      8   2   0.50000    -0.1333000   -0.1150000   1.401943e-03  2.153106e-06
      3     22   2   0.50000    -0.1333000    0.1150000   2.907388e-04  1.414488e-07
      5      8   2   0.50000     0.0000000   -0.1150000   1.172438e-03  2.346713e-06
      5     22   2   0.50000     0.0000000    0.1150000   2.431434e-04  1.541678e-07
      4      7   2   0.50000    -0.0390000   -0.1150000   1.172438e-03  2.346713e-06
      4     19   2   0.50000    -0.0390000    0.1150000   2.431434e-04  1.541678e-07
     10      7   2   0.50000     0.0000000   -0.1150000   1.172438e-03  2.346713e-06
     10     19   2   0.50000     0.0000000    0.1150000   2.431434e-04  1.541678e-07
      4     15   2   0.50000    -0.0390000   -0.1150000   1.172438e-03  2.346713e-06
      6     11   2   0.50000    -0.1150000   -0.0390000   1.172438e-03  2.346713e-06
      6     15   2   0.50000    -0.1150000   -0.1150000   1.172438e-03  2.346713e-06
      5     20   2   0.50000     0.0000000    0.1150000   2.431434e-04  1.541678e-07
     19      8   2   0.50000     0.1150000   -0.1150000   2.431434e-04  1.541678e-07
     19     20   2   0.50000     0.1150000    0.1150000   5.042375e-05  1.012808e-08
      6     21   2   0.50000    -0.1150000    0.1150000   2.431434e-04  1.541678e-07
     20      9   2   0.50000     0.1150000   -0.1150000   2.431434e-04  1.541678e-07
     20     21   2   0.50000     0.1150000    0.1150000   5.042375e-05  1.012808e-08
      7     22   2   0.50000    -0.1150000    0.1150000   2.431434e-04  1.541678e-07
     21      4   2   0.50000     0.1150000   -0.0390000   2.431434e-04  1.541678e-07
     21     22   2   0.50000     0.1150000    0.1150000   5.042375e-05  1.012808e-08
      5     12   2   0.50000     0.0000000   -0.1150000   1.172438e-03  2.346713e-06
     15      3   2   0.50000    -0.1150000   -0.1333000   1.401943e-03  2.153106e-06
     15     12   2   0.50000    -0.1150000   -0.1150000   1.172438e-03  2.346713e-06
      5     14   2   0.50000     0.0000000   -0.1150000   1.172438e-03  2.346713e-06
      5     26   2   0.50000     0.0000000    0.1150000   2.431434e-04  1.541678e-07
     11     14   2   0.50000    -0.0390000   -0.1150000   1.172438e-03  2.346713e-06
     11     26   2   0.50000    -0.0390000    0.1150000   2.431434e-04  1.541678e-07
      3     13   2   0.50000    -0.1333000   -0.1150000   1.401943e-03  2.153106e-06
      3     23   2   0.50000    -0.1333000    0.1150000   2.907388e-04  1.414488e-07
     10     13   2   0.50000     0.0000000   -0.1150000   1.172438e-03  2.346713e-06
     10     23   2   0.50000     0.0000000    0.1150000   2.431434e-04  1.541678e-07
     11     24   2   0.50000    -0.0390000    0.1150000   2.431434e-04  1.541678e-07
     23     14   2   0.50000     0.1150000   -0.1150000   2.431434e-04  1.541678e-07
     23     24   2   0.50000     0.1150000    0.1150000   5.042375e-05  1.012808e-08
     12     25   2   0.50000    -0.1150000    0.1150000   2.431434e-04  1.541678e-07
     24     15   2   0.50000     0.1150000   -0.1150000   2.431434e-04  1.541678e-07
     24     25   2   0.50000     0.1150000    0.1150000   5.042375e-05  1.012808e-08
     13     26   2   0.50000    -0.1150000    0.1150000   2.431434e-04  1.541678e-07
     25     10   2   0.50000     0.1150000    0.0000000   2.431434e-04  1.541678e-07
     25     26   2   0.50000     0.1150000    0.1150000   5.042375e-05  1.012808e-08
      2     30   2   0.50000     0.1513000   -0.1333000   1.304585e-03  1.920112e-06
      2     45   2   0.50000     0.1513000    0.0600000   2.494471e-04  1.671101e-07
      2     54   2   0.50000     0.1513000   -0.1200000   1.015252e-03  1.866303e-06
     43     30   2   0.50000     0.0600000   -0.1333000   3.205360e-04  1.719281e-07
     43     45   2   0.50000     0.0600000    0.0600000   6.128906e-05  1.496315e-08
     43     54   2   0.50000     0.0600000   -0.1200000   2.494471e-04  1.671101e-07
     44     30   2   0.50000     0.0600000   -0.1333000   3.205360e-04  1.719281e-07
     44     45   2   0.50000     0.0600000    0.0600000   6.128906e-05  1.496315e-08
     44     54   2   0.50000     0.0600000   -0.1200000   2.494471e-04  1.671101e-07
     28     31   2   0.50000    -0.1200000   -0.0390000   1.091018e-03  2.092768e-06
     28     38   2   0.50000    -0.1200000   -0.0390000   1.091018e-03  2.092768e-06
     45     31   2   0.50000     0.0600000   -0.0390000   2.680627e-04  1.873879e-07
     45     38   2   0.50000     0.0600000   -0.0390000   2.680627e-04  1.873879e-07
     54     31   2   0.50000    -0.1200000   -0.0390000   1.091018e-03  2.092768e-06
     54     38   2   0.50000    -0.1200000   -0.0390000   1.091018e-03  2.092768e-06
     28     55   2   0.50000    -0.1200000    0.1513000   1.015252e-03  1.866303e-06
     28     69   2   0.50000    -0.1200000    0.0600000   2.494471e-04  1.671101e-07
     28     70   2   0.50000    -0.1200000    0.0600000   2.494471e-04  1.671101e-07
     30     55   2   0.50000    -0.1333000    0.1513000   1.304585e-03  1.920112e-06
     30     69   2   0.50000    -0.1333000    0.0600000   3.205360e-04  1.719281e-07
     30     70   2   0.50000    -0.1333000    0.0600000   3.205360e-04  1.719281e-07
     45     55   2   0.50000     0.0600000    0.1513000   2.494471e-04  1.671101e-07
     45     69   2   0.50000     0.0600000    0.0600000   6.128906e-05  1.496315e-08
     45     70   2   0.50000     0.0600000    0.0600000   6.128906e-05  1.496315e-08
     29     32   2   0.50000     0.1513000    0.0000000   1.091018e-03  2.092768e-06
     29     36   2   0.50000     0.1513000   -0.1150000   1.091018e-03  2.092768e-06
     38     36   2   0.50000    -0.0390000   -0.1150000   1.172438e-03  2.346713e-06
     29     37   2   0.50000     0.1513000    0.0000000   1.091018e-03  2.092768e-06
     29     39   2   0.50000     0.1513000   -0.1150000   1.091018e-03  2.092768e-06
     31     39   2   0.50000    -0.0390000   -0.1150000   1.172438e-03  2.346713e-06
     30     33   2   0.50000    -0.1333000   -0.1150000   1.401943e-03  2.153106e-06
     36     33   2   0.50000    -0.1150000   -0.1150000   1.172438e-03  2.346713e-06
     36     37   2   0.50000    -0.1150000    0.0000000   1.172438e-03  2.346713e-06
     30     35   2   0.50000    -0.1333000   -0.1150000   1.401943e-03  2.153106e-06
     30     49   2   0.50000    -0.1333000    0.1150000   2.907388e-04  1.414488e-07
     32     35   2   0.50000     0.0000000   -0.1150000   1.172438e-03  2.346713e-06
     32     49   2   0.50000     0.0000000    0.1150000   2.431434e-04  1.541678e-07
     31     34   2   0.50000    -0.0390000   -0.1150000   1.172438e-03  2.346713e-06
     31     46   2   0.50000    -0.0390000    0.1150000   2.431434e-04  1.541678e-07
     37     34   2   0.50000     0.0000000   -0.1150000   1.172438e-03  2.346713e-06
     37     46   2   0.50000     0.0000000    0.1150000   2.431434e-04  1.541678e-07
     31     42   2   0.50000    -0.0390000   -0.1150000   1.172438e-03  2.346713e-06
     33     38   2   0.50000    -0.1150000   -0.0390000   1.172438e-03  2.346713e-06
     33     42   2   0.50000    -0.1150000   -0.1150000   1.172438e-03  2.346713e-06
     32     47   2   0.50000     0.0000000    0.1150000   2.431434e-04  1.541678e-07
     46     35   2   0.50000     0.1150000   -0.1150000   2.431434e-04  1.541678e-07
     46     47   2   0.50000     0.1150000    0.1150000   5.042375e-05  1.012808e-08
     33     48   2   0.50000    -0.1150000    0.1150000   2.431434e-04  1.541678e-07
     47     36   2   0.50000     0.1150000   -0.1150000   2.431434e-04  1.541678e-07
     47     48   2   0.50000     0.1150000    0.1150000   5.042375e-05  1.012808e-08
     34     49   2   0.50000    -0.1150000    0.1150000   2.431434e-04  1.541678e-07
     48     31   2   0.50000     0.1150000   -0.0390000   2.431434e-04  1.541678e-07
     48     49   2   0.50000     0.1150000    0.1150000   5.042375e-05  1.012808e-08
     32     39   2   0.50000     0.0000000   -0.1150000   1.172438e-03  2.346713e-06
     42     30   2   0.50000    -0.1150000   -0.1333000   1.401943e-03  2.153106e-06
     42     39   2   0.50000    -0.1150000   -0.1150000   1.172438e-03  2.346713e-06
     32     41   2   0.50000     0.0000000   -0.1150000   1.172438e-03  2.346713e-06
     32     53   2   0.50000     0.0000000    0.1150000   2.431434e-04  1.541678e-07
     38     41   2   0.50000    -0.0390000   -0.1150000   1.172438e-03  2.346713e-06
     38     53   2   0.50000    -0.0390000    0.1150000   2.431434e-04  1.541678e-07
     30     40   2   0.50000    -0.1333000   -0.1150000   1.401943e-03  2.153106e-06
     30     50   2   0.50000    -0.1333000    0.1150000   2.907388e-04  1.414488e-07
     37     40   2   0.50000     0.0000000   -0.1150000   1.172438e-03  2.346713e-06
     37     50   2   0.50000     0.0000000    0.1150000   2.431434e-04  1.541678e-07
     38     51   2   0.50000    -0.0390000    0.1150000   2.431434e-04  1.541678e-07
     50     41   2   0.50000     0.1150000   -0.1150000   2.431434e-04  1.541678e-07
     50     51   2   0.50000     0.1150000    0.1150000   5.042375e-05  1.012808e-08
     39     52   2   0.50000    -0.1150000    0.1150000   2.431434e-04  1.541678e-07
     51     42   2   0.50000     0.1150000   -0.1150000   2.431434e-04  1.541678e-07
     51     52   2   0.50000     0.1150000    0.1150000   5.042375e-05  1.012808e-08
     40     53   2   0.50000    -0.1150000    0.1150000   2.431434e-04  1.541678e-07
     52     37   2   0.50000     0.1150000    0.0000000   2.431434e-04  1.541678e-07
     52     53   2   0.50000     0.1150000    0.1150000   5.042375e-05  1.012808e-08
     29     56   2   0.50000     0.1513000   -0.1333000   1.304585e-03  1.920112e-06
     29     71   2   0.50000     0.1513000    0.0600000   2.494471e-04  1.671101e-07
     29     80   2   0.50000     0.1513000   -0.1200000   1.015252e-03  1.866303e-06
     69     56   2   0.50000     0.0600000   -0.1333000   3.205360e-04  1.719281e-07
     69     71   2   0.50000     0.0600000    0.0600000   6.128906e-05  1.496315e-08
     69     80   2   0.50000     0.0600000   -0.1200000   2.494471e-04  1.671101e-07
     70     56   2   0.50000     0.0600000   -0.1333000   3.205360e-04  1.719281e-07
     70     71   2   0.50000     0.0600000    0.0600000   6.128906e-05  1.496315e-08
     70     80   2   0.50000     0.0600000   -0.1200000   2.494471e-04  1.671101e-07
     54     57   2   0.50000    -0.1200000   -0.0390000   1.091018e-03  2.092768e-06
     54     64   2   0.50000    -0.1200000   -0.0390000   1.091018e-03  2.092768e-06
     71     57   2   0.50000     0.0600000   -0.0390000   2.680627e-04  1.873879e-07
     71     64   2   0.50000     0.0600000   -0.0390000   2.680627e-04  1.873879e-07
     80     57   2   0.50000    -0.1200000   -0.0390000   1.091018e-03  2.092768e-06
     80     64   2   0.50000    -0.1200000   -0.0390000   1.091018e-03  2.092768e-06
     54     81   2   0.50000    -0.1200000    0.1513000   1.015252e-03  1.866303e-06
     54     95   2   0.50000    -0.1200000    0.0600000   2.494471e-04  1.671101e-07
     54     96   2   0.50000    -0.1200000    0.0600000   2.494471e-04  1.671101e-07
     56     81   2   0.50000    -0.1333000    0.1513000   1.304585e-03  1.920112e-06
     56     95   2   0.50000    -0.1333000    0.0600000   3.205360e-04  1.719281e-07
     56     96   2   0.50000    -0.1333000    0.0600000   3.205360e-04  1.719281e-07
     71     81   2   0.50000     0.0600000    0.1513000   2.494471e-04  1.671101e-07
     71     95   2   0.50000     0.0600000    0.0600000   6.128906e-05  1.496315e-08
     71     96   2   0.50000     0.0600000    0.0600000   6.128906e-05  1.496315e-08
     55     58   2   0.50000     0.1513000    0.0000000   1.091018e-03  2.092768e-06
     55     62   2   0.50000     0.1513000   -0.1150000   1.091018e-03  2.092768e-06
     64     62   2   0.50000    -0.0390000   -0.1150000   1.172438e-03  2.346713e-06
     55     63   2   0.50000     0.1513000    0.0000000   1.091018e-03  2.092768e-06
     55     65   2   0.50000     0.1513000   -0.1150000   1.091018e-03  2.092768e-06
     57     65   2   0.50000    -0.0390000   -0.1150000   1.172438e-03  2.346713e-06
     56     59   2   0.50000    -0.1333000   -0.1150000   1.401943e-03  2.153106e-06
     62     59   2   0.50000    -0.1150000   -0.1150000   1.172438e-03  2.346713e-06
     62     63   2   0.50000    -0.1150000    0.0000000   1.172438e-03  2.346713e-06
     56     61   2   0.50000    -0.1333000   -0.1150000   1.401943e-03  2.153106e-06
     56     75   2   0.50000    -0.1333000    0.1150000   2.907388e-04  1.414488e-07
     58     61   2   0.50000     0.0000000   -0.1150000   1.172438e-03  2.346713e-06
     58     75   2   0.50000     0.0000000    0.1150000   2.431434e-04  1.541678e-07
     57     60   2   0.50000    -0.0390000   -0.1150000   1.172438e-03  2.346713e-06
     57     72   2   0.50000    -0.0390000    0.1150000   2.431434e-04  1.541678e-07
     63     60   2   0.50000     0.0000000   -0.1150000   1.172438e-03  2.346713e-06
     63     72   2   0.50000     0.0000000    0.1150000   2.431434e-04  1.541678e-07
     57     68   2   0.50000    -0.0390000   -0.1150000   1.172438e-03  2.346713e-06
     59     64   2   0.50000    -0.1150000   -0.0390000   1.172438e-03  2.346713e-06
     59     68   2   0.50000    -0.1150000   -0.1150000   1.172438e-03  2.346713e-06
     58     73   2   0.50000     0.0000000    0.1150000   2.431434e-04  1.541678e-07
     72     61   2   0.50000     0.1150000   -0.1150000   2.431434e-04  1.541678e-07
     72     73   2   0.50000     0.1150000    0.1150000   5.042375e-05  1.012808e-08
     59     74   2   0.50000    -0.1150000    0.1150000   2.431434e-04  1.541678e-07
     73     62   2   0.50000     0.1150000   -0.1150000   2.431434e-04  1.541678e-07
     73     74   2   0.50000     0.1150000    0.1150000   5.042375e-05  1.012808e-08
     60     75   2   0.50000    -0.1150000    0.1150000   2.431434e-04  1.541678e-07
     74     57   2   0.50000     0.1150000   -0.0390000   2.431434e-04  1.541678e-07
     74     75   2   0.50000     0.1150000    0.1150000   5.042375e-05  1.012808e-08
     58     65   2   0.50000     0.0000000   -0.1150000   1.172438e-03  2.346713e-06
     68     56   2   0.50000    -0.1150000   -0.1333000   1.401943e-03  2.153106e-06
     68     65   2   0.50000    -0.1150000   -0.1150000   1.172438e-03  2.346713e-06
     58     67   2   0.50000     0.0000000   -0.1150000   1.172438e-03  2.346713e-06
     58     79   2   0.50000     0.0000000    0.1150000   2.431434e-04  1.541678e-07
     64     67   2   0.50000    -0.0390000   -0.1150000   1.172438e-03  2.346713e-06
     64     79   2   0.50000    -0.0390000    0.1150000   2.431434e-04  1.541678e-07
     56     66   2   0.50000    -0.1333000   -0.1150000   1.401943e-03  2.153106e-06
     56     76   2   0.50000    -0.1333000    0.1150000   2.907388e-04  1.414488e-07
     63     66   2   0.50000     0.0000000   -0.1150000   1.172438e-03  2.346713e-06
     63     76   2   0.50000     0.0000000    0.1150000   2.431434e-04  1.541678e-07
     64     77   2   0.50000    -0.0390000    0.1150000   2.431434e-04  1.541678e-07
     76     67   2   0.50000     0.1150000   -0.1150000   2.431434e-04  1.541678e-07
     76     77   2   0.50000     0.1150000    0.1150000   5.042375e-05  1.012808e-08
     65     78   2   0.50000    -0.1150000    0.1150000   2.431434e-04  1.541678e-07
     77     68   2   0.50000     0.1150000   -0.1150000   2.431434e-04  1.541678e-07
     77     78   2   0.50000     0.1150000    0.1150000   5.042375e-05  1.012808e-08
     66     79   2   0.50000    -0.1150000    0.1150000   2.431434e-04  1.541678e-07
     78     63   2   0.50000     0.1150000    0.0000000   2.431434e-04  1.541678e-07
     78     79   2   0.50000     0.1150000    0.1150000   5.042375e-05  1.012808e-08
     55     82   2   0.50000     0.1513000   -0.1333000   1.304585e-03  1.920112e-06
     55     97   2   0.50000     0.1513000    0.0600000   2.494471e-04  1.671101e-07
     55    106   2   0.50000     0.1513000   -0.1200000   1.015252e-03  1.866303e-06
     95     82   2   0.50000     0.0600000   -0.1333000   3.205360e-04  1.719281e-07
     95     97   2   0.50000     0.0600000    0.0600000   6.128906e-05  1.496315e-08
     95    106   2   0.50000     0.0600000   -0.1200000   2.494471e-04  1.671101e-07
     96     82   2   0.50000     0.0600000   -0.1333000   3.205360e-04  1.719281e-07
     96     97   2   0.50000     0.0600000    0.0600000   6.128906e-05  1.496315e-08
     96    106   2   0.50000     0.0600000   -0.1200000   2.494471e-04  1.671101e-07
     80     83   2   0.50000    -0.1200000   -0.0390000   1.091018e-03  2.092768e-06
     80     90   2   0.50000    -0.1200000   -0.0390000   1.091018e-03  2.092768e-06
     97     83   2   0.50000     0.0600000   -0.0390000   2.680627e-04  1.873879e-07
     97     90   2   0.50000     0.0600000   -0.0390000   2.680627e-04  1.873879e-07
    106     83   2   0.50000    -0.1200000   -0.0390000   1.091018e-03  2.092768e-06
    106     90   2   0.50000    -0.1200000   -0.0390000   1.091018e-03  2.092768e-06
     80    107   2   0.50000    -0.1200000    0.1513000   1.015252e-03  1.866303e-06
     80    121   2   0.50000    -0.1200000    0.0600000   2.494471e-04  1.671101e-07
     80    122   2   0.50000    -0.1200000    0.0600000   2.494471e-04  1.671101e-07
     82    107   2   0.50000    -0.1333000    0.1513000   1.304585e-03  1.920112e-06
     82    121   2   0.50000    -0.1333000    0.0600000   3.205360e-04  1.719281e-07
     82    122   2   0.50000    -0.1333000    0.0600000   3.205360e-04  1.719281e-07
     97    107   2   0.50000     0.0600000    0.1513000   2.494471e-04  1.671101e-07
     97    121   2   0.50000     0.0600000    0.0600000   6.128906e-05  1.496315e-08
     97    122   2   0.50000     0.0600000    0.0600000   6.128906e-05  1.496315e-08
     81     84   2   0.50000     0.1513000    0.0000000   1.091018e-03  2.092768e-06
     81     88   2   0.50000     0.1513000   -0.1150000   1.091018e-03  2.092768e-06
     90     88   2   0.50000    -0.0390000   -0.1150000   1.172438e-03  2.346713e-06
     81     89   2   0.50000     0.1513000    0.0000000   1.091018e-03  2.092768e-06
     81     91   2   0.50000     0.1513000   -0.1150000   1.091018e-03  2.092768e-06
     83     91   2   0.50000    -0.0390000   -0.1150000   1.172438e-03  2.346713e-06
     82     85   2   0.50000    -0.1333000   -0.1150000   1.401943e-03  2.153106e-06
     88     85   2   0.50000    -0.1150000   -0.1150000   1.172438e-03  2.346713e-06
     88     89   2   0.50000    -0.1150000    0.0000000   1.172438e-03  2.346713e-06
     82     87   2   0.50000    -0.1333000   -0.1150000   1.401943e-03  2.153106e-06
     82    101   2   0.50000    -0.1333000    0.1150000   2.907388e-04  1.414488e-07
     84     87   2   0.50000     0.0000000   -0.1150000   1.172438e-03  2.346713e-06
     84    101   2   0.50000     0.0000000    0.1150000   2.431434e-04  1.541678e-07
     83     86   2   0.50000    -0.0390000   -0.1150000   1.172438e-03  2.346713e-06
     83     98   2   0.50000    -0.0390000    0.1150000   2.431434e-04  1.541678e-07
     89     86   2   0.50000     0.0000000   -0.1150000   1.172438e-03  2.346713e-06
     89     98   2   0.50000     0.0000000    0.1150000   2.431434e-04  1.541678e-07
     83     94   2   0.50000    -0.0390000   -0.1150000   1.172438e-03  2.346713e-06
     85     90   2   0.50000    -0.1150000   -0.0390000   1.172438e-03  2.346713e-06
     85     94   2   0.50000    -0.1150000   -0.1150000   1.172438e-03  2.346713e-06
     84     99   2   0.50000     0.0000000    0.1150000   2.431434e-04  1.541678e-07
     98     87   2   0.50000     0.1150000   -0.1150000   2.431434e-04  1.541678e-07
     98     99   2   0.50000     0.1150000    0.1150000   5.042375e-05  1.012808e-08
     85    100   2   0.50000    -0.1150000    0.1150000   2.431434e-04  1.541678e-07
     99     88   2   0.50000     0.1150000   -0.1150000   2.431434e-04  1.541678e-07
     99    100   2   0.50000     0.1150000    0.1150000   5.042375e-05  1.012808e-08
     86    101   2   0.50000    -0.1150000    0.1150000   2.431434e-04  1.541678e-07
    100     83   2   0.50000     0.1150000   -0.0390000   2.431434e-04  1.541678e-07
    100    101   2   0.50000     0.1150000    0.1150000   5.042375e-05  1.012808e-08
     84     91   2   0.50000     0.0000000   -0.1150000   1.172438e-03  2.346713e-06
     94     82   2   0.50000    -0.1150000   -0.1333000   1.401943e-03  2.153106e-06
     94     91   2   0.50000    -0.1150000   -0.1150000   1.172438e-03  2.346713e-06
     84     93   2   0.50000     0.0000000   -0.1150000   1.172438e-03  2.346713e-06
     84    105   2   0.50000     0.0000000    0.1150000   2.431434e-04  1.541678e-07
     90     93   2   0.50000    -0.0390000   -0.1150000   1.172438e-03  2.346713e-06
     90    105   2   0.50000    -0.0390000    0.1150000   2.431434e-04  1.541678e-07
     82     92   2   0.50000    -0.1333000   -0.1150000   1.401943e-03  2.153106e-06
     82    102   2   0.50000    -0.1333000    0.1150000   2.907388e-04  1.414488e-07
     89     92   2   0.50000     0.0000000   -0.1150000   1.172438e-03  2.346713e-06
     89    102   2   0.50000     0.0000000    0.1150000   2.431434e-04  1.541678e-07
     90    103   2   0.50000    -0.0390000    0.1150000   2.431434e-04  1.541678e-07
    102     93   2   0.50000     0.1150000   -0.1150000   2.431434e-04  1.541678e-07
    102    103   2   0.50000     0.1150000    0.1150000   5.042375e-05  1.012808e-08
     91    104   2   0.50000    -0.1150000    0.1150000   2.431434e-04  1.541678e-07
    103     94   2   0.50000     0.1150000   -0.1150000   2.431434e-04  1.541678e-07
    103    104   2   0.50000     0.1150000    0.1150000   5.042375e-05  1.012808e-08
     92    105   2   0.50000    -0.1150000    0.1150000   2.431434e-04  1.541678e-07
    104     89   2   0.50000     0.1150000    0.0000000   2.431434e-04  1.541678e-07
    104    105   2   0.50000     0.1150000    0.1150000   5.042375e-05  1.012808e-08
     81    108   2   0.50000     0.1513000   -0.1333000   1.304585e-03  1.920112e-06
     81    123   2   0.50000     0.1513000    0.0600000   2.494471e-04  1.671101e-07
     81    132   2   0.50000     0.1513000   -0.1200000   1.015252e-03  1.866303e-06
    121    108   2   0.50000     0.0600000   -0.1333000   3.205360e-04  1.719281e-07
    121    123   2   0.50000     0.0600000    0.0600000   6.128906e-05  1.496315e-08
    121    132   2   0.50000     0.0600000   -0.1200000   2.494471e-04  1.671101e-07
    122    108   2   0.50000     0.0600000   -0.1333000   3.205360e-04  1.719281e-07
    122    123   2   0.50000     0.0600000    0.0600000   6.128906e-05  1.496315e-08
    122    132   2   0.50000     0.0600000   -0.1200000   2.494471e-04  1.671101e-07
    106    109   2   0.50000    -0.1200000   -0.0390000   1.091018e-03  2.092768e-06
    106    116   2   0.50000    -0.1200000   -0.0390000   1.091018e-03  2.092768e-06
    123    109   2   0.50000     0.0600000   -0.0390000   2.680627e-04  1.873879e-07
    123    116   2   0.50000     0.0600000   -0.0390000   2.680627e-04  1.873879e-07
    132    109   2   0.50000    -0.1200000   -0.0390000   1.091018e-03  2.092768e-06
    132    116   2   0.50000    -0.1200000   -0.0390000   1.091018e-03  2.092768e-06
    106    133   2   0.50000    -0.1200000    0.1513000   1.015252e-03  1.866303e-06
    106    147   2   0.50000    -0.1200000    0.0600000   2.494471e-04  1.671101e-07
    106    148   2   0.50000    -0.1200000    0.0600000   2.494471e-04  1.671101e-07
    108    133   2   0.50000    -0.1333000    0.1513000   1.304585e-03  1.920112e-06
    108    147   2   0.50000    -0.1333000    0.0600000   3.205360e-04  1.719281e-07
    108    148   2   0.50000    -0.1333000    0.0600000   3.205360e-04  1.719281e-07
    123    133   2   0.50000     0.0600000    0.1513000   2.494471e-04  1.671101e-07
    123    147   2   0.50000     0.0600000    0.0600000   6.128906e-05  1.496315e-08
    123    148   2   0.50000     0.0600000    0.0600000   6.128906e-05  1.496315e-08
    107    110   2   0.50000     0.1513000    0.0000000   1.091018e-03  2.092768e-06
    107    114   2   0.50000     0.1513000   -0.1150000   1.091018e-03  2.092768e-06
    116    114   2   0.50000    -0.0390000   -0.1150000   1.172438e-03  2.346713e-06
    107    115   2   0.50000     0.1513000    0.0000000   1.091018e-03  2.092768e-06
    107    117   2   0.50000     0.1513000   -0.1150000   1.091018e-03  2.092768e-06
    109    117   2   0.50000    -0.0390000   -0.1150000   1.172438e-03  2.346713e-06
    108    111   2   0.50000    -0.1333000   -0.1150000   1.401943e-03  2.153106e-06
    114    111   2   0.50000    -0.1150000   -0.1150000   1.172438e-03  2.346713e-06
    114    115   2   0.50000    -0.1150000    0.0000000   1.172438e-03  2.346713e-06
    108    113   2   0.50000    -0.1333000   -0.1150000   1.401943e-03  2.153106e-06
    108    127   2   0.50000    -0.1333000    0.1150000   2.907388e-04  1.414488e-07
    110    113   2   0.50000     0.0000000   -0.1150000   1.172438e-03  2.346713e-06
    110    127   2   0.50000     0.0000000    0.1150000   2.431434e-04  1.541678e-07
    109    112   2   0.50000    -0.0390000   -0.1150000   1.172438e-03  2.346713e-06
    109    124   2   0.50000    -0.0390000    0.1150000   2.431434e-04  1.541678e-07
    115    112   2   0.50000     0.0000000   -0.1150000   1.172438e-03  2.346713e-06
    115    124   2   0.50000     0.0000000    0.1150000   2.431434e-04  1.541678e-07
    109    120   2   0.50000    -0.0390000   -0.1150000   1.172438e-03  2.346713e-06
    111    116   2   0.50000    -0.1150000   -0.0390000   1.172438e-03  2.346713e-06
    111    120   2   0.50000    -0.1150000   -0.1150000   1.172438e-03  2.346713e-06
    110    125   2   0.50000     0.0000000    0.1150000   2.431434e-04  1.541678e-07
    124    113   2   0.50000     0.1150000   -0.1150000   2.431434e-04  1.541678e-07
    124    125   2   0.50000     0.1150000    0.1150000   5.042375e-05  1.012808e-08
    111    126   2   0.50000    -0.1150000    0.1150000   2.431434e-04  1.541678e-07
    125    114   2   0.50000     0.1150000   -0.1150000   2.431434e-04  1.541678e-07
    125    126   2   0.50000     0.1150000    0.1150000   5.042375e-05  1.012808e-08
    112    127   2   0.50000    -0.1150000    0.1150000   2.431434e-04  1.541678e-07
    126    109   2   0.50000     0.1150000   -0.0390000   2.431434e-04  1.541678e-07
    126    127   2   0.50000     0.1150000    0.1150000   5.042375e-05  1.012808e-08
    110    117   2   0.50000     0.0000000   -0.1150000   1.172438e-03  2.346713e-06
    120    108   2   0.50000    -0.1150000   -0.1333000   1.401943e-03  2.153106e-06
    120    117   2   0.50000    -0.1150000   -0.1150000   1.172438e-03  2.346713e-06
    110    119   2   0.50000     0.0000000   -0.1150000   1.172438e-03  2.346713e-06
    110    131   2   0.50000     0.0000000    0.1150000   2.431434e-04  1.541678e-07
    116    119   2   0.50000    -0.0390000   -0.1150000   1.172438e-03  2.346713e-06
    116    131   2   0.50000    -0.0390000    0.1150000   2.431434e-04  1.541678e-07
    108    118   2   0.50000    -0.1333000   -0.1150000   1.401943e-03  2.153106e-06
    108    128   2   0.50000    -0.1333000    0.1150000   2.907388e-04  1.414488e-07
    115    118   2   0.50000     0.0000000   -0.1150000   1.172438e-03  2.346713e-06
    115    128   2   0.50000     0.0000000    0.1150000   2.431434e-04  1.541678e-07
    116    129   2   0.50000    -0.0390000    0.1150000   2.431434e-04  1.541678e-07
    128    119   2   0.50000     0.1150000   -0.1150000   2.431434e-04  1.541678e-07
    128    129   2   0.50000     0.1150000    0.1150000   5.042375e-05  1.012808e-08
    117    130   2   0.50000    -0.1150000    0.1150000   2.431434e-04  1.541678e-07
    129    120   2   0.50000     0.1150000   -0.1150000   2.431434e-04  1.541678e-07
    129    130   2   0.50000     0.1150000    0.1150000   5.042375e-05  1.012808e-08
    118    131   2   0.50000    -0.1150000    0.1150000   2.431434e-04  1.541678e-07
    130    115   2   0.50000     0.1150000    0.0000000   2.431434e-04  1.541678e-07
    130    131   2   0.50000     0.1150000    0.1150000   5.042375e-05  1.012808e-08
    107    134   2   0.50000     0.1513000   -0.1333000   1.304585e-03  1.920112e-06
    107    149   2   0.50000     0.1513000    0.0600000   2.494471e-04  1.671101e-07
    107    158   2   0.50000     0.1513000   -0.1200000   1.015252e-03  1.866303e-06
    147    134   2   0.50000     0.0600000   -0.1333000   3.205360e-04  1.719281e-07
    147    149   2   0.50000     0.0600000    0.0600000   6.128906e-05  1.496315e-08
    147    158   2   0.50000     0.0600000   -0.1200000   2.494471e-04  1.671101e-07
    148    134   2   0.50000     0.0600000   -0.1333000   3.205360e-04  1.719281e-07
    148    149   2   0.50000     0.0600000    0.0600000   6.128906e-05  1.496315e-08
    148    158   2   0.50000     0.0600000   -0.1200000   2.494471e-04  1.671101e-07
    132    135   2   0.50000    -0.1200000   -0.0390000   1.091018e-03  2.092768e-06
    132    142   2   0.50000    -0.1200000   -0.0390000   1.091018e-03  2.092768e-06
    149    135   2   0.50000     0.0600000   -0.0390000   2.680627e-04  1.873879e-07
    149    142   2   0.50000     0.0600000   -0.0390000   2.680627e-04  1.873879e-07
    158    135   2   0.50000    -0.1200000   -0.0390000   1.091018e-03  2.092768e-06
    158    142   2   0.50000    -0.1200000   -0.0390000   1.091018e-03  2.092768e-06
    132    159   2   0.50000    -0.1200000    0.1513000   1.015252e-03  1.866303e-06
    132    173   2   0.50000    -0.1200000    0.0600000   2.494471e-04  1.671101e-07
    132    174   2   0.50000    -0.1200000    0.0600000   2.494471e-04  1.671101e-07
    134    159   2   0.50000    -0.1333000    0.1513000   1.304585e-03  1.920112e-06
    134    173   2   0.50000    -0.1333000    0.0600000   3.205360e-04  1.719281e-07
    134    174   2   0.50000    -0.1333000    0.0600000   3.205360e-04  1.719281e-07
    149    159   2   0.50000     0.0600000    0.1513000   2.494471e-04  1.671101e-07
    149    173   2   0.50000     0.0600000    0.0600000   6.128906e-05  1.496315e-08
    149    174   2   0.50000     0.0600000    0.0600000   6.128906e-05  1.496315e-08
    133    136   2   0.50000     0.1513000    0.0000000   1.091018e-03  2.092768e-06
    133    140   2   0.50000     0.1513000   -0.1150000   1.091018e-03  2.092768e-06
    142    140   2   0.50000    -0.0390000   -0.1150000   1.172438e-03  2.346713e-06
    133    141   2   0.50000     0.1513000    0.0000000   1.091018e-03  2.092768e-06
    133    143   2   0.50000     0.1513000   -0.1150000   1.091018e-03  2.092768e-06
    135    143   2   0.50000    -0.0390000   -0.1150000   1.172438e-03  2.346713e-06
    134    137   2   0.50000    -0.1333000   -0.1150000   1.401943e-03  2.153106e-06
    140    137   2   0.50000    -0.1150000   -0.1150000   1.172438e-03  2.346713e-06
    140    141   2   0.50000    -0.1150000    0.0000000   1.172438e-03  2.346713e-06
    134    139   2   0.50000    -0.1333000   -0.1150000   1.401943e-03  2.153106e-06
    134    153   2   0.50000    -0.1333000    0.1150000   2.907388e-04  1.414488e-07
    136    139   2   0.50000     0.0000000   -0.1150000   1.172438e-03  2.346713e-06
    136    153   2   0.50000     0.0000000    0.1150000   2.431434e-04  1.541678e-07
    135    138   2   0.50000    -0.0390000   -0.1150000   1.172438e-03  2.346713e-06
    135    150   2   0.50000    -0.0390000    0.1150000   2.431434e-04  1.541678e-07
    141    138   2   0.50000     0.0000000   -0.1150000   1.172438e-03  2.346713e-06
    141    150   2   0.50000     0.0000000    0.1150000   2.431434e-04  1.541678e-07
    135    146   2   0.50000    -0.0390000   -0.1150000   1.172438e-03  2.346713e-06
    137    142   2   0.50000    -0.1150000   -0.0390000   1.172438e-03  2.346713e-06
    137    146   2   0.50000    -0.1150000   -0.1150000   1.172438e-03  2.346713e-06
    136    151   2   0.50000     0.0000000    0.1150000   2.431434e-04  1.541678e-07
    150    139   2   0.50000     0.1150000   -0.1150000   2.431434e-04  1.541678e-07
    150    151   2   0.50000     0.1150000    0.1150000   5.042375e-05  1.012808e-08
    137    152   2   0.50000    -0.1150000    0.1150000   2.431434e-04  1.541678e-07
    151    140   2   0.50000     0.1150000   -0.1150000   2.431434e-04  1.541678e-07
    151    152   2   0.50000     0.1150000    0.1150000   5.042375e-05  1.012808e-08
    138    153   2   0.50000    -0.1150000    0.1150000   2.431434e-04  1.541678e-07
    152    135   2   0.50000     0.1150000   -0.0390000   2.431434e-04  1.541678e-07
    152    153   2   0.50000     0.1150000    0.1150000   5.042375e-05  1.012808e-08
    136    143   2   0.50000     0.0000000   -0.1150000   1.172438e-03  2.346713e-06
    146    134   2   0.50000    -0.1150000   -0.1333000   1.401943e-03  2.153106e-06
    146    143   2   0.50000    -0.1150000   -0.1150000   1.172438e-03  2.346713e-06
    136    145   2   0.50000     0.0000000   -0.1150000   1.172438e-03  2.346713e-06
    136    157   2   0.50000     0.0000000    0.1150000   2.431434e-04  1.541678e-07
    142    145   2   0.50000    -0.0390000   -0.1150000   1.172438e-03  2.346713e-06
    142    157   2   0.50000    -0.0390000    0.1150000   2.431434e-04  1.541678e-07
    134    144   2   0.50000    -0.1333000   -0.1150000   1.401943e-03  2.153106e-06
    134    154   2   0.50000    -0.1333000    0.1150000   2.907388e-04  1.414488e-07
    141    144   2   0.50000     0.0000000   -0.1150000   1.172438e-03  2.346713e-06
    141    154   2   0.50000     0.0000000    0.1150000   2.431434e-04  1.541678e-07
    142    155   2   0.50000    -0.0390000    0.1150000   2.431434e-04  1.541678e-07
    154    145   2   0.50000     0.1150000   -0.1150000   2.431434e-04  1.541678e-07
    154    155   2   0.50000     0.1150000    0.1150000   5.042375e-05  1.012808e-08
    143    156   2   0.50000    -0.1150000    0.1150000   2.431434e-04  1.541678e-07
    155    146   2   0.50000     0.1150000   -0.1150000   2.431434e-04  1.541678e-07
    155    156   2   0.50000     0.1150000    0.1150000   5.042375e-05  1.012808e-08
    144    157   2   0.50000    -0.1150000    0.1150000   2.431434e-04  1.541678e-07
    156    141   2   0.50000     0.1150000    0.0000000   2.431434e-04  1.541678e-07
    156    157   2   0.50000     0.1150000    0.1150000   5.042375e-05  1.012808e-08
    133    160   2   0.50000     0.1513000   -0.1333000   1.304585e-03  1.920112e-06
    133    175   2   0.50000     0.1513000    0.0600000   2.494471e-04  1.671101e-07
    133    184   2   0.50000     0.1513000   -0.1200000   1.015252e-03  1.866303e-06
    173    160   2   0.50000     0.0600000   -0.1333000   3.205360e-04  1.719281e-07
    173    175   2   0.50000     0.0600000    0.0600000   6.128906e-05  1.496315e-08
    173    184   2   0.50000     0.0600000   -0.1200000   2.494471e-04  1.671101e-07
    174    160   2   0.50000     0.0600000   -0.1333000   3.205360e-04  1.719281e-07
    174    175   2   0.50000     0.0600000    0.0600000   6.128906e-05  1.496315e-08
    174    184   2   0.50000     0.0600000   -0.1200000   2.494471e-04  1.671101e-07
    158    161   2   0.50000    -0.1200000   -0.0390000   1.091018e-03  2.092768e-06
    158    168   2   0.50000    -0.1200000   -0.0390000   1.091018e-03  2.092768e-06
    175    161   2   0.50000     0.0600000   -0.0390000   2.680627e-04  1.873879e-07
    175    168   2   0.50000     0.0600000   -0.0390000   2.680627e-04  1.873879e-07
    184    161   2   0.50000    -0.1200000   -0.0390000   1.091018e-03  2.092768e-06
    184    168   2   0.50000    -0.1200000   -0.0390000   1.091018e-03  2.092768e-06
    158    185   2   0.50000    -0.1200000    0.1513000   1.015252e-03  1.866303e-06
    158    199   2   0.50000    -0.1200000    0.0600000   2.494471e-04  1.671101e-07
    158    200   2   0.50000    -0.1200000    0.0600000   2.494471e-04  1.671101e-07
    160    185   2   0.50000    -0.1333000    0.1513000   1.304585e-03  1.920112e-06
    160    199   2   0.50000    -0.1333000    0.0600000   3.205360e-04  1.719281e-07
    160    200   2   0.50000    -0.1333000    0.0600000   3.205360e-04  1.719281e-07
    175    185   2   0.50000     0.0600000    0.1513000   2.494471e-04  1.671101e-07
    175    199   2   0.50000     0.0600000    0.0600000   6.128906e-05  1.496315e-08
    175    200   2   0.50000     0.0600000    0.0600000   6.128906e-05  1.496315e-08
    159    162   2   0.50000     0.1513000    0.0000000   1.091018e-03  2.092768e-06
    159    166   2   0.50000     0.1513000   -0.1150000   1.091018e-03  2.092768e-06
    168    166   2   0.50000    -0.0390000   -0.1150000   1.172438e-03  2.346713e-06
    159    167   2   0.50000     0.1513000    0.0000000   1.091018e-03  2.092768e-06
    159    169   2   0.50000     0.1513000   -0.1150000   1.091018e-03  2.092768e-06
    161    169   2   0.50000    -0.0390000   -0.1150000   1.172438e-03  2.346713e-06
    160    163   2   0.50000    -0.1333000   -0.1150000   1.401943e-03  2.153106e-06
    166    163   2   0.50000    -0.1150000   -0.1150000   1.172438e-03  2.346713e-06
    166    167   2   0.50000    -0.1150000    0.0000000   1.172438e-03  2.346713e-06
    160    165   2   0.50000    -0.1333000   -0.1150000   1.401943e-03  2.153106e-06
    160    179   2   0.50000    -0.1333000    0.1150000   2.907388e-04  1.414488e-07
    162    165   2   0.50000     0.0000000   -0.1150000   1.172438e-03  2.346713e-06
    162    179   2   0.50000     0.0000000    0.1150000   2.431434e-04  1.541678e-07
    161    164   2   0.50000    -0.0390000   -0.1150000   1.172438e-03  2.346713e-06
    161    176   2   0.50000    -0.0390000    0.1150000   2.431434e-04  1.541678e-07
    167    164   2   0.50000     0.0000000   -0.1150000   1.172438e-03  2.346713e-06
    167    176   2   0.50000     0.0000000    0.1150000   2.431434e-04  1.541678e-07
    161    172   2   0.50000    -0.0390000   -0.1150000   1.172438e-03  2.346713e-06
    163    168   2   0.50000    -0.1150000   -0.0390000   1.172438e-03  2.346713e-06
    163    172   2   0.50000    -0.1150000   -0.1150000   1.172438e-03  2.346713e-06
    162    177   2   0.50000     0.0000000    0.1150000   2.431434e-04  1.541678e-07
    176    165   2   0.50000     0.1150000   -0.1150000   2.431434e-04  1.541678e-07
    176    177   2   0.50000     0.1150000    0.1150000   5.042375e-05  1.012808e-08
    163    178   2   0.50000    -0.1150000    0.1150000   2.431434e-04  1.541678e-07
    177    166   2   0.50000     0.1150000   -0.1150000   2.431434e-04  1.541678e-07
    177    178   2   0.50000     0.1150000    0.1150000   5.042375e-05  1.012808e-08
    164    179   2   0.50000    -0.1150000    0.1150000   2.431434e-04  1.541678e-07
    178    161   2   0.50000     0.1150000   -0.0390000   2.431434e-04  1.541678e-07
    178    179   2   0.50000     0.1150000    0.1150000   5.042375e-05  1.012808e-08
    162    169   2   0.50000     0.0000000   -0.1150000   1.172438e-03  2.346713e-06
    172    160   2   0.50000    -0.1150000   -0.1333000   1.401943e-03  2.153106e-06
    172    169   2   0.50000    -0.1150000   -0.1150000   1.172438e-03  2.346713e-06
    162    171   2   0.50000     0.0000000   -0.1150000   1.172438e-03  2.346713e-06
    162    183   2   0.50000     0.0000000    0.1150000   2.431434e-04  1.541678e-07
    168    171   2   0.50000    -0.0390000   -0.1150000   1.172438e-03  2.346713e-06
    168    183   2   0.50000    -0.0390000    0.1150000   2.431434e-04  1.541678e-07
    160    170   2   0.50000    -0.1333000   -0.1150000   1.401943e-03  2.153106e-06
    160    180   2   0.50000    -0.1333000    0.1150000   2.907388e-04  1.414488e-07
    167    170   2   0.50000     0.0000000   -0.1150000   1.172438e-03  2.346713e-06
    167    180   2   0.50000     0.0000000    0.1150000   2.431434e-04  1.541678e-07
    168    181   2   0.50000    -0.0390000    0.1150000   2.431434e-04  1.541678e-07
    180    171   2   0.50000     0.1150000   -0.1150000   2.431434e-04  1.541678e-07
    180    181   2   0.50000     0.1150000    0.1150000   5.042375e-05  1.012808e-08
    169    182   2   0.50000    -0.1150000    0.1150000   2.431434e-04  1.541678e-07
    181    172   2   0.50000     0.1150000   -0.1150000   2.431434e-04  1.541678e-07
    181    182   2   0.50000     0.1150000    0.1150000   5.042375e-05  1.012808e-08
    170    183   2   0.50000    -0.1150000    0.1150000   2.431434e-04  1.541678e-07
    182    167   2   0.50000     0.1150000    0.0000000   2.431434e-04  1.541678e-07
    182    183   2   0.50000     0.1150000    0.1150000   5.042375e-05  1.012808e-08
    159    186   2   0.50000     0.1513000   -0.1333000   1.304585e-03  1.920112e-06
    159    201   2   0.50000     0.1513000    0.0600000   2.494471e-04  1.671101e-07
    159    210   2   0.50000     0.1513000   -0.1200000   1.015252e-03  1.866303e-06
    199    186   2   0.50000     0.0600000   -0.1333000   3.205360e-04  1.719281e-07
    199    201   2   0.50000     0.0600000    0.0600000   6.128906e-05  1.496315e-08
    199    210   2   0.50000     0.0600000   -0.1200000   2.494471e-04  1.671101e-07
    200    186   2   0.50000     0.0600000   -0.1333000   3.205360e-04  1.719281e-07
    200    201   2   0.50000     0.0600000    0.0600000   6.128906e-05  1.496315e-08
    200    210   2   0.50000     0.0600000   -0.1200000   2.494471e-04  1.671101e-07
    184    187   2   0.50000    -0.1200000   -0.0390000   1.091018e-03  2.092768e-06
    184    194   2   0.50000    -0.1200000   -0.0390000   1.091018e-03  2.092768e-06
    201    187   2   0.50000     0.0600000   -0.0390000   2.680627e-04  1.873879e-07
    201    194   2   0.50000     0.0600000   -0.0390000   2.680627e-04  1.873879e-07
    210    187   2   0.50000    -0.1200000   -0.0390000   1.091018e-03  2.092768e-06
    210    194   2   0.50000    -0.1200000   -0.0390000   1.091018e-03  2.092768e-06
    184    211   2   0.50000    -0.1200000    0.1513000   1.015252e-03  1.866303e-06
    184    225   2   0.50000    -0.1200000    0.0600000   2.494471e-04  1.671101e-07
    184    226   2   0.50000    -0.1200000    0.0600000   2.494471e-04  1.671101e-07
    186    211   2   0.50000    -0.1333000    0.1513000   1.304585e-03  1.920112e-06
    186    225   2   0.50000    -0.1333000    0.0600000   3.205360e-04  1.719281e-07
    186    226   2   0.50000    -0.1333000    0.0600000   3.205360e-04  1.719281e-07
    201    211   2   0.50000     0.0600000    0.1513000   2.494471e-04  1.671101e-07
    201    225   2   0.50000     0.0600000    0.0600000   6.128906e-05  1.496315e-08
    201    226   2   0.50000     0.0600000    0.0600000   6.128906e-05  1.496315e-08
    185    188   2   0.50000     0.1513000    0.0000000   1.091018e-03  2.092768e-06
    185    192   2   0.50000     0.1513000   -0.1150000   1.091018e-03  2.092768e-06
    194    192   2   0.50000    -0.0390000   -0.1150000   1.172438e-03  2.346713e-06
    185    193   2   0.50000     0.1513000    0.0000000   1.091018e-03  2.092768e-06
    185    195   2   0.50000     0.1513000   -0.1150000   1.091018e-03  2.092768e-06
    187    195   2   0.50000    -0.0390000   -0.1150000   1.172438e-03  2.346713e-06
    186    189   2   0.50000    -0.1333000   -0.1150000   1.401943e-03  2.153106e-06
    192    189   2   0.50000    -0.1150000   -0.1150000   1.172438e-03  2.346713e-06
    192    193   2   0.50000    -0.1150000    0.0000000   1.172438e-03  2.346713e-06
    186    191   2   0.50000    -0.1333000   -0.1150000   1.401943e-03  2.153106e-06
    186    205   2   0.50000    -0.1333000    0.1150000   2.907388e-04  1.414488e-07
    188    191   2   0.50000     0.0000000   -0.1150000   1.172438e-03  2.346713e-06
    188    205   2   0.50000     0.0000000    0.1150000   2.431434e-04  1.541678e-07
    187    190   2   0.50000    -0.0390000   -0.1150000   1.172438e-03  2.346713e-06
    187    202   2   0.50000    -0.0390000    0.1150000   2.431434e-04  1.541678e-07
    193    190   2   0.50000     0.0000000   -0.1150000   1.172438e-03  2.346713e-06
    193    202   2   0.50000     0.0000000    0.1150000   2.431434e-04  1.541678e-07
    187    198   2   0.50000    -0.0390000   -0.1150000   1.172438e-03  2.346713e-06
    189    194   2   0.50000    -0.1150000   -0.0390000   1.172438e-03  2.346713e-06
    189    198   2   0.50000    -0.1150000   -0.1150000   1.172438e-03  2.346713e-06
    188    203   2   0.50000     0.0000000    0.1150000   2.431434e-04  1.541678e-07
    202    191   2   0.50000     0.1150000   -0.1150000   2.431434e-04  1.541678e-07
    202    203   2   0.50000     0.1150000    0.1150000   5.042375e-05  1.012808e-08
    189    204   2   0.50000    -0.1150000    0.1150000   2.431434e-04  1.541678e-07
    203    192   2   0.50000     0.1150000   -0.1150000   2.431434e-04  1.541678e-07
    203    204   2   0.50000     0.1150000    0.1150000   5.042375e-05  1.012808e-08
    190    205   2   0.50000    -0.1150000    0.1150000   2.431434e-04  1.541678e-07
    204    187   2   0.50000     0.1150000   -0.0390000   2.431434e-04  1.541678e-07
    204    205   2   0.50000     0.1150000    0.1150000   5.042375e-05  1.012808e-08
    188    195   2   0.50000     0.0000000   -0.1150000   1.172438e-03  2.346713e-06
    198    186   2   0.50000    -0.1150000   -0.1333000   1.401943e-03  2.153106e-06
    198    195   2   0.50000    -0.1150000   -0.1150000   1.172438e-03  2.346713e-06
    188    197   2   0.50000     0.0000000   -0.1150000   1.172438e-03  2.346713e-06
    188    209   2   0.50000     0.0000000    0.1150000   2.431434e-04  1.541678e-07
    194    197   2   0.50000    -0.0390000   -0.1150000   1.172438e-03  2.346713e-06
    194    209   2   0.50000    -0.0390000    0.1150000   2.431434e-04  1.541678e-07
    186    196   2   0.50000    -0.1333000   -0.1150000   1.401943e-03  2.153106e-06
    186    206   2   0.50000    -0.1333000    0.1150000   2.907388e-04  1.414488e-07
    193    196   2   0.50000     0.0000000   -0.1150000   1.172438e-03  2.346713e-06
    193    206   2   0.50000     0.0000000    0.1150000   2.431434e-04  1.541678e-07
    194    207   2   0.50000    -0.0390000    0.1150000   2.431434e-04  1.541678e-07
    206    197   2   0.50000     0.1150000   -0.1150000   2.431434e-04  1.541678e-07
    206    207   2   0.50000     0.1150000    0.1150000   5.042375e-05  1.012808e-08
    195    208   2   0.50000    -0.1150000    0.1150000   2.431434e-04  1.541678e-07
    207    198   2   0.50000     0.1150000   -0.1150000   2.431434e-04  1.541678e-07
    207    208   2   0.50000     0.1150000    0.1150000   5.042375e-05  1.012808e-08
    196    209   2   0.50000    -0.1150000    0.1150000   2.431434e-04  1.541678e-07
    208    193   2   0.50000     0.1150000    0.0000000   2.431434e-04  1.541678e-07
    208    209   2   0.50000     0.1150000    0.1150000   5.042375e-05  1.012808e-08
    185    212   2   0.50000     0.1513000   -0.1333000   1.304585e-03  1.920112e-06
    185    227   2   0.50000     0.1513000    0.0600000   2.494471e-04  1.671101e-07
    185    236   2   0.50000     0.1513000   -0.1200000   1.015252e-03  1.866303e-06
    225    212   2   0.50000     0.0600000   -0.1333000   3.205360e-04  1.719281e-07
    225    227   2   0.50000     0.0600000    0.0600000   6.128906e-05  1.496315e-08
    225    236   2   0.50000     0.0600000   -0.1200000   2.494471e-04  1.671101e-07
    226    212   2   0.50000     0.0600000   -0.1333000   3.205360e-04  1.719281e-07
    226    227   2   0.50000     0.0600000    0.0600000   6.128906e-05  1.496315e-08
    226    236   2   0.50000     0.0600000   -0.1200000   2.494471e-04  1.671101e-07
    210    213   2   0.50000    -0.1200000   -0.0390000   1.091018e-03  2.092768e-06
    210    220   2   0.50000    -0.1200000   -0.0390000   1.091018e-03  2.092768e-06
    227    213   2   0.50000     0.0600000   -0.0390000   2.680627e-04  1.873879e-07
    227    220   2   0.50000     0.0600000   -0.0390000   2.680627e-04  1.873879e-07
    236    213   2   0.50000    -0.1200000   -0.0390000   1.091018e-03  2.092768e-06
    236    220   2   0.50000    -0.1200000   -0.0390000   1.091018e-03  2.092768e-06
    210    237   2   0.50000    -0.1200000    0.1513000   1.015252e-03  1.866303e-06
    210    251   2   0.50000    -0.1200000    0.0600000   2.494471e-04  1.671101e-07
    210    252   2   0.50000    -0.1200000    0.0600000   2.494471e-04  1.671101e-07
    212    237   2   0.50000    -0.1333000    0.1513000   1.304585e-03  1.920112e-06
    212    251   2   0.50000    -0.1333000    0.0600000   3.205360e-04  1.719281e-07
    212    252   2   0.50000    -0.1333000    0.0600000   3.205360e-04  1.719281e-07
    227    237   2   0.50000     0.0600000    0.1513000   2.494471e-04  1.671101e-07
    227    251   2   0.50000     0.0600000    0.0600000   6.128906e-05  1.496315e-08
    227    252   2   0.50000     0.0600000    0.0600000   6.128906e-05  1.496315e-08
    211    214   2   0.50000     0.1513000    0.0000000   1.091018e-03  2.092768e-06
    211    218   2   0.50000     0.1513000   -0.1150000   1.091018e-03  2.092768e-06
    220    218   2   0.50000    -0.0390000   -0.1150000   1.172438e-03  2.346713e-06
    211    219   2   0.50000     0.1513000    0.0000000   1.091018e-03  2.092768e-06
    211    221   2   0.50000     0.1513000   -0.1150000   1.091018e-03  2.092768e-06
    213    221   2   0.50000    -0.0390000   -0.1150000   1.172438e-03  2.346713e-06
    212    215   2   0.50000    -0.1333000   -0.1150000   1.401943e-03  2.153106e-06
    218    215   2   0.50000    -0.1150000   -0.1150000   1.172438e-03  2.346713e-06
    218    219   2   0.50000    -0.1150000    0.0000000   1.172438e-03  2.346713e-06
    212    217   2   0.50000    -0.1333000   -0.1150000   1.401943e-03  2.153106e-06
    212    231   2   0.50000    -0.1333000    0.1150000   2.907388e-04  1.414488e-07
    214    217   2   0.50000     0.0000000   -0.1150000   1.172438e-03  2.346713e-06
    214    231   2   0.50000     0.0000000    0.1150000   2.431434e-04  1.541678e-07
    213    216   2   0.50000    -0.0390000   -0.1150000   1.172438e-03  2.346713e-06
    213    228   2   0.50000    -0.0390000    0.1150000   2.431434e-04  1.541678e-07
    219    216   2   0.50000     0.0000000   -0.1150000   1.172438e-03  2.346713e-06
    219    228   2   0.50000     0.0000000    0.1150000   2.431434e-04  1.541678e-07
    213    224   2   0.50000    -0.0390000   -0.1150000   1.172438e-03  2.346713e-06
    215    220   2   0.50000    -0.1150000   -0.0390000   1.172438e-03  2.346713e-06
    215    224   2   0.50000    -0.1150000   -0.1150000   1.172438e-03  2.346713e-06
    214    229   2   0.50000     0.0000000    0.1150000   2.431434e-04  1.541678e-07
    228    217   2   0.50000     0.1150000   -0.1150000   2.431434e-04  1.541678e-07
    228    229   2   0.50000     0.1150000    0.1150000   5.042375e-05  1.012808e-08
    215    230   2   0.50000    -0.1150000    0.1150000   2.431434e-04  1.541678e-07
    229    218   2   0.50000     0.1150000   -0.1150000   2.431434e-04  1.541678e-07
    229    230   2   0.50000     0.1150000    0.1150000   5.042375e-05  1.012808e-08
    216    231   2   0.50000    -0.1150000    0.1150000   2.431434e-04  1.541678e-07
    230    213   2   0.50000     0.1150000   -0.0390000   2.431434e-04  1.541678e-07
    230    231   2   0.50000     0.1150000    0.1150000   5.042375e-05  1.012808e-08
    214    221   2   0.50000     0.0000000   -0.1150000   1.172438e-03  2.346713e-06
    224    212   2   0.50000    -0.1150000   -0.1333000   1.401943e-03  2.153106e-06
    224    221   2   0.50000    -0.1150000   -0.1150000   1.172438e-03  2.346713e-06
    214    223   2   0.50000     0.0000000   -0.1150000   1.172438e-03  2.346713e-06
    214    235   2   0.50000     0.0000000    0.1150000   2.431434e-04  1.541678e-07
    220    223   2   0.50000    -0.0390000   -0.1150000   1.172438e-03  2.346713e-06
    220    235   2   0.50000    -0.0390000    0.1150000   2.431434e-04  1.541678e-07
    212    222   2   0.50000    -0.1333000   -0.1150000   1.401943e-03  2.153106e-06
    212    232   2   0.50000    -0.1333000    0.1150000   2.907388e-04  1.414488e-07
    219    222   2   0.50000     0.0000000   -0.1150000   1.172438e-03  2.346713e-06
    219    232   2   0.50000     0.0000000    0.1150000   2.431434e-04  1.541678e-07
    220    233   2   0.50000    -0.0390000    0.1150000   2.431434e-04  1.541678e-07
    232    223   2   0.50000     0.1150000   -0.1150000   2.431434e-04  1.541678e-07
    232    233   2   0.50000     0.1150000    0.1150000   5.042375e-05  1.012808e-08
    221    234   2   0.50000    -0.1150000    0.1150000   2.431434e-04  1.541678e-07
    233    224   2   0.50000     0.1150000   -0.1150000   2.431434e-04  1.541678e-07
    233    234   2   0.50000     0.1150000    0.1150000   5.042375e-05  1.012808e-08
    222    235   2   0.50000    -0.1150000    0.1150000   2.431434e-04  1.541678e-07
    234    219   2   0.50000     0.1150000    0.0000000   2.431434e-04  1.541678e-07
    234    235   2   0.50000     0.1150000    0.1150000   5.042375e-05  1.012808e-08
    211    238   2   0.50000     0.1513000   -0.1333000   1.304585e-03  1.920112e-06
    211    253   2   0.50000     0.1513000    0.0600000   2.494471e-04  1.671101e-07
    211    262   2   0.50000     0.1513000   -0.1200000   1.015252e-03  1.866303e-06
    251    238   2   0.50000     0.0600000   -0.1333000   3.205360e-04  1.719281e-07
    251    253   2   0.50000     0.0600000    0.0600000   6.128906e-05  1.496315e-08
    251    262   2   0.50000     0.0600000   -0.1200000   2.494471e-04  1.671101e-07
    252    238   2   0.50000     0.0600000   -0.1333000   3.205360e-04  1.719281e-07
    252    253   2   0.50000     0.0600000    0.0600000   6.128906e-05  1.496315e-08
    252    262   2   0.50000     0.0600000   -0.1200000   2.494471e-04  1.671101e-07
    236    239   2   0.50000    -0.1200000   -0.0390000   1.091018e-03  2.092768e-06
    236    246   2   0.50000    -0.1200000   -0.0390000   1.091018e-03  2.092768e-06
    253    239   2   0.50000     0.0600000   -0.0390000   2.680627e-04  1.873879e-07
    253    246   2   0.50000     0.0600000   -0.0390000   2.680627e-04  1.873879e-07
    262    239   2   0.50000    -0.1200000   -0.0390000   1.091018e-03  2.092768e-06
    262    246   2   0.50000    -0.1200000   -0.0390000   1.091018e-03  2.092768e-06
    236    263   2   0.50000    -0.1200000    0.1513000   1.015252e-03  1.866303e-06
    236    277   2   0.50000    -0.1200000    0.0600000   2.494471e-04  1.671101e-07
    236    278   2   0.50000    -0.1200000    0.0600000   2.494471e-04  1.671101e-07
    238    263   2   0.50000    -0.1333000    0.1513000   1.304585e-03  1.920112e-06
    238    277   2   0.50000    -0.1333000    0.0600000   3.205360e-04  1.719281e-07
    238    278   2   0.50000    -0.1333000    0.0600000   3.205360e-04  1.719281e-07
    253    263   2   0.50000     0.0600000    0.1513000   2.494471e-04  1.671101e-07
    253    277   2   0.50000     0.0600000    0.0600000   6.128906e-05  1.496315e-08
    253    278   2   0.50000     0.0600000    0.0600000   6.128906e-05  1.496315e-08
    237    240   2   0.50000     0.1513000    0.0000000   1.091018e-03  2.092768e-06
    237    244   2   0.50000     0.1513000   -0.1150000   1.091018e-03  2.092768e-06
    246    244   2   0.50000    -0.0390000   -0.1150000   1.172438e-03  2.346713e-06
    237    245   2   0.50000     0.1513000    0.0000000   1.091018e-03  2.092768e-06
    237    247   2   0.50000     0.1513000   -0.1150000   1.091018e-03  2.092768e-06
    239    247   2   0.50000    -0.0390000   -0.1150000   1.172438e-03  2.346713e-06
    238    241   2   0.50000    -0.1333000   -0.1150000   1.401943e-03  2.153106e-06
    244    241   2   0.50000    -0.1150000   -0.1150000   1.172438e-03  2.346713e-06
    244    245   2   0.50000    -0.1150000    0.0000000   1.172438e-03  2.346713e-06
    238    243   2   0.50000    -0.1333000   -0.1150000   1.401943e-03  2.153106e-06
    238    257   2   0.50000    -0.1333000    0.1150000   2.907388e-04  1.414488e-07
    240    243   2   0.50000     0.0000000   -0.1150000   1.172438e-03  2.346713e-06
    240    257   2   0.50000     0.0000000    0.1150000   2.431434e-04  1.541678e-07
    239    242   2   0.50000    -0.0390000   -0.1150000   1.172438e-03  2.346713e-06
    239    254   2   0.50000    -0.0390000    0.1150000   2.431434e-04  1.541678e-07
    245    242   2   0.50000     0.0000000   -0.1150000   1.172438e-03  2.346713e-06
    245    254   2   0.50000     0.0000000    0.1150000   2.431434e-04  1.541678e-07
    239    250   2   0.50000    -0.0390000   -0.1150000   1.172438e-03  2.346713e-06
    241    246   2   0.50000    -0.1150000   -0.0390000   1.172438e-03  2.346713e-06
    241    250   2   0.50000    -0.1150000   -0.1150000   1.172438e-03  2.346713e-06
    240    255   2   0.50000     0.0000000    0.1150000   2.431434e-04  1.541678e-07
    254    243   2   0.50000     0.1150000   -0.1150000   2.431434e-04  1.541678e-07
    254    255   2   0.50000     0.1150000    0.1150000   5.042375e-05  1.012808e-08
    241    256   2   0.50000    -0.1150000    0.1150000   2.431434e-04  1.541678e-07
    255    244   2   0.50000     0.1150000   -0.1150000   2.431434e-04  1.541678e-07
    255    256   2   0.50000     0.1150000    0.1150000   5.042375e-05  1.012808e-08
    242    257   2   0.50000    -0.1150000    0.1150000   2.431434e-04  1.541678e-07
    256    239   2   0.50000     0.1150000   -0.0390000   2.431434e-04  1.541678e-07
    256    257   2   0.50000     0.1150000    0.1150000   5.042375e-05  1.012808e-08
    240    247   2   0.50000     0.0000000   -0.1150000   1.172438e-03  2.346713e-06
    250    238   2   0.50000    -0.1150000   -0.1333000   1.401943e-03  2.153106e-06
    250    247   2   0.50000    -0.1150000   -0.1150000   1.172438e-03  2.346713e-06
    240    249   2   0.50000     0.0000000   -0.1150000   1.172438e-03  2.346713e-06
    240    261   2   0.50000     0.0000000    0.1150000   2.431434e-04  1.541678e-07
    246    249   2   0.50000    -0.0390000   -0.1150000   1.172438e-03  2.346713e-06
    246    261   2   0.50000    -0.0390000    0.1150000   2.431434e-04  1.541678e-07
    238    248   2   0.50000    -0.1333000   -0.1150000   1.401943e-03  2.153106e-06
    238    258   2   0.50000    -0.1333000    0.1150000   2.907388e-04  1.414488e-07
    245    248   2   0.50000     0.0000000   -0.1150000   1.172438e-03  2.346713e-06
    245    258   2   0.50000     0.0000000    0.1150000   2.431434e-04  1.541678e-07
    246    259   2   0.50000    -0.0390000    0.1150000   2.431434e-04  1.541678e-07
    258    249   2   0.50000     0.1150000   -0.1150000   2.431434e-04  1.541678e-07
    258    259   2   0.50000     0.1150000    0.1150000   5.042375e-05  1.012808e-08
    247    260   2   0.50000    -0.1150000    0.1150000   2.431434e-04  1.541678e-07
    259    250   2   0.50000     0.1150000   -0.1150000   2.431434e-04  1.541678e-07
    259    260   2   0.50000     0.1150000    0.1150000   5.042375e-05  1.012808e-08
    248    261   2   0.50000    -0.1150000    0.1150000   2.431434e-04  1.541678e-07
    260    245   2   0.50000     0.1150000    0.0000000   2.431434e-04  1.541678e-07
    260    261   2   0.50000     0.1150000    0.1150000   5.042375e-05  1.012808e-08
    237    264   2   0.50000     0.1513000   -0.1333000   1.304585e-03  1.920112e-06
    237    279   2   0.50000     0.1513000    0.0600000   2.494471e-04  1.671101e-07
    237    288   2   0.50000     0.1513000   -0.1200000   1.015252e-03  1.866303e-06
    277    264   2   0.50000     0.0600000   -0.1333000   3.205360e-04  1.719281e-07
    277    279   2   0.50000     0.0600000    0.0600000   6.128906e-05  1.496315e-08
    277    288   2   0.50000     0.0600000   -0.1200000   2.494471e-04  1.671101e-07
    278    264   2   0.50000     0.0600000   -0.1333000   3.205360e-04  1.719281e-07
    278    279   2   0.50000     0.0600000    0.0600000   6.128906e-05  1.496315e-08
    278    288   2   0.50000     0.0600000   -0.1200000   2.494471e-04  1.671101e-07
    262    265   2   0.50000    -0.1200000   -0.0390000   1.091018e-03  2.092768e-06
    262    272   2   0.50000    -0.1200000   -0.0390000   1.091018e-03  2.092768e-06
    279    265   2   0.50000     0.0600000   -0.0390000   2.680627e-04  1.873879e-07
    279    272   2   0.50000     0.0600000   -0.0390000   2.680627e-04  1.873879e-07
    288    265   2   0.50000    -0.1200000   -0.0390000   1.091018e-03  2.092768e-06
    288    272   2   0.50000    -0.1200000   -0.0390000   1.091018e-03  2.092768e-06
    262    289   2   0.50000    -0.1200000    0.1513000   1.015252e-03  1.866303e-06
    262    303   2   0.50000    -0.1200000    0.0600000   2.494471e-04  1.671101e-07
    262    304   2   0.50000    -0.1200000    0.0600000   2.494471e-04  1.671101e-07
    264    289   2   0.50000    -0.1333000    0.1513000   1.304585e-03  1.920112e-06
    264    303   2   0.50000    -0.1333000    0.0600000   3.205360e-04  1.719281e-07
    264    304   2   0.50000    -0.1333000    0.0600000   3.205360e-04  1.719281e-07
    279    289   2   0.50000     0.0600000    0.1513000   2.494471e-04  1.671101e-07
    279    303   2   0.50000     0.0600000    0.0600000   6.128906e-05  1.496315e-08
    279    304   2   0.50000     0.0600000    0.0600000   6.128906e-05  1.496315e-08
    263    266   2   0.50000     0.1513000    0.0000000   1.091018e-03  2.092768e-06
    263    270   2   0.50000     0.1513000   -0.1150000   1.091018e-03  2.092768e-06
    272    270   2   0.50000    -0.0390000   -0.1150000   1.172438e-03  2.346713e-06
    263    271   2   0.50000     0.1513000    0.0000000   1.091018e-03  2.092768e-06
    263    273   2   0.50000     0.1513000   -0.1150000   1.091018e-03  2.092768e-06
    265    273   2   0.50000    -0.0390000   -0.1150000   1.172438e-03  2.346713e-06
    264    267   2   0.50000    -0.1333000   -0.1150000   1.401943e-03  2.153106e-06
    270    267   2   0.50000    -0.1150000   -0.1150000   1.172438e-03  2.346713e-06
    270    271   2   0.50000    -0.1150000    0.0000000   1.172438e-03  2.346713e-06
    264    269   2   0.50000    -0.1333000   -0.1150000   1.401943e-03  2.153106e-06
    264    283   2   0.50000    -0.1333000    0.1150000   2.907388e-04  1.414488e-07
    266    269   2   0.50000     0.0000000   -0.1150000   1.172438e-03  2.346713e-06
    266    283   2   0.50000     0.0000000    0.1150000   2.431434e-04  1.541678e-07
    265    268   2   0.50000    -0.0390000   -0.1150000   1.172438e-03  2.346713e-06
    265    280   2   0.50000    -0.0390000    0.1150000   2.431434e-04  1.541678e-07
    271    268   2   0.50000     0.0000000   -0.1150000   1.172438e-03  2.346713e-06
    271    280   2   0.50000     0.0000000    0.1150000   2.431434e-04  1.541678e-07
    265    276   2   0.50000    -0.0390000   -0.1150000   1.172438e-03  2.346713e-06
    267    272   2   0.50000    -0.1150000   -0.0390000   1.172438e-03  2.346713e-06
    267    276   2   0.50000    -0.1150000   -0.1150000   1.172438e-03  2.346713e-06
    266    281   2   0.50000     0.0000000    0.1150000   2.431434e-04  1.541678e-07
    280    269   2   0.50000     0.1150000   -0.1150000   2.431434e-04  1.541678e-07
    280    281   2   0.50000     0.1150000    0.1150000   5.042375e-05  1.012808e-08
    267    282   2   0.50000    -0.1150000    0.1150000   2.431434e-04  1.541678e-07
    281    270   2   0.50000     0.1150000   -0.1150000   2.431434e-04  1.541678e-07
    281    282   2   0.50000     0.1150000    0.1150000   5.042375e-05  1.012808e-08
    268    283   2   0.50000    -0.1150000    0.1150000   2.431434e-04  1.541678e-07
    282    265   2   0.50000     0.1150000   -0.0390000   2.431434e-04  1.541678e-07
    282    283   2   0.50000     0.1150000    0.1150000   5.042375e-05  1.012808e-08
    266    273   2   0.50000     0.0000000   -0.1150000   1.172438e-03  2.346713e-06
    276    264   2   0.50000    -0.1150000   -0.1333000   1.401943e-03  2.153106e-06
    276    273   2   0.50000    -0.1150000   -0.1150000   1.172438e-03  2.346713e-06
    266    275   2   0.50000     0.0000000   -0.1150000   1.172438e-03  2.346713e-06
    266    287   2   0.50000     0.0000000    0.1150000   2.431434e-04  1.541678e-07
    272    275   2   0.50000    -0.0390000   -0.1150000   1.172438e-03  2.346713e-06
    272    287   2   0.50000    -0.0390000    0.1150000   2.431434e-04  1.541678e-07
    264    274   2   0.50000    -0.1333000   -0.1150000   1.401943e-03  2.153106e-06
    264    284   2   0.50000    -0.1333000    0.1150000   2.907388e-04  1.414488e-07
    271    274   2   0.50000     0.0000000   -0.1150000   1.172438e-03  2.346713e-06
    271    284   2   0.50000     0.0000000    0.1150000   2.431434e-04  1.541678e-07
    272    285   2   0.50000    -0.0390000    0.1150000   2.431434e-04  1.541678e-07
    284    275   2   0.50000     0.1150000   -0.1150000   2.431434e-04  1.541678e-07
    284    285   2   0.50000     0.1150000    0.1150000   5.042375e-05  1.012808e-08
    273    286   2   0.50000    -0.1150000    0.1150000   2.431434e-04  1.541678e-07
    285    276   2   0.50000     0.1150000   -0.1150000   2.431434e-04  1.541678e-07
    285    286   2   0.50000     0.1150000    0.1150000   5.042375e-05  1.012808e-08
    274    287   2   0.50000    -0.1150000    0.1150000   2.431434e-04  1.541678e-07
    286    271   2   0.50000     0.1150000    0.0000000   2.431434e-04  1.541678e-07
    286    287   2   0.50000     0.1150000    0.1150000   5.042375e-05  1.012808e-08
    263    290   2   0.50000     0.1513000   -0.1333000   1.304585e-03  1.920112e-06
    263    305   2   0.50000     0.1513000    0.0600000   2.494471e-04  1.671101e-07
    263    314   2   0.50000     0.1513000   -0.1200000   1.015252e-03  1.866303e-06
    303    290   2   0.50000     0.0600000   -0.1333000   3.205360e-04  1.719281e-07
    303    305   2   0.50000     0.0600000    0.0600000   6.128906e-05  1.496315e-08
    303    314   2   0.50000     0.0600000   -0.1200000   2.494471e-04  1.671101e-07
    304    290   2   0.50000     0.0600000   -0.1333000   3.205360e-04  1.719281e-07
    304    305   2   0.50000     0.0600000    0.0600000   6.128906e-05  1.496315e-08
    304    314   2   0.50000     0.0600000   -0.1200000   2.494471e-04  1.671101e-07
    288    291   2   0.50000    -0.1200000   -0.0390000   1.091018e-03  2.092768e-06
    288    298   2   0.50000    -0.1200000   -0.0390000   1.091018e-03  2.092768e-06
    305    291   2   0.50000     0.0600000   -0.0390000   2.680627e-04  1.873879e-07
    305    298   2   0.50000     0.0600000   -0.0390000   2.680627e-04  1.873879e-07
    314    291   2   0.50000    -0.1200000   -0.0390000   1.091018e-03  2.092768e-06
    314    298   2   0.50000    -0.1200000   -0.0390000   1.091018e-03  2.092768e-06
    288    315   2   0.50000    -0.1200000    0.1513000   1.015252e-03  1.866303e-06
    288    329   2   0.50000    -0.1200000    0.0600000   2.494471e-04  1.671101e-07
    288    330   2   0.50000    -0.1200000    0.0600000   2.494471e-04  1.671101e-07
    290    315   2   0.50000    -0.1333000    0.1513000   1.304585e-03  1.920112e-06
    290    329   2   0.50000    -0.1333000    0.0600000   3.205360e-04  1.719281e-07
    290    330   2   0.50000    -0.1333000    0.0600000   3.205360e-04  1.719281e-07
    305    315   2   0.50000     0.0600000    0.1513000   2.494471e-04  1.671101e-07
    305    329   2   0.50000     0.0600000    0.0600000   6.128906e-05  1.496315e-08
    305    330   2   0.50000     0.0600000    0.0600000   6.128906e-05  1.496315e-08
    289    292   2   0.50000     0.1513000    0.0000000   1.091018e-03  2.092768e-06
    289    296   2   0.50000     0.1513000   -0.1150000   1.091018e-03  2.092768e-06
    298    296   2   0.50000    -0.0390000   -0.1150000   1.172438e-03  2.346713e-06
    289    297   2   0.50000     0.1513000    0.0000000   1.091018e-03  2.092768e-06
    289    299   2   0.50000     0.1513000   -0.1150000   1.091018e-03  2.092768e-06
    291    299   2   0.50000    -0.0390000   -0.1150000   1.172438e-03  2.346713e-06
    290    293   2   0.50000    -0.1333000   -0.1150000   1.401943e-03  2.153106e-06
    296    293   2   0.50000    -0.1150000   -0.1150000   1.172438e-03  2.346713e-06
    296    297   2   0.50000    -0.1150000    0.0000000   1.172438e-03  2.346713e-06
    290    295   2   0.50000    -0.1333000   -0.1150000   1.401943e-03  2.153106e-06
    290    309   2   0.50000    -0.1333000    0.1150000   2.907388e-04  1.414488e-07
    292    295   2   0.50000     0.0000000   -0.1150000   1.172438e-03  2.346713e-06
    292    309   2   0.50000     0.0000000    0.1150000   2.431434e-04  1.541678e-07
    291    294   2   0.50000    -0.0390000   -0.1150000   1.172438e-03  2.346713e-06
    291    306   2   0.50000    -0.0390000    0.1150000   2.431434e-04  1.541678e-07
    297    294   2   0.50000     0.0000000   -0.1150000   1.172438e-03  2.346713e-06
    297    306   2   0.50000     0.0000000    0.1150000   2.431434e-04  1.541678e-07
    291    302   2   0.50000    -0.0390000   -0.1150000   1.172438e-03  2.346713e-06
    293    298   2   0.50000    -0.1150000   -0.0390000   1.172438e-03  2.346713e-06
    293    302   2   0.50000    -0.1150000   -0.1150000   1.172438e-03  2.346713e-06
    292    307   2   0.50000     0.0000000    0.1150000   2.431434e-04  1.541678e-07
    306    295   2   0.50000     0.1150000   -0.1150000   2.431434e-04  1.541678e-07
    306    307   2   0.50000     0.1150000    0.1150000   5.042375e-05  1.012808e-08
    293    308   2   0.50000    -0.1150000    0.1150000   2.431434e-04  1.541678e-07
    307    296   2   0.50000     0.1150000   -0.1150000   2.431434e-04  1.541678e-07
    307    308   2   0.50000     0.1150000    0.1150000   5.042375e-05  1.012808e-08
    294    309   2   0.50000    -0.1150000    0.1150000   2.431434e-04  1.541678e-07
    308    291   2   0.50000     0.1150000   -0.0390000   2.431434e-04  1.541678e-07
    308    309   2   0.50000     0.1150000    0.1150000   5.042375e-05  1.012808e-08
    292    299   2   0.50000     0.0000000   -0.1150000   1.172438e-03  2.346713e-06
    302    290   2   0.50000    -0.1150000   -0.1333000   1.401943e-03  2.153106e-06
    302    299   2   0.50000    -0.1150000   -0.1150000   1.172438e-03  2.346713e-06
    292    301   2   0.50000     0.0000000   -0.1150000   1.172438e-03  2.346713e-06
    292    313   2   0.50000     0.0000000    0.1150000   2.431434e-04  1.541678e-07
    298    301   2   0.50000    -0.0390000   -0.1150000   1.172438e-03  2.346713e-06
    298    313   2   0.50000    -0.0390000    0.1150000   2.431434e-04  1.541678e-07
    290    300   2   0.50000    -0.1333000   -0.1150000   1.401943e-03  2.153106e-06
    290    310   2   0.50000    -0.1333000    0.1150000   2.907388e-04  1.414488e-07
    297    300   2   0.50000     0.0000000   -0.1150000   1.172438e-03  2.346713e-06
    297    310   2   0.50000     0.0000000    0.1150000   2.431434e-04  1.541678e-07
    298    311   2   0.50000    -0.0390000    0.1150000   2.431434e-04  1.541678e-07
    310    301   2   0.50000     0.1150000   -0.1150000   2.431434e-04  1.541678e-07
    310    311   2   0.50000     0.1150000    0.1150000   5.042375e-05  1.012808e-08
    299    312   2   0.50000    -0.1150000    0.1150000   2.431434e-04  1.541678e-07
    311    302   2   0.50000     0.1150000   -0.1150000   2.431434e-04  1.541678e-07
    311    312   2   0.50000     0.1150000    0.1150000   5.042375e-05  1.012808e-08
    300    313   2   0.50000    -0.1150000    0.1150000   2.431434e-04  1.541678e-07
    312    297   2   0.50000     0.1150000    0.0000000   2.431434e-04  1.541678e-07
    312    313   2   0.50000     0.1150000    0.1150000   5.042375e-05  1.012808e-08
    289    316   2   0.50000     0.1513000   -0.1333000   1.304585e-03  1.920112e-06
    289    331   2   0.50000     0.1513000    0.0600000   2.494471e-04  1.671101e-07
    289    340   2   0.50000     0.1513000   -0.1200000   1.015252e-03  1.866303e-06
    329    316   2   0.50000     0.0600000   -0.1333000   3.205360e-04  1.719281e-07
    329    331   2   0.50000     0.0600000    0.0600000   6.128906e-05  1.496315e-08
    329    340   2   0.50000     0.0600000   -0.1200000   2.494471e-04  1.671101e-07
    330    316   2   0.50000     0.0600000   -0.1333000   3.205360e-04  1.719281e-07
    330    331   2   0.50000     0.0600000    0.0600000   6.128906e-05  1.496315e-08
    330    340   2   0.50000     0.0600000   -0.1200000   2.494471e-04  1.671101e-07
    314    317   2   0.50000    -0.1200000   -0.0390000   1.091018e-03  2.092768e-06
    314    324   2   0.50000    -0.1200000   -0.0390000   1.091018e-03  2.092768e-06
    331    317   2   0.50000     0.0600000   -0.0390000   2.680627e-04  1.873879e-07
    331    324   2   0.50000     0.0600000   -0.0390000   2.680627e-04  1.873879e-07
    340    317   2   0.50000    -0.1200000   -0.0390000   1.091018e-03  2.092768e-06
    340    324   2   0.50000    -0.1200000   -0.0390000   1.091018e-03  2.092768e-06
    314    341   2   0.50000    -0.1200000    0.1513000   1.015252e-03  1.866303e-06
    314    355   2   0.50000    -0.1200000    0.0600000   2.494471e-04  1.671101e-07
    314    356   2   0.50000    -0.1200000    0.0600000   2.494471e-04  1.671101e-07
    316    341   2   0.50000    -0.1333000    0.1513000   1.304585e-03  1.920112e-06
    316    355   2   0.50000    -0.1333000    0.0600000   3.205360e-04  1.719281e-07
    316    356   2   0.50000    -0.1333000    0.0600000   3.205360e-04  1.719281e-07
    331    341   2   0.50000     0.0600000    0.1513000   2.494471e-04  1.671101e-07
    331    355   2   0.50000     0.0600000    0.0600000   6.128906e-05  1.496315e-08
    331    356   2   0.50000     0.0600000    0.0600000   6.128906e-05  1.496315e-08
    315    318   2   0.50000     0.1513000    0.0000000   1.091018e-03  2.092768e-06
    315    322   2   0.50000     0.1513000   -0.1150000   1.091018e-03  2.092768e-06
    324    322   2   0.50000    -0.0390000   -0.1150000   1.172438e-03  2.346713e-06
    315    323   2   0.50000     0.1513000    0.0000000   1.091018e-03  2.092768e-06
    315    325   2   0.50000     0.1513000   -0.1150000   1.091018e-03  2.092768e-06
    317    325   2   0.50000    -0.0390000   -0.1150000   1.172438e-03  2.346713e-06
    316    319   2   0.50000    -0.1333000   -0.1150000   1.401943e-03  2.153106e-06
    322    319   2   0.50000    -0.1150000   -0.1150000   1.172438e-03  2.346713e-06
    322    323   2   0.50000    -0.1150000    0.0000000   1.172438e-03  2.346713e-06
    316    321   2   0.50000    -0.1333000   -0.1150000   1.401943e-03  2.153106e-06
    316    335   2   0.50000    -0.1333000    0.1150000   2.907388e-04  1.414488e-07
    318    321   2   0.50000     0.0000000   -0.1150000   1.172438e-03  2.346713e-06
    318    335   2   0.50000     0.0000000    0.1150000   2.431434e-04  1.541678e-07
    317    320   2   0.50000    -0.0390000   -0.1150000   1.172438e-03  2.346713e-06
    317    332   2   0.50000    -0.0390000    0.1150000   2.431434e-04  1.541678e-07
    323    320   2   0.50000     0.0000000   -0.1150000   1.172438e-03  2.346713e-06
    323    332   2   0.50000     0.0000000    0.1150000   2.431434e-04  1.541678e-07
    317    328   2   0.50000    -0.0390000   -0.1150000   1.172438e-03  2.346713e-06
    319    324   2   0.50000    -0.1150000   -0.0390000   1.172438e-03  2.346713e-06
    319    328   2   0.50000    -0.1150000   -0.1150000   1.172438e-03  2.346713e-06
    318    333   2   0.50000     0.0000000    0.1150000   2.431434e-04  1.541678e-07
    332    321   2   0.50000     0.1150000   -0.1150000   2.431434e-04  1.541678e-07
    332    333   2   0.50000     0.1150000    0.1150000   5.042375e-05  1.012808e-08
    319    334   2   0.50000    -0.1150000    0.1150000   2.431434e-04  1.541678e-07
    333    322   2   0.50000     0.1150000   -0.1150000   2.431434e-04  1.541678e-07
    333    334   2   0.50000     0.1150000    0.1150000   5.042375e-05  1.012808e-08
    320    335   2   0.50000    -0.1150000    0.1150000   2.431434e-04  1.541678e-07
    334    317   2   0.50000     0.1150000   -0.0390000   2.431434e-04  1.541678e-07
    334    335   2   0.50000     0.1150000    0.1150000   5.042375e-05  1.012808e-08
    318    325   2   0.50000     0.0000000   -0.1150000   1.172438e-03  2.346713e-06
    328    316   2   0.50000    -0.1150000   -0.1333000   1.401943e-03  2.153106e-06
    328    325   2   0.50000    -0.1150000   -0.1150000   1.172438e-03  2.346713e-06
    318    327   2   0.50000     0.0000000   -0.1150000   1.172438e-03  2.346713e-06
    318    339   2   0.50000     0.0000000    0.1150000   2.431434e-04  1.541678e-07
    324    327   2   0.50000    -0.0390000   -0.1150000   1.172438e-03  2.346713e-06
    324    339   2   0.50000    -0.0390000    0.1150000   2.431434e-04  1.541678e-07
    316    326   2   0.50000    -0.1333000   -0.1150000   1.401943e-03  2.153106e-06
    316    336   2   0.50000    -0.1333000    0.1150000   2.907388e-04  1.414488e-07
    323    326   2   0.50000     0.0000000   -0.1150000   1.172438e-03  2.346713e-06
    323    336   2   0.50000     0.0000000    0.1150000   2.431434e-04  1.541678e-07
    324    337   2   0.50000    -0.0390000    0.1150000   2.431434e-04  1.541678e-07
    336    327   2   0.50000     0.1150000   -0.1150000   2.431434e-04  1.541678e-07
    336    337   2   0.50000     0.1150000    0.1150000   5.042375e-05  1.012808e-08
    325    338   2   0.50000    -0.1150000    0.1150000   2.431434e-04  1.541678e-07
    337    328   2   0.50000     0.1150000   -0.1150000   2.431434e-04  1.541678e-07
    337    338   2   0.50000     0.1150000    0.1150000   5.042375e-05  1.012808e-08
    326    339   2   0.50000    -0.1150000    0.1150000   2.431434e-04  1.541678e-07
    338    323   2   0.50000     0.1150000    0.0000000   2.431434e-04  1.541678e-07
    338    339   2   0.50000     0.1150000    0.1150000   5.042375e-05  1.012808e-08
    315    342   2   0.50000     0.1513000   -0.1333000   1.304585e-03  1.920112e-06
    315    357   2   0.50000     0.1513000    0.0600000   2.494471e-04  1.671101e-07
    315    366   2   0.50000     0.1513000   -0.1200000   1.015252e-03  1.866303e-06
    355    342   2   0.50000     0.0600000   -0.1333000   3.205360e-04  1.719281e-07
    355    357   2   0.50000     0.0600000    0.0600000   6.128906e-05  1.496315e-08
    355    366   2   0.50000     0.0600000   -0.1200000   2.494471e-04  1.671101e-07
    356    342   2   0.50000     0.0600000   -0.1333000   3.205360e-04  1.719281e-07
    356    357   2   0.50000     0.0600000    0.0600000   6.128906e-05  1.496315e-08
    356    366   2   0.50000     0.0600000   -0.1200000   2.494471e-04  1.671101e-07
    340    343   2   0.50000    -0.1200000   -0.0390000   1.091018e-03  2.092768e-06
    340    350   2   0.50000    -0.1200000   -0.0390000   1.091018e-03  2.092768e-06
    357    343   2   0.50000     0.0600000   -0.0390000   2.680627e-04  1.873879e-07
    357    350   2   0.50000     0.0600000   -0.0390000   2.680627e-04  1.873879e-07
    366    343   2   0.50000    -0.1200000   -0.0390000   1.091018e-03  2.092768e-06
    366    350   2   0.50000    -0.1200000   -0.0390000   1.091018e-03  2.092768e-06
    340    367   2   0.50000    -0.1200000    0.1513000   1.015252e-03  1.866303e-06
    340    381   2   0.50000    -0.1200000    0.0600000   2.494471e-04  1.671101e-07
    340    382   2   0.50000    -0.1200000    0.0600000   2.494471e-04  1.671101e-07
    342    367   2   0.50000    -0.1333000    0.1513000   1.304585e-03  1.920112e-06
    342    381   2   0.50000    -0.1333000    0.0600000   3.205360e-04  1.719281e-07
    342    382   2   0.50000    -0.1333000    0.0600000   3.205360e-04  1.719281e-07
    357    367   2   0.50000     0.0600000    0.1513000   2.494471e-04  1.671101e-07
    357    381   2   0.50000     0.0600000    0.0600000   6.128906e-05  1.496315e-08
    357    382   2   0.50000     0.0600000    0.0600000   6.128906e-05  1.496315e-08
    341    344   2   0.50000     0.1513000    0.0000000   1.091018e-03  2.092768e-06
    341    348   2   0.50000     0.1513000   -0.1150000   1.091018e-03  2.092768e-06
    350    348   2   0.50000    -0.0390000   -0.1150000   1.172438e-03  2.346713e-06
    341    349   2   0.50000     0.1513000    0.0000000   1.091018e-03  2.092768e-06
    341    351   2   0.50000     0.1513000   -0.1150000   1.091018e-03  2.092768e-06
    343    351   2   0.50000    -0.0390000   -0.1150000   1.172438e-03  2.346713e-06
    342    345   2   0.50000    -0.1333000   -0.1150000   1.401943e-03  2.153106e-06
    348    345   2   0.50000    -0.1150000   -0.1150000   1.172438e-03  2.346713e-06
    348    349   2   0.50000    -0.1150000    0.0000000   1.172438e-03  2.346713e-06
    342    347   2   0.50000    -0.1333000   -0.1150000   1.401943e-03  2.153106e-06
    342    361   2   0.50000    -0.1333000    0.1150000   2.907388e-04  1.414488e-07
    344    347   2   0.50000     0.0000000   -0.1150000   1.172438e-03  2.346713e-06
    344    361   2   0.50000     0.0000000    0.1150000   2.431434e-04  1.541678e-07
    343    346   2   0.50000    -0.0390000   -0.1150000   1.172438e-03  2.346713e-06
    343    358   2   0.50000    -0.0390000    0.1150000   2.431434e-04  1.541678e-07
    349    346   2   0.50000     0.0000000   -0.1150000   1.172438e-03  2.346713e-06
    349    358   2   0.50000     0.0000000    0.1150000   2.431434e-04  1.541678e-07
    343    354   2   0.50000    -0.0390000   -0.1150000   1.172438e-03  2.346713e-06
    345    350   2   0.50000    -0.1150000   -0.0390000   1.172438e-03  2.346713e-06
    345    354   2   0.50000    -0.1150000   -0.1150000   1.172438e-03  2.346713e-06
    344    359   2   0.50000     0.0000000    0.1150000   2.431434e-04  1.541678e-07
    358    347   2   0.50000     0.1150000   -0.1150000   2.431434e-04  1.541678e-07
    358    359   2   0.50000     0.1150000    0.1150000   5.042375e-05  1.012808e-08
    345    360   2   0.50000    -0.1150000    0.1150000   2.431434e-04  1.541678e-07
    359    348   2   0.50000     0.1150000   -0.1150000   2.431434e-04  1.541678e-07
    359    360   2   0.50000     0.1150000    0.1150000   5.042375e-05  1.012808e-08
    346    361   2   0.50000    -0.1150000    0.1150000   2.431434e-04  1.541678e-07
    360    343   2   0.50000     0.1150000   -0.0390000   2.431434e-04  1.541678e-07
    360    361   2   0.50000     0.1150000    0.1150000   5.042375e-05  1.012808e-08
    344    351   2   0.50000     0.0000000   -0.1150000   1.172438e-03  2.346713e-06
    354    342   2   0.50000    -0.1150000   -0.1333000   1.401943e-03  2.153106e-06
    354    351   2   0.50000    -0.1150000   -0.1150000   1.172438e-03  2.346713e-06
    344    353   2   0.50000     0.0000000   -0.1150000   1.172438e-03  2.346713e-06
    344    365   2   0.50000     0.0000000    0.1150000   2.431434e-04  1.541678e-07
    350    353   2   0.50000    -0.0390000   -0.1150000   1.172438e-03  2.346713e-06
    350    365   2   0.50000    -0.0390000    0.1150000   2.431434e-04  1.541678e-07
    342    352   2   0.50000    -0.1333000   -0.1150000   1.401943e-03  2.153106e-06
    342    362   2   0.50000    -0.1333000    0.1150000   2.907388e-04  1.414488e-07
    349    352   2   0.50000     0.0000000   -0.1150000   1.172438e-03  2.346713e-06
    349    362   2   0.50000     0.0000000    0.1150000   2.431434e-04  1.541678e-07
    350    363   2   0.50000    -0.0390000    0.1150000   2.431434e-04  1.541678e-07
    362    353   2   0.50000     0.1150000   -0.1150000   2.431434e-04  1.541678e-07
    362    363   2   0.50000     0.1150000    0.1150000   5.042375e-05  1.012808e-08
    351    364   2   0.50000    -0.1150000    0.1150000   2.431434e-04  1.541678e-07
    363    354   2   0.50000     0.1150000   -0.1150000   2.431434e-04  1.541678e-07
    363    364   2   0.50000     0.1150000    0.1150000   5.042375e-05  1.012808e-08
    352    365   2   0.50000    -0.1150000    0.1150000   2.431434e-04  1.541678e-07
    364    349   2   0.50000     0.1150000    0.0000000   2.431434e-04  1.541678e-07
    364    365   2   0.50000     0.1150000    0.1150000   5.042375e-05  1.012808e-08
    341    368   2   0.50000     0.1513000   -0.1333000   1.304585e-03  1.920112e-06
    341    383   2   0.50000     0.1513000    0.0600000   2.494471e-04  1.671101e-07
    341    392   2   0.50000     0.1513000   -0.1200000   1.015252e-03  1.866303e-06
    381    368   2   0.50000     0.0600000   -0.1333000   3.205360e-04  1.719281e-07
    381    383   2   0.50000     0.0600000    0.0600000   6.128906e-05  1.496315e-08
    381    392   2   0.50000     0.0600000   -0.1200000   2.494471e-04  1.671101e-07
    382    368   2   0.50000     0.0600000   -0.1333000   3.205360e-04  1.719281e-07
    382    383   2   0.50000     0.0600000    0.0600000   6.128906e-05  1.496315e-08
    382    392   2   0.50000     0.0600000   -0.1200000   2.494471e-04  1.671101e-07
    366    369   2   0.50000    -0.1200000   -0.0390000   1.091018e-03  2.092768e-06
    366    376   2   0.50000    -0.1200000   -0.0390000   1.091018e-03  2.092768e-06
    383    369   2   0.50000     0.0600000   -0.0390000   2.680627e-04  1.873879e-07
    383    376   2   0.50000     0.0600000   -0.0390000   2.680627e-04  1.873879e-07
    392    369   2   0.50000    -0.1200000   -0.0390000   1.091018e-03  2.092768e-06
    392    376   2   0.50000    -0.1200000   -0.0390000   1.091018e-03  2.092768e-06
    366    393   2   0.50000    -0.1200000    0.1513000   1.015252e-03  1.866303e-06
    366    407   2   0.50000    -0.1200000    0.0600000   2.494471e-04  1.671101e-07
    366    408   2   0.50000    -0.1200000    0.0600000   2.494471e-04  1.671101e-07
    368    393   2   0.50000    -0.1333000    0.1513000   1.304585e-03  1.920112e-06
    368    407   2   0.50000    -0.1333000    0.0600000   3.205360e-04  1.719281e-07
    368    408   2   0.50000    -0.1333000    0.0600000   3.205360e-04  1.719281e-07
    383    393   2   0.50000     0.0600000    0.1513000   2.494471e-04  1.671101e-07
    383    407   2   0.50000     0.0600000    0.0600000   6.128906e-05  1.496315e-08
    383    408   2   0.50000     0.0600000    0.0600000   6.128906e-05  1.496315e-08
    367    370   2   0.50000     0.1513000    0.0000000   1.091018e-03  2.092768e-06
    367    374   2   0.50000     0.1513000   -0.1150000   1.091018e-03  2.092768e-06
    376    374   2   0.50000    -0.0390000   -0.1150000   1.172438e-03  2.346713e-06
    367    375   2   0.50000     0.1513000    0.0000000   1.091018e-03  2.092768e-06
    367    377   2   0.50000     0.1513000   -0.1150000   1.091018e-03  2.092768e-06
    369    377   2   0.50000    -0.0390000   -0.1150000   1.172438e-03  2.346713e-06
    368    371   2   0.50000    -0.1333000   -0.1150000   1.401943e-03  2.153106e-06
    374    371   2   0.50000    -0.1150000   -0.1150000   1.172438e-03  2.346713e-06
    374    375   2   0.50000    -0.1150000    0.0000000   1.172438e-03  2.346713e-06
    368    373   2   0.50000    -0.1333000   -0.1150000   1.401943e-03  2.153106e-06
    368    387   2   0.50000    -0.1333000    0.1150000   2.907388e-04  1.414488e-07
    370    373   2   0.50000     0.0000000   -0.1150000   1.172438e-03  2.346713e-06
    370    387   2   0.50000     0.0000000    0.1150000   2.431434e-04  1.541678e-07
    369    372   2   0.50000    -0.0390000   -0.1150000   1.172438e-03  2.346713e-06
    369    384   2   0.50000    -0.0390000    0.1150000   2.431434e-04  1.541678e-07
    375    372   2   0.50000     0.0000000   -0.1150000   1.172438e-03  2.346713e-06
    375    384   2   0.50000     0.0000000    0.1150000   2.431434e-04  1.541678e-07
    369    380   2   0.50000    -0.0390000   -0.1150000   1.172438e-03  2.346713e-06
    371    376   2   0.50000    -0.1150000   -0.0390000   1.172438e-03  2.346713e-06
    371    380   2   0.50000    -0.1150000   -0.1150000   1.172438e-03  2.346713e-06
    370    385   2   0.50000     0.0000000    0.1150000   2.431434e-04  1.541678e-07
    384    373   2   0.50000     0.1150000   -0.1150000   2.431434e-04  1.541678e-07
    384    385   2   0.50000     0.1150000    0.1150000   5.042375e-05  1.012808e-08
    371    386   2   0.50000    -0.1150000    0.1150000   2.431434e-04  1.541678e-07
    385    374   2   0.50000     0.1150000   -0.1150000   2.431434e-04  1.541678e-07
    385    386   2   0.50000     0.1150000    0.1150000   5.042375e-05  1.012808e-08
    372    387   2   0.50000    -0.1150000    0.1150000   2.431434e-04  1.541678e-07
    386    369   2   0.50000     0.1150000   -0.0390000   2.431434e-04  1.541678e-07
    386    387   2   0.50000     0.1150000    0.1150000   5.042375e-05  1.012808e-08
    370    377   2   0.50000     0.0000000   -0.1150000   1.172438e-03  2.346713e-06
    380    368   2   0.50000    -0.1150000   -0.1333000   1.401943e-03  2.153106e-06
    380    377   2   0.50000    -0.1150000   -0.1150000   1.172438e-03  2.346713e-06
    370    379   2   0.50000     0.0000000   -0.1150000   1.172438e-03  2.346713e-06
    370    391   2   0.50000     0.0000000    0.1150000   2.431434e-04  1.541678e-07
    376    379   2   0.50000    -0.0390000   -0.1150000   1.172438e-03  2.346713e-06
    376    391   2   0.50000    -0.0390000    0.1150000   2.431434e-04  1.541678e-07
    368    378   2   0.50000    -0.1333000   -0.1150000   1.401943e-03  2.153106e-06
    368    388   2   0.50000    -0.1333000    0.1150000   2.907388e-04  1.414488e-07
    375    378   2   0.50000     0.0000000   -0.1150000   1.172438e-03  2.346713e-06
    375    388   2   0.50000     0.0000000    0.1150000   2.431434e-04  1.541678e-07
    376    389   2   0.50000    -0.0390000    0.1150000   2.431434e-04  1.541678e-07
    388    379   2   0.50000     0.1150000   -0.1150000   2.431434e-04  1.541678e-07
    388    389   2   0.50000     0.1150000    0.1150000   5.042375e-05  1.012808e-08
    377    390   2   0.50000    -0.1150000    0.1150000   2.431434e-04  1.541678e-07
    389    380   2   0.50000     0.1150000   -0.1150000   2.431434e-04  1.541678e-07
    389    390   2   0.50000     0.1150000    0.1150000   5.042375e-05  1.012808e-08
    378    391   2   0.50000    -0.1150000    0.1150000   2.431434e-04  1.541678e-07
    390    375   2   0.50000     0.1150000    0.0000000   2.431434e-04  1.541678e-07
    390    391   2   0.50000     0.1150000    0.1150000   5.042375e-05  1.012808e-08
    367    394   2   0.50000     0.1513000   -0.1333000   1.304585e-03  1.920112e-06
    367    409   2   0.50000     0.1513000    0.0600000   2.494471e-04  1.671101e-07
    367    418   2   0.50000     0.1513000   -0.1200000   1.015252e-03  1.866303e-06
    407    394   2   0.50000     0.0600000   -0.1333000   3.205360e-04  1.719281e-07
    407    409   2   0.50000     0.0600000    0.0600000   6.128906e-05  1.496315e-08
    407    418   2   0.50000     0.0600000   -0.1200000   2.494471e-04  1.671101e-07
    408    394   2   0.50000     0.0600000   -0.1333000   3.205360e-04  1.719281e-07
    408    409   2   0.50000     0.0600000    0.0600000   6.128906e-05  1.496315e-08
    408    418   2   0.50000     0.0600000   -0.1200000   2.494471e-04  1.671101e-07
    392    395   2   0.50000    -0.1200000   -0.0390000   1.091018e-03  2.092768e-06
    392    402   2   0.50000    -0.1200000   -0.0390000   1.091018e-03  2.092768e-06
    409    395   2   0.50000     0.0600000   -0.0390000   2.680627e-04  1.873879e-07
    409    402   2   0.50000     0.0600000   -0.0390000   2.680627e-04  1.873879e-07
    418    395   2   0.50000    -0.1200000   -0.0390000   1.091018e-03  2.092768e-06
    418    402   2   0.50000    -0.1200000   -0.0390000   1.091018e-03  2.092768e-06
    392    419   2   0.50000    -0.1200000    0.1513000   1.015252e-03  1.866303e-06
    392    433   2   0.50000    -0.1200000    0.0600000   2.494471e-04  1.671101e-07
    392    434   2   0.50000    -0.1200000    0.0600000   2.494471e-04  1.671101e-07
    394    419   2   0.50000    -0.1333000    0.1513000   1.304585e-03  1.920112e-06
    394    433   2   0.50000    -0.1333000    0.0600000   3.205360e-04  1.719281e-07
    394    434   2   0.50000    -0.1333000    0.0600000   3.205360e-04  1.719281e-07
    409    419   2   0.50000     0.0600000    0.1513000   2.494471e-04  1.671101e-07
    409    433   2   0.50000     0.0600000    0.0600000   6.128906e-05  1.496315e-08
    409    434   2   0.50000     0.0600000    0.0600000   6.128906e-05  1.496315e-08
    393    396   2   0.50000     0.1513000    0.0000000   1.091018e-03  2.092768e-06
    393    400   2   0.50000     0.1513000   -0.1150000   1.091018e-03  2.092768e-06
    402    400   2   0.50000    -0.0390000   -0.1150000   1.172438e-03  2.346713e-06
    393    401   2   0.50000     0.1513000    0.0000000   1.091018e-03  2.092768e-06
    393    403   2   0.50000     0.1513000   -0.1150000   1.091018e-03  2.092768e-06
    395    403   2   0.50000    -0.0390000   -0.1150000   1.172438e-03  2.346713e-06
    394    397   2   0.50000    -0.1333000   -0.1150000   1.401943e-03  2.153106e-06
    400    397   2   0.50000    -0.1150000   -0.1150000   1.172438e-03  2.346713e-06
    400    401   2   0.50000    -0.1150000    0.0000000   1.172438e-03  2.346713e-06
    394    399   2   0.50000    -0.1333000   -0.1150000   1.401943e-03  2.153106e-06
    394    413   2   0.50000    -0.1333000    0.1150000   2.907388e-04  1.414488e-07
    396    399   2   0.50000     0.0000000   -0.1150000   1.172438e-03  2.346713e-06
    396    413   2   0.50000     0.0000000    0.1150000   2.431434e-04  1.541678e-07
    395    398   2   0.50000    -0.0390000   -0.1150000   1.172438e-03  2.346713e-06
    395    410   2   0.50000    -0.0390000    0.1150000   2.431434e-04  1.541678e-07
    401    398   2   0.50000     0.0000000   -0.1150000   1.172438e-03  2.346713e-06
    401    410   2   0.50000     0.0000000    0.1150000   2.431434e-04  1.541678e-07
    395    406   2   0.50000    -0.0390000   -0.1150000   1.172438e-03  2.346713e-06
    397    402   2   0.50000    -0.1150000   -0.0390000   1.172438e-03  2.346713e-06
    397    406   2   0.50000    -0.1150000   -0.1150000   1.172438e-03  2.346713e-06
    396    411   2   0.50000     0.0000000    0.1150000   2.431434e-04  1.541678e-07
    410    399   2   0.50000     0.1150000   -0.1150000   2.431434e-04  1.541678e-07
    410    411   2   0.50000     0.1150000    0.1150000   5.042375e-05  1.012808e-08
    397    412   2   0.50000    -0.1150000    0.1150000   2.431434e-04  1.541678e-07
    411    400   2   0.50000     0.1150000   -0.1150000   2.431434e-04  1.541678e-07
    411    412   2   0.50000     0.1150000    0.1150000   5.042375e-05  1.012808e-08
    398    413   2   0.50000    -0.1150000    0.1150000   2.431434e-04  1.541678e-07
    412    395   2   0.50000     0.1150000   -0.0390000   2.431434e-04  1.541678e-07
    412    413   2   0.50000     0.1150000    0.1150000   5.042375e-05  1.012808e-08
    396    403   2   0.50000     0.0000000   -0.1150000   1.172438e-03  2.346713e-06
    406    394   2   0.50000    -0.1150000   -0.1333000   1.401943e-03  2.153106e-06
    406    403   2   0.50000    -0.1150000   -0.1150000   1.172438e-03  2.346713e-06
    396    405   2   0.50000     0.0000000   -0.1150000   1.172438e-03  2.346713e-06
    396    417   2   0.50000     0.0000000    0.1150000   2.431434e-04  1.541678e-07
    402    405   2   0.50000    -0.0390000   -0.1150000   1.172438e-03  2.346713e-06
    402    417   2   0.50000    -0.0390000    0.1150000   2.431434e-04  1.541678e-07
    394    404   2   0.50000    -0.1333000   -0.1150000   1.401943e-03  2.153106e-06
    394    414   2   0.50000    -0.1333000    0.1150000   2.907388e-04  1.414488e-07
    401    404   2   0.50000     0.0000000   -0.1150000   1.172438e-03  2.346713e-06
    401    414   2   0.50000     0.0000000    0.1150000   2.431434e-04  1.541678e-07
    402    415   2   0.50000    -0.0390000    0.1150000   2.431434e-04  1.541678e-07
    414    405   2   0.50000     0.1150000   -0.1150000   2.431434e-04  1.541678e-07
    414    415   2   0.50000     0.1150000    0.1150000   5.042375e-05  1.012808e-08
    403    416   2   0.50000    -0.1150000    0.1150000   2.431434e-04  1.541678e-07
    415    406   2   0.50000     0.1150000   -0.1150000   2.431434e-04  1.541678e-07
    415    416   2   0.50000     0.1150000    0.1150000   5.042375e-05  1.012808e-08
    404    417   2   0.50000    -0.1150000    0.1150000   2.431434e-04  1.541678e-07
    416    401   2   0.50000     0.1150000    0.0000000   2.431434e-04  1.541678e-07
    416    417   2   0.50000     0.1150000    0.1150000   5.042375e-05  1.012808e-08
    393    420   2   0.50000     0.1513000   -0.1333000   1.304585e-03  1.920112e-06
    393    435   2   0.50000     0.1513000    0.0600000   2.494471e-04  1.671101e-07
    393    444   2   0.50000     0.1513000   -0.1200000   1.015252e-03  1.866303e-06
    433    420   2   0.50000     0.0600000   -0.1333000   3.205360e-04  1.719281e-07
    433    435   2   0.50000     0.0600000    0.0600000   6.128906e-05  1.496315e-08
    433    444   2   0.50000     0.0600000   -0.1200000   2.494471e-04  1.671101e-07
    434    420   2   0.50000     0.0600000   -0.1333000   3.205360e-04  1.719281e-07
    434    435   2   0.50000     0.0600000    0.0600000   6.128906e-05  1.496315e-08
    434    444   2   0.50000     0.0600000   -0.1200000   2.494471e-04  1.671101e-07
    418    421   2   0.50000    -0.1200000   -0.0390000   1.091018e-03  2.092768e-06
    418    428   2   0.50000    -0.1200000   -0.0390000   1.091018e-03  2.092768e-06
    435    421   2   0.50000     0.0600000   -0.0390000   2.680627e-04  1.873879e-07
    435    428   2   0.50000     0.0600000   -0.0390000   2.680627e-04  1.873879e-07
    444    421   2   0.50000    -0.1200000   -0.0390000   1.091018e-03  2.092768e-06
    444    428   2   0.50000    -0.1200000   -0.0390000   1.091018e-03  2.092768e-06
    418    445   2   0.50000    -0.1200000    0.1513000   1.015252e-03  1.866303e-06
    418    459   2   0.50000    -0.1200000    0.0600000   2.494471e-04  1.671101e-07
    418    460   2   0.50000    -0.1200000    0.0600000   2.494471e-04  1.671101e-07
    420    445   2   0.50000    -0.1333000    0.1513000   1.304585e-03  1.920112e-06
    420    459   2   0.50000    -0.1333000    0.0600000   3.205360e-04  1.719281e-07
    420    460   2   0.50000    -0.1333000    0.0600000   3.205360e-04  1.719281e-07
    435    445   2   0.50000     0.0600000    0.1513000   2.494471e-04  1.671101e-07
    435    459   2   0.50000     0.0600000    0.0600000   6.128906e-05  1.496315e-08
    435    460   2   0.50000     0.0600000    0.0600000   6.128906e-05  1.496315e-08
    419    422   2   0.50000     0.1513000    0.0000000   1.091018e-03  2.092768e-06
    419    426   2   0.50000     0.1513000   -0.1150000   1.091018e-03  2.092768e-06
    428    426   2   0.50000    -0.0390000   -0.1150000   1.172438e-03  2.346713e-06
    419    427   2   0.50000     0.1513000    0.0000000   1.091018e-03  2.092768e-06
    419    429   2   0.50000     0.1513000   -0.1150000   1.091018e-03  2.092768e-06
    421    429   2   0.50000    -0.0390000   -0.1150000   1.172438e-03  2.346713e-06
    420    423   2   0.50000    -0.1333000   -0.1150000   1.401943e-03  2.153106e-06
    426    423   2   0.50000    -0.1150000   -0.1150000   1.172438e-03  2.346713e-06
    426    427   2   0.50000    -0.1150000    0.0000000   1.172438e-03  2.346713e-06
    420    425   2   0.50000    -0.1333000   -0.1150000   1.401943e-03  2.153106e-06
    420    439   2   0.50000    -0.1333000    0.1150000   2.907388e-04  1.414488e-07
    422    425   2   0.50000     0.0000000   -0.1150000   1.172438e-03  2.346713e-06
    422    439   2   0.50000     0.0000000    0.1150000   2.431434e-04  1.541678e-07
    421    424   2   0.50000    -0.0390000   -0.1150000   1.172438e-03  2.346713e-06
    421    436   2   0.50000    -0.0390000    0.1150000   2.431434e-04  1.541678e-07
    427    424   2   0.50000     0.0000000   -0.1150000   1.172438e-03  2.346713e-06
    427    436   2   0.50000     0.0000000    0.1150000   2.431434e-04  1.541678e-07
    421    432   2   0.50000    -0.0390000   -0.1150000   1.172438e-03  2.346713e-06
    423    428   2   0.50000    -0.1150000   -0.0390000   1.172438e-03  2.346713e-06
    423    432   2   0.50000    -0.1150000   -0.1150000   1.172438e-03  2.346713e-06
    422    437   2   0.50000     0.0000000    0.1150000   2.431434e-04  1.541678e-07
    436    425   2   0.50000     0.1150000   -0.1150000   2.431434e-04  1.541678e-07
    436    437   2   0.50000     0.1150000    0.1150000   5.042375e-05  1.012808e-08
    423    438   2   0.50000    -0.1150000    0.1150000   2.431434e-04  1.541678e-07
    437    426   2   0.50000     0.1150000   -0.1150000   2.431434e-04  1.541678e-07
    437    438   2   0.50000     0.1150000    0.1150000   5.042375e-05  1.012808e-08
    424    439   2   0.50000    -0.1150000    0.1150000   2.431434e-04  1.541678e-07
    438    421   2   0.50000     0.1150000   -0.0390000   2.431434e-04  1.541678e-07
    438    439   2   0.50000     0.1150000    0.1150000   5.042375e-05  1.012808e-08
    422    429   2   0.50000     0.0000000   -0.1150000   1.172438e-03  2.346713e-06
    432    420   2   0.50000    -0.1150000   -0.1333000   1.401943e-03  2.153106e-06
    432    429   2   0.50000    -0.1150000   -0.1150000   1.172438e-03  2.346713e-06
    422    431   2   0.50000     0.0000000   -0.1150000   1.172438e-03  2.346713e-06
    422    443   2   0.50000     0.0000000    0.1150000   2.431434e-04  1.541678e-07
    428    431   2   0.50000    -0.0390000   -0.1150000   1.172438e-03  2.346713e-06
    428    443   2   0.50000    -0.0390000    0.1150000   2.431434e-04  1.541678e-07
    420    430   2   0.50000    -0.1333000   -0.1150000   1.401943e-03  2.153106e-06
    420    440   2   0.50000    -0.1333000    0.1150000   2.907388e-04  1.414488e-07
    427    430   2   0.50000     0.0000000   -0.1150000   1.172438e-03  2.346713e-06
    427    440   2   0.50000     0.0000000    0.1150000   2.431434e-04  1.541678e-07
    428    441   2   0.50000    -0.0390000    0.1150000   2.431434e-04  1.541678e-07
    440    431   2   0.50000     0.1150000   -0.1150000   2.431434e-04  1.541678e-07
    440    441   2   0.50000     0.1150000    0.1150000   5.042375e-05  1.012808e-08
    429    442   2   0.50000    -0.1150000    0.1150000   2.431434e-04  1.541678e-07
    441    432   2   0.50000     0.1150000   -0.1150000   2.431434e-04  1.541678e-07
    441    442   2   0.50000     0.1150000    0.1150000   5.042375e-05  1.012808e-08
    430    443   2   0.50000    -0.1150000    0.1150000   2.431434e-04  1.541678e-07
    442    427   2   0.50000     0.1150000    0.0000000   2.431434e-04  1.541678e-07
    442    443   2   0.50000     0.1150000    0.1150000   5.042375e-05  1.012808e-08
    419    446   2   0.50000     0.1513000   -0.1333000   1.304585e-03  1.920112e-06
    419    461   2   0.50000     0.1513000    0.0600000   2.494471e-04  1.671101e-07
    419    470   2   0.50000     0.1513000   -0.1200000   1.015252e-03  1.866303e-06
    459    446   2   0.50000     0.0600000   -0.1333000   3.205360e-04  1.719281e-07
    459    461   2   0.50000     0.0600000    0.0600000   6.128906e-05  1.496315e-08
    459    470   2   0.50000     0.0600000   -0.1200000   2.494471e-04  1.671101e-07
    460    446   2   0.50000     0.0600000   -0.1333000   3.205360e-04  1.719281e-07
    460    461   2   0.50000     0.0600000    0.0600000   6.128906e-05  1.496315e-08
    460    470   2   0.50000     0.0600000   -0.1200000   2.494471e-04  1.671101e-07
    444    447   2   0.50000    -0.1200000   -0.0390000   1.091018e-03  2.092768e-06
    444    454   2   0.50000    -0.1200000   -0.0390000   1.091018e-03  2.092768e-06
    461    447   2   0.50000     0.0600000   -0.0390000   2.680627e-04  1.873879e-07
    461    454   2   0.50000     0.0600000   -0.0390000   2.680627e-04  1.873879e-07
    470    447   2   0.50000    -0.1200000   -0.0390000   1.091018e-03  2.092768e-06
    470    454   2   0.50000    -0.1200000   -0.0390000   1.091018e-03  2.092768e-06
    444    471   2   0.50000    -0.1200000    0.1513000   1.015252e-03  1.866303e-06
    444    485   2   0.50000    -0.1200000    0.0600000   2.494471e-04  1.671101e-07
    444    486   2   0.50000    -0.1200000    0.0600000   2.494471e-04  1.671101e-07
    446    471   2   0.50000    -0.1333000    0.1513000   1.304585e-03  1.920112e-06
    446    485   2   0.50000    -0.1333000    0.0600000   3.205360e-04  1.719281e-07
    446    486   2   0.50000    -0.1333000    0.0600000   3.205360e-04  1.719281e-07
    461    471   2   0.50000     0.0600000    0.1513000   2.494471e-04  1.671101e-07
    461    485   2   0.50000     0.0600000    0.0600000   6.128906e-05  1.496315e-08
    461    486   2   0.50000     0.0600000    0.0600000   6.128906e-05  1.496315e-08
    445    448   2   0.50000     0.1513000    0.0000000   1.091018e-03  2.092768e-06
    445    452   2   0.50000     0.1513000   -0.1150000   1.091018e-03  2.092768e-06
    454    452   2   0.50000    -0.0390000   -0.1150000   1.172438e-03  2.346713e-06
    445    453   2   0.50000     0.1513000    0.0000000   1.091018e-03  2.092768e-06
    445    455   2   0.50000     0.1513000   -0.1150000   1.091018e-03  2.092768e-06
    447    455   2   0.50000    -0.0390000   -0.1150000   1.172438e-03  2.346713e-06
    446    449   2   0.50000    -0.1333000   -0.1150000   1.401943e-03  2.153106e-06
    452    449   2   0.50000    -0.1150000   -0.1150000   1.172438e-03  2.346713e-06
    452    453   2   0.50000    -0.1150000    0.0000000   1.172438e-03  2.346713e-06
    446    451   2   0.50000    -0.1333000   -0.1150000   1.401943e-03  2.153106e-06
    446    465   2   0.50000    -0.1333000    0.1150000   2.907388e-04  1.414488e-07
    448    451   2   0.50000     0.0000000   -0.1150000   1.172438e-03  2.346713e-06
    448    465   2   0.50000     0.0000000    0.1150000   2.431434e-04  1.541678e-07
    447    450   2   0.50000    -0.0390000   -0.1150000   1.172438e-03  2.346713e-06
    447    462   2   0.50000    -0.0390000    0.1150000   2.431434e-04  1.541678e-07
    453    450   2   0.50000     0.0000000   -0.1150000   1.172438e-03  2.346713e-06
    453    462   2   0.50000     0.0000000    0.1150000   2.431434e-04  1.541678e-07
    447    458   2   0.50000    -0.0390000   -0.1150000   1.172438e-03  2.346713e-06
    449    454   2   0.50000    -0.1150000   -0.0390000   1.172438e-03  2.346713e-06
    449    458   2   0.50000    -0.1150000   -0.1150000   1.172438e-03  2.346713e-06
    448    463   2   0.50000     0.0000000    0.1150000   2.431434e-04  1.541678e-07
    462    451   2   0.50000     0.1150000   -0.1150000   2.431434e-04  1.541678e-07
    462    463   2   0.50000     0.1150000    0.1150000   5.042375e-05  1.012808e-08
    449    464   2   0.50000    -0.1150000    0.1150000   2.431434e-04  1.541678e-07
    463    452   2   0.50000     0.1150000   -0.1150000   2.431434e-04  1.541678e-07
    463    464   2   0.50000     0.1150000    0.1150000   5.042375e-05  1.012808e-08
    450    465   2   0.50000    -0.1150000    0.1150000   2.431434e-04  1.541678e-07
    464    447   2   0.50000     0.1150000   -0.0390000   2.431434e-04  1.541678e-07
    464    465   2   0.50000     0.1150000    0.1150000   5.042375e-05  1.012808e-08
    448    455   2   0.50000     0.0000000   -0.1150000   1.172438e-03  2.346713e-06
    458    446   2   0.50000    -0.1150000   -0.1333000   1.401943e-03  2.153106e-06
    458    455   2   0.50000    -0.1150000   -0.1150000   1.172438e-03  2.346713e-06
    448    457   2   0.50000     0.0000000   -0.1150000   1.172438e-03  2.346713e-06
    448    469   2   0.50000     0.0000000    0.1150000   2.431434e-04  1.541678e-07
    454    457   2   0.50000    -0.0390000   -0.1150000   1.172438e-03  2.346713e-06
    454    469   2   0.50000    -0.0390000    0.1150000   2.431434e-04  1.541678e-07
    446    456   2   0.50000    -0.1333000   -0.1150000   1.401943e-03  2.153106e-06
    446    466   2   0.50000    -0.1333000    0.1150000   2.907388e-04  1.414488e-07
    453    456   2   0.50000     0.0000000   -0.1150000   1.172438e-03  2.346713e-06
    453    466   2   0.50000     0.0000000    0.1150000   2.431434e-04  1.541678e-07
    454    467   2   0.50000    -0.0390000    0.1150000   2.431434e-04  1.541678e-07
    466    457   2   0.50000     0.1150000   -0.1150000   2.431434e-04  1.541678e-07
    466    467   2   0.50000     0.1150000    0.1150000   5.042375e-05  1.012808e-08
    455    468   2   0.50000    -0.1150000    0.1150000   2.431434e-04  1.541678e-07
    467    458   2   0.50000     0.1150000   -0.1150000   2.431434e-04  1.541678e-07
    467    468   2   0.50000     0.1150000    0.1150000   5.042375e-05  1.012808e-08
    456    469   2   0.50000    -0.1150000    0.1150000   2.431434e-04  1.541678e-07
    468    453   2   0.50000     0.1150000    0.0000000   2.431434e-04  1.541678e-07
    468    469   2   0.50000     0.1150000    0.1150000   5.042375e-05  1.012808e-08
    445    472   2   0.50000     0.1513000   -0.1333000   1.304585e-03  1.920112e-06
    445    487   2   0.50000     0.1513000    0.0600000   2.494471e-04  1.671101e-07
    445    496   2   0.50000     0.1513000   -0.1200000   1.015252e-03  1.866303e-06
    485    472   2   0.50000     0.0600000   -0.1333000   3.205360e-04  1.719281e-07
    485    487   2   0.50000     0.0600000    0.0600000   6.128906e-05  1.496315e-08
    485    496   2   0.50000     0.0600000   -0.1200000   2.494471e-04  1.671101e-07
    486    472   2   0.50000     0.0600000   -0.1333000   3.205360e-04  1.719281e-07
    486    487   2   0.50000     0.0600000    0.0600000   6.128906e-05  1.496315e-08
    486    496   2   0.50000     0.0600000   -0.1200000   2.494471e-04  1.671101e-07
    470    473   2   0.50000    -0.1200000   -0.0390000   1.091018e-03  2.092768e-06
    470    480   2   0.50000    -0.1200000   -0.0390000   1.091018e-03  2.092768e-06
    487    473   2   0.50000     0.0600000   -0.0390000   2.680627e-04  1.873879e-07
    487    480   2   0.50000     0.0600000   -0.0390000   2.680627e-04  1.873879e-07
    496    473   2   0.50000    -0.1200000   -0.0390000   1.091018e-03  2.092768e-06
    496    480   2   0.50000    -0.1200000   -0.0390000   1.091018e-03  2.092768e-06
    470    497   2   0.50000    -0.1200000    0.0913000   1.015252e-03  1.866303e-06
    470    511   2   0.50000    -0.1200000    0.0600000   2.494471e-04  1.671101e-07
    470    512   2   0.50000    -0.1200000    0.0600000   2.494471e-04  1.671101e-07
    472    497   2   0.50000    -0.1333000    0.0913000   1.304585e-03  1.920112e-06
    472    511   2   0.50000    -0.1333000    0.0600000   3.205360e-04  1.719281e-07
    472    512   2   0.50000    -0.1333000    0.0600000   3.205360e-04  1.719281e-07
    487    497   2   0.50000     0.0600000    0.0913000   2.494471e-04  1.671101e-07
    487    511   2   0.50000     0.0600000    0.0600000   6.128906e-05  1.496315e-08
    487    512   2   0.50000     0.0600000    0.0600000   6.128906e-05  1.496315e-08
    471    474   2   0.50000     0.1513000    0.0000000   1.091018e-03  2.092768e-06
    471    478   2   0.50000     0.1513000   -0.1150000   1.091018e-03  2.092768e-06
    480    478   2   0.50000    -0.0390000   -0.1150000   1.172438e-03  2.346713e-06
    471    479   2   0.50000     0.1513000    0.0000000   1.091018e-03  2.092768e-06
    471    481   2   0.50000     0.1513000   -0.1150000   1.091018e-03  2.092768e-06
    473    481   2   0.50000    -0.0390000   -0.1150000   1.172438e-03  2.346713e-06
    472    475   2   0.50000    -0.1333000   -0.1150000   1.401943e-03  2.153106e-06
    478    475   2   0.50000    -0.1150000   -0.1150000   1.172438e-03  2.346713e-06
    478    479   2   0.50000    -0.1150000    0.0000000   1.172438e-03  2.346713e-06
    472    477   2   0.50000    -0.1333000   -0.1150000   1.401943e-03  2.153106e-06
    472    491   2   0.50000    -0.1333000    0.1150000   2.907388e-04  1.414488e-07
    474    477   2   0.50000     0.0000000   -0.1150000   1.172438e-03  2.346713e-06
    474    491   2   0.50000     0.0000000    0.1150000   2.431434e-04  1.541678e-07
    473    476   2   0.50000    -0.0390000   -0.1150000   1.172438e-03  2.346713e-06
    473    488   2   0.50000    -0.0390000    0.1150000   2.431434e-04  1.541678e-07
    479    476   2   0.50000     0.0000000   -0.1150000   1.172438e-03  2.346713e-06
    479    488   2   0.50000     0.0000000    0.1150000   2.431434e-04  1.541678e-07
    473    484   2   0.50000    -0.0390000   -0.1150000   1.172438e-03  2.346713e-06
    475    480   2   0.50000    -0.1150000   -0.0390000   1.172438e-03  2.346713e-06
    475    484   2   0.50000    -0.1150000   -0.1150000   1.172438e-03  2.346713e-06
    474    489   2   0.50000     0.0000000    0.1150000   2.431434e-04  1.541678e-07
    488    477   2   0.50000     0.1150000   -0.1150000   2.431434e-04  1.541678e-07
    488    489   2   0.50000     0.1150000    0.1150000   5.042375e-05  1.012808e-08
    475    490   2   0.50000    -0.1150000    0.1150000   2.431434e-04  1.541678e-07
    489    478   2   0.50000     0.1150000   -0.1150000   2.431434e-04  1.541678e-07
    489    490   2   0.50000     0.1150000    0.1150000   5.042375e-05  1.012808e-08
    476    491   2   0.50000    -0.1150000    0.1150000   2.431434e-04  1.541678e-07
    490    473   2   0.50000     0.1150000   -0.0390000   2.431434e-04  1.541678e-07
    490    491   2   0.50000     0.1150000    0.1150000   5.042375e-05  1.012808e-08
    474    481   2   0.50000     0.0000000   -0.1150000   1.172438e-03  2.346713e-06
    484    472   2   0.50000    -0.1150000   -0.1333000   1.401943e-03  2.153106e-06
    484    481   2   0.50000    -0.1150000   -0.1150000   1.172438e-03  2.346713e-06
    474    483   2   0.50000     0.0000000   -0.1150000   1.172438e-03  2.346713e-06
    474    495   2   0.50000     0.0000000    0.1150000   2.431434e-04  1.541678e-07
    480    483   2   0.50000    -0.0390000   -0.1150000   1.172438e-03  2.346713e-06
    480    495   2   0.50000    -0.0390000    0.1150000   2.431434e-04  1.541678e-07
    472    482   2   0.50000    -0.1333000   -0.1150000   1.401943e-03  2.153106e-06
    472    492   2   0.50000    -0.1333000    0.1150000   2.907388e-04  1.414488e-07
    479    482   2   0.50000     0.0000000   -0.1150000   1.172438e-03  2.346713e-06
    479    492   2   0.50000     0.0000000    0.1150000   2.431434e-04  1.541678e-07
    480    493   2   0.50000    -0.0390000    0.1150000   2.431434e-04  1.541678e-07
    492    483   2   0.50000     0.1150000   -0.1150000   2.431434e-04  1.541678e-07
    492    493   2   0.50000     0.1150000    0.1150000   5.042375e-05  1.012808e-08
    481    494   2   0.50000    -0.1150000    0.1150000   2.431434e-04  1.541678e-07
    493    484   2   0.50000     0.1150000   -0.1150000   2.431434e-04  1.541678e-07
    493    494   2   0.50000     0.1150000    0.1150000   5.042375e-05  1.012808e-08
    482    495   2   0.50000    -0.1150000    0.1150000   2.431434e-04  1.541678e-07
    494    479   2   0.50000     0.1150000    0.0000000   2.431434e-04  1.541678e-07
    494    495   2   0.50000     0.1150000    0.1150000   5.042375e-05  1.012808e-08
    471    498   2   0.50000     0.1513000   -0.1333000   1.304585e-03  1.920112e-06
    471    513   2   0.50000     0.1513000    0.0600000   2.494471e-04  1.671101e-07
    471    522   2   0.50000     0.1513000    0.0600000   2.494471e-04  1.671101e-07
    511    498   2   0.50000     0.0600000   -0.1333000   3.205360e-04  1.719281e-07
    511    513   2   0.50000     0.0600000    0.0600000   6.128906e-05  1.496315e-08
    511    522   2   0.50000     0.0600000    0.0600000   6.128906e-05  1.496315e-08
    512    498   2   0.50000     0.0600000   -0.1333000   3.205360e-04  1.719281e-07
    512    513   2   0.50000     0.0600000    0.0600000   6.128906e-05  1.496315e-08
    512    522   2   0.50000     0.0600000    0.0600000   6.128906e-05  1.496315e-08
    496    499   2   0.50000    -0.1200000   -0.0390000   1.091018e-03  2.092768e-06
    496    506   2   0.50000    -0.1200000   -0.0390000   1.091018e-03  2.092768e-06
    513    499   2   0.50000     0.0600000   -0.0390000   2.680627e-04  1.873879e-07
    513    506   2   0.50000     0.0600000   -0.0390000   2.680627e-04  1.873879e-07
    522    499   2   0.50000     0.0600000   -0.0390000   2.680627e-04  1.873879e-07
    522    506   2   0.50000     0.0600000   -0.0390000   2.680627e-04  1.873879e-07
    497    500   2   0.50000     0.0913000    0.0000000   1.091018e-03  2.092768e-06
    497    504   2   0.50000     0.0913000   -0.1150000   1.091018e-03  2.092768e-06
    506    504   2   0.50000    -0.0390000   -0.1150000   1.172438e-03  2.346713e-06
    497    505   2   0.50000     0.0913000    0.0000000   1.091018e-03  2.092768e-06
    497    507   2   0.50000     0.0913000   -0.1150000   1.091018e-03  2.092768e-06
    499    507   2   0.50000    -0.0390000   -0.1150000   1.172438e-03  2.346713e-06
    498    501   2   0.50000    -0.1333000   -0.1150000   1.401943e-03  2.153106e-06
    504    501   2   0.50000    -0.1150000   -0.1150000   1.172438e-03  2.346713e-06
    504    505   2   0.50000    -0.1150000    0.0000000   1.172438e-03  2.346713e-06
    498    503   2   0.50000    -0.1333000   -0.1150000   1.401943e-03  2.153106e-06
    498    517   2   0.50000    -0.1333000    0.1150000   2.907388e-04  1.414488e-07
    500    503   2   0.50000     0.0000000   -0.1150000   1.172438e-03  2.346713e-06
    500    517   2   0.50000     0.0000000    0.1150000   2.431434e-04  1.541678e-07
    499    502   2   0.50000    -0.0390000   -0.1150000   1.172438e-03  2.346713e-06
    499    514   2   0.50000    -0.0390000    0.1150000   2.431434e-04  1.541678e-07
    505    502   2   0.50000     0.0000000   -0.1150000   1.172438e-03  2.346713e-06
    505    514   2   0.50000     0.0000000    0.1150000   2.431434e-04  1.541678e-07
    499    510   2   0.50000    -0.0390000   -0.1150000   1.172438e-03  2.346713e-06
    501    506   2   0.50000    -0.1150000   -0.0390000   1.172438e-03  2.346713e-06
    501    510   2   0.50000    -0.1150000   -0.1150000   1.172438e-03  2.346713e-06
    500    515   2   0.50000     0.0000000    0.1150000   2.431434e-04  1.541678e-07
    514    503   2   0.50000     0.1150000   -0.1150000   2.431434e-04  1.541678e-07
    514    515   2   0.50000     0.1150000    0.1150000   5.042375e-05  1.012808e-08
    501    516   2   0.50000    -0.1150000    0.1150000   2.431434e-04  1.541678e-07
    515    504   2   0.50000     0.1150000   -0.1150000   2.431434e-04  1.541678e-07
    515    516   2   0.50000     0.1150000    0.1150000   5.042375e-05  1.012808e-08
    502    517   2   0.50000    -0.1150000    0.1150000   2.431434e-04  1.541678e-07
    516    499   2   0.50000     0.1150000   -0.0390000   2.431434e-04  1.541678e-07
    516    517   2   0.50000     0.1150000    0.1150000   5.042375e-05  1.012808e-08
    500    507   2   0.50000     0.0000000   -0.1150000   1.172438e-03  2.346713e-06
    510    498   2   0.50000    -0.1150000   -0.1333000   1.401943e-03  2.153106e-06
    510    507   2   0.50000    -0.1150000   -0.1150000   1.172438e-03  2.346713e-06
    500    509   2   0.50000     0.0000000   -0.1150000   1.172438e-03  2.346713e-06
    500    521   2   0.50000     0.0000000    0.1150000   2.431434e-04  1.541678e-07
    506    509   2   0.50000    -0.0390000   -0.1150000   1.172438e-03  2.346713e-06
    506    521   2   0.50000    -0.0390000    0.1150000   2.431434e-04  1.541678e-07
    498    508   2   0.50000    -0.1333000   -0.1150000   1.401943e-03  2.153106e-06
    498    518   2   0.50000    -0.1333000    0.1150000   2.907388e-04  1.414488e-07
    505    508   2   0.50000     0.0000000   -0.1150000   1.172438e-03  2.346713e-06
    505    518   2   0.50000     0.0000000    0.1150000   2.431434e-04  1.541678e-07
    506    519   2   0.50000    -0.0390000    0.1150000   2.431434e-04  1.541678e-07
    518    509   2   0.50000     0.1150000   -0.1150000   2.431434e-04  1.541678e-07
    518    519   2   0.50000     0.1150000    0.1150000   5.042375e-05  1.012808e-08
    507    520   2   0.50000    -0.1150000    0.1150000   2.431434e-04  1.541678e-07
    519    510   2   0.50000     0.1150000   -0.1150000   2.431434e-04  1.541678e-07
    519    520   2   0.50000     0.1150000    0.1150000   5.042375e-05  1.012808e-08
    508    521   2   0.50000    -0.1150000    0.1150000   2.431434e-04  1.541678e-07
    520    505   2   0.50000     0.1150000    0.0000000   2.431434e-04  1.541678e-07
    520    521   2   0.50000     0.1150000    0.1150000   5.042375e-05  1.012808e-08

[ angles ]
; ai  aj  ak
      2      1     16   1    110.7000    313.8000
      2      1     17   1    110.7000    313.8000
      2      1     27   1    110.7000    313.8000
     16      1     17   1    107.8000    276.1440
     16      1     27   1    107.8000    276.1440
     17      1     27   1    107.8000    276.1440
      1      2      3   1    111.1950    627.6000
      1      2     18   1    110.7000    313.8000
      1      2     28   1    112.7000    488.2728
      3      2     18   1    108.6190    418.4000
      3      2     28   1    111.1950    627.6000
     18      2     28   1    110.7000    313.8000
      2      3      4   1    128.1660    543.9200
      2      3     11   1    128.1660    543.9200
      4      3     11   1     99.1400    753.1200
      3      4      5   1    104.4000    585.7600
      3      4      9   1    132.8000    585.7600
      5      4      9   1    122.7000    711.2800
      4      5      6   1    116.2000    711.2800
      4      5     10   1    105.4700    669.4400
      6      5     10   1    134.4130    418.4000
      5      6      7   1    120.0000    527.1840
      5      6     19   1    120.0000    292.8800
      7      6     19   1    120.0000    292.8800
      6      7      8   1    120.0000    527.1840
      6      7     20   1    120.0000    292.8800
      8      7     20   1    120.0000    292.8800
      7      8      9   1    120.0000    527.1840
      7      8     21   1    120.0000    292.8800
      9      8     21   1    120.0000    292.8800
      4      9      8   1    120.0000    711.2800
      4      9     22   1    120.0000    292.8800
      8      9     22   1    120.0000    292.8800
      5     10     11   1    105.4700    669.4400
      5     10     15   1    134.4130    418.4000
     11     10     15   1    116.2000    711.2800
      3     11     10   1    104.4000    585.7600
      3     11     12   1    132.8000    585.7600
     10     11     12   1    122.7000    711.2800
     11     12     13   1    120.0000    711.2800
     11     12     23   1    120.0000    292.8800
     13     12     23   1    120.0000    292.8800
     12     13     14   1    120.0000    527.1840
     12     13     24   1    120.0000    292.8800
     14     13     24   1    120.0000    292.8800
     13     14     15   1    120.0000    527.1840
     13     14     25   1    120.0000    292.8800
     15     14     25   1    120.0000    292.8800
     10     15     14   1    120.0000    527.1840
     10     15     26   1    120.0000    292.8800
     14     15     26   1    120.0000    292.8800
      2     28     29   1    112.7000    488.2728
      2     28     43   1    110.7000    313.8000
      2     28     44   1    110.7000    313.8000
     29     28     43   1    110.7000    313.8000
     29     28     44   1    110.7000    313.8000
     43     28     44   1    107.8000    276.1440
     28     29     30   1    111.1950    627.6000
     28     29     45   1    110.7000    313.8000
     28     29     54   1    112.7000    488.2728
     30     29     45   1    108.6190    418.4000
     30     29     54   1    111.1950    627.6000
     45     29     54   1    110.7000    313.8000
     29     30     31   1    128.1660    543.9200
     29     30     38   1    128.1660    543.9200
     31     30     38   1     99.1400    753.1200
     30     31     32   1    104.4000    585.7600
     30     31     36   1    132.8000    585.7600
     32     31     36   1    122.7000    711.2800
     31     32     33   1    116.2000    711.2800
     31     32     37   1    105.4700    669.4400
     33     32     37   1    134.4130    418.4000
     32     33     34   1    120.0000    527.1840
     32     33     46   1    120.0000    292.8800
     34     33     46   1    120.0000    292.8800
     33     34     35   1    120.0000    527.1840
     33     34     47   1    120.0000    292.8800
     35     34     47   1    120.0000    292.8800
     34     35     36   1    120.0000    527.1840
     34     35     48   1    120.0000    292.8800
     36     35     48   1    120.0000    292.8800
     31     36     35   1    120.0000    711.2800
     31     36     49   1    120.0000    292.8800
     35     36     49   1    120.0000    292.8800
     32     37     38   1    105.4700    669.4400
     32     37     42   1    134.4130    418.4000
     38     37     42   1    116.2000    711.2800
     30     38     37   1    104.4000    585.7600
     30     38     39   1    132.8000    585.7600
     37     38     39   1    122.7000    711.2800
     38     39     40   1    120.0000    711.2800
     38     39     50   1    120.0000    292.8800
     40     39     50   1    120.0000    292.8800
     39     40     41   1    120.0000    527.1840
     39     40     51   1    120.0000    292.8800
     41     40     51   1    120.0000    292.8800
     40     41     42   1    120.0000    527.1840
     40     41     52   1    120.0000    292.8800
     42     41     52   1    120.0000    292.8800
     37     42     41   1    120.0000    527.1840
     37     42     53   1    120.0000    292.8800
     41     42     53   1    120.0000    292.8800
     29     54     55   1    112.7000    488.2728
     29     54     69   1    110.7000    313.8000
     29     54     70   1    110.7000    313.8000
     55     54     69   1    110.7000    313.8000
     55     54     70   1    110.7000    313.8000
     69     54     70   1    107.8000    276.1440
     54     55     56   1    111.1950    627.6000
     54     55     71   1    110.7000    313.8000
     54     55     80   1    112.7000    488.2728
     56     55     71   1    108.6190    418.4000
     56     55     80   1    111.1950    627.6000
     71     55     80   1    110.7000    313.8000
     55     56     57   1    128.1660    543.9200
     55     56     64   1    128.1660    543.9200
     57     56     64   1     99.1400    753.1200
     56     57     58   1    104.4000    585.7600
     56     57     62   1    132.8000    585.7600
     58     57     62   1    122.7000    711.2800
     57     58     59   1    116.2000    711.2800
     57     58     63   1    105.4700    669.4400
     59     58     63   1    134.4130    418.4000
     58     59     60   1    120.0000    527.1840
     58     59     72   1    120.0000    292.8800
     60     59     72   1    120.0000    292.8800
     59     60     61   1    120.0000    527.1840
     59     60     73   1    120.0000    292.8800
     61     60     73   1    120.0000    292.8800
     60     61     62   1    120.0000    527.1840
     60     61     74   1    120.0000    292.8800
     62     61     74   1    120.0000    292.8800
     57     62     61   1    120.0000    711.2800
     57     62     75   1    120.0000    292.8800
     61     62     75   1    120.0000    292.8800
     58     63     64   1    105.4700    669.4400
     58     63     68   1    134.4130    418.4000
     64     63     68   1    116.2000    711.2800
     56     64     63   1    104.4000    585.7600
     56     64     65   1    132.8000    585.7600
     63     64     65   1    122.7000    711.2800
     64     65     66   1    120.0000    711.2800
     64     65     76   1    120.0000    292.8800
     66     65     76   1    120.0000    292.8800
     65     66     67   1    120.0000    527.1840
     65     66     77   1    120.0000    292.8800
     67     66     77   1    120.0000    292.8800
     66     67     68   1    120.0000    527.1840
     66     67     78   1    120.0000    292.8800
     68     67     78   1    120.0000    292.8800
     63     68     67   1    120.0000    527.1840
     63     68     79   1    120.0000    292.8800
     67     68     79   1    120.0000    292.8800
     55     80     81   1    112.7000    488.2728
     55     80     95   1    110.7000    313.8000
     55     80     96   1    110.7000    313.8000
     81     80     95   1    110.7000    313.8000
     81     80     96   1    110.7000    313.8000
     95     80     96   1    107.8000    276.1440
     80     81     82   1    111.1950    627.6000
     80     81     97   1    110.7000    313.8000
     80     81    106   1    112.7000    488.2728
     82     81     97   1    108.6190    418.4000
     82     81    106   1    111.1950    627.6000
     97     81    106   1    110.7000    313.8000
     81     82     83   1    128.1660    543.9200
     81     82     90   1    128.1660    543.9200
     83     82     90   1     99.1400    753.1200
     82     83     84   1    104.4000    585.7600
     82     83     88   1    132.8000    585.7600
     84     83     88   1    122.7000    711.2800
     83     84     85   1    116.2000    711.2800
     83     84     89   1    105.4700    669.4400
     85     84     89   1    134.4130    418.4000
     84     85     86   1    120.0000    527.1840
     84     85     98   1    120.0000    292.8800
     86     85     98   1    120.0000    292.8800
     85     86     87   1    120.0000    527.1840
     85     86     99   1    120.0000    292.8800
     87     86     99   1    120.0000    292.8800
     86     87     88   1    120.0000    527.1840
     86     87    100   1    120.0000    292.8800
     88     87    100   1    120.0000    292.8800
     83     88     87   1    120.0000    711.2800
     83     88    101   1    120.0000    292.8800
     87     88    101   1    120.0000    292.8800
     84     89     90   1    105.4700    669.4400
     84     89     94   1    134.4130    418.4000
     90     89     94   1    116.2000    711.2800
     82     90     89   1    104.4000    585.7600
     82     90     91   1    132.8000    585.7600
     89     90     91   1    122.7000    711.2800
     90     91     92   1    120.0000    711.2800
     90     91    102   1    120.0000    292.8800
     92     91    102   1    120.0000    292.8800
     91     92     93   1    120.0000    527.1840
     91     92    103   1    120.0000    292.8800
     93     92    103   1    120.0000    292.8800
     92     93     94   1    120.0000    527.1840
     92     93    104   1    120.0000    292.8800
     94     93    104   1    120.0000    292.8800
     89     94     93   1    120.0000    527.1840
     89     94    105   1    120.0000    292.8800
     93     94    105   1    120.0000    292.8800
     81    106    107   1    112.7000    488.2728
     81    106    121   1    110.7000    313.8000
     81    106    122   1    110.7000    313.8000
    107    106    121   1    110.7000    313.8000
    107    106    122   1    110.7000    313.8000
    121    106    122   1    107.8000    276.1440
    106    107    108   1    111.1950    627.6000
    106    107    123   1    110.7000    313.8000
    106    107    132   1    112.7000    488.2728
    108    107    123   1    108.6190    418.4000
    108    107    132   1    111.1950    627.6000
    123    107    132   1    110.7000    313.8000
    107    108    109   1    128.1660    543.9200
    107    108    116   1    128.1660    543.9200
    109    108    116   1     99.1400    753.1200
    108    109    110   1    104.4000    585.7600
    108    109    114   1    132.8000    585.7600
    110    109    114   1    122.7000    711.2800
    109    110    111   1    116.2000    711.2800
    109    110    115   1    105.4700    669.4400
    111    110    115   1    134.4130    418.4000
    110    111    112   1    120.0000    527.1840
    110    111    124   1    120.0000    292.8800
    112    111    124   1    120.0000    292.8800
    111    112    113   1    120.0000    527.1840
    111    112    125   1    120.0000    292.8800
    113    112    125   1    120.0000    292.8800
    112    113    114   1    120.0000    527.1840
    112    113    126   1    120.0000    292.8800
    114    113    126   1    120.0000    292.8800
    109    114    113   1    120.0000    711.2800
    109    114    127   1    120.0000    292.8800
    113    114    127   1    120.0000    292.8800
    110    115    116   1    105.4700    669.4400
    110    115    120   1    134.4130    418.4000
    116    115    120   1    116.2000    711.2800
    108    116    115   1    104.4000    585.7600
    108    116    117   1    132.8000    585.7600
    115    116    117   1    122.7000    711.2800
    116    117    118   1    120.0000    711.2800
    116    117    128   1    120.0000    292.8800
    118    117    128   1    120.0000    292.8800
    117    118    119   1    120.0000    527.1840
    117    118    129   1    120.0000    292.8800
    119    118    129   1    120.0000    292.8800
    118    119    120   1    120.0000    527.1840
    118    119    130   1    120.0000    292.8800
    120    119    130   1    120.0000    292.8800
    115    120    119   1    120.0000    527.1840
    115    120    131   1    120.0000    292.8800
    119    120    131   1    120.0000    292.8800
    107    132    133   1    112.7000    488.2728
    107    132    147   1    110.7000    313.8000
    107    132    148   1    110.7000    313.8000
    133    132    147   1    110.7000    313.8000
    133    132    148   1    110.7000    313.8000
    147    132    148   1    107.8000    276.1440
    132    133    134   1    111.1950    627.6000
    132    133    149   1    110.7000    313.8000
    132    133    158   1    112.7000    488.2728
    134    133    149   1    108.6190    418.4000
    134    133    158   1    111.1950    627.6000
    149    133    158   1    110.7000    313.8000
    133    134    135   1    128.1660    543.9200
    133    134    142   1    128.1660    543.9200
    135    134    142   1     99.1400    753.1200
    134    135    136   1    104.4000    585.7600
    134    135    140   1    132.8000    585.7600
    136    135    140   1    122.7000    711.2800
    135    136    137   1    116.2000    711.2800
    135    136    141   1    105.4700    669.4400
    137    136    141   1    134.4130    418.4000
    136    137    138   1    120.0000    527.1840
    136    137    150   1    120.0000    292.8800
    138    137    150   1    120.0000    292.8800
    137    138    139   1    120.0000    527.1840
    137    138    151   1    120.0000    292.8800
    139    138    151   1    120.0000    292.8800
    138    139    140   1    120.0000    527.1840
    138    139    152   1    120.0000    292.8800
    140    139    152   1    120.0000    292.8800
    135    140    139   1    120.0000    711.2800
    135    140    153   1    120.0000    292.8800
    139    140    153   1    120.0000    292.8800
    136    141    142   1    105.4700    669.4400
    136    141    146   1    134.4130    418.4000
    142    141    146   1    116.2000    711.2800
    134    142    141   1    104.4000    585.7600
    134    142    143   1    132.8000    585.7600
    141    142    143   1    122.7000    711.2800
    142    143    144   1    120.0000    711.2800
    142    143    154   1    120.0000    292.8800
    144    143    154   1    120.0000    292.8800
    143    144    145   1    120.0000    527.1840
    143    144    155   1    120.0000    292.8800
    145    144    155   1    120.0000    292.8800
    144    145    146   1    120.0000    527.1840
    144    145    156   1    120.0000    292.8800
    146    145    156   1    120.0000    292.8800
    141    146    145   1    120.0000    527.1840
    141    146    157   1    120.0000    292.8800
    145    146    157   1    120.0000    292.8800
    133    158    159   1    112.7000    488.2728
    133    158    173   1    110.7000    313.8000
    133    158    174   1    110.7000    313.8000
    159    158    173   1    110.7000    313.8000
    159    158    174   1    110.7000    313.8000
    173    158    174   1    107.8000    276.1440
    158    159    160   1    111.1950    627.6000
    158    159    175   1    110.7000    313.8000
    158    159    184   1    112.7000    488.2728
    160    159    175   1    108.6190    418.4000
    160    159    184   1    111.1950    627.6000
    175    159    184   1    110.7000    313.8000
    159    160    161   1    128.1660    543.9200
    159    160    168   1    128.1660    543.9200
    161    160    168   1     99.1400    753.1200
    160    161    162   1    104.4000    585.7600
    160    161    166   1    132.8000    585.7600
    162    161    166   1    122.7000    711.2800
    161    162    163   1    116.2000    711.2800
    161    162    167   1    105.4700    669.4400
    163    162    167   1    134.4130    418.4000
    162    163    164   1    120.0000    527.1840
    162    163    176   1    120.0000    292.8800
    164    163    176   1    120.0000    292.8800
    163    164    165   1    120.0000    527.1840
    163    164    177   1    120.0000    292.8800
    165    164    177   1    120.0000    292.8800
    164    165    166   1    120.0000    527.1840
    164    165    178   1    120.0000    292.8800
    166    165    178   1    120.0000    292.8800
    161    166    165   1    120.0000    711.2800
    161    166    179   1    120.0000    292.8800
    165    166    179   1    120.0000    292.8800
    162    167    168   1    105.4700    669.4400
    162    167    172   1    134.4130    418.4000
    168    167    172   1    116.2000    711.2800
    160    168    167   1    104.4000    585.7600
    160    168    169   1    132.8000    585.7600
    167    168    169   1    122.7000    711.2800
    168    169    170   1    120.0000    711.2800
    168    169    180   1    120.0000    292.8800
    170    169    180   1    120.0000    292.8800
    169    170    171   1    120.0000    527.1840
    169    170    181   1    120.0000    292.8800
    171    170    181   1    120.0000    292.8800
    170    171    172   1    120.0000    527.1840
    170    171    182   1    120.0000    292.8800
    172    171    182   1    120.0000    292.8800
    167    172    171   1    120.0000    527.1840
    167    172    183   1    120.0000    292.8800
    171    172    183   1    120.0000    292.8800
    159    184    185   1    112.7000    488.2728
    159    184    199   1    110.7000    313.8000
    159    184    200   1    110.7000    313.8000
    185    184    199   1    110.7000    313.8000
    185    184    200   1    110.7000    313.8000
    199    184    200   1    107.8000    276.1440
    184    185    186   1    111.1950    627.6000
    184    185    201   1    110.7000    313.8000
    184    185    210   1    112.7000    488.2728
    186    185    201   1    108.6190    418.4000
    186    185    210   1    111.1950    627.6000
    201    185    210   1    110.7000    313.8000
    185    186    187   1    128.1660    543.9200
    185    186    194   1    128.1660    543.9200
    187    186    194   1     99.1400    753.1200
    186    187    188   1    104.4000    585.7600
    186    187    192   1    132.8000    585.7600
    188    187    192   1    122.7000    711.2800
    187    188    189   1    116.2000    711.2800
    187    188    193   1    105.4700    669.4400
    189    188    193   1    134.4130    418.4000
    188    189    190   1    120.0000    527.1840
    188    189    202   1    120.0000    292.8800
    190    189    202   1    120.0000    292.8800
    189    190    191   1    120.0000    527.1840
    189    190    203   1    120.0000    292.8800
    191    190    203   1    120.0000    292.8800
    190    191    192   1    120.0000    527.1840
    190    191    204   1    120.0000    292.8800
    192    191    204   1    120.0000    292.8800
    187    192    191   1    120.0000    711.2800
    187    192    205   1    120.0000    292.8800
    191    192    205   1    120.0000    292.8800
    188    193    194   1    105.4700    669.4400
    188    193    198   1    134.4130    418.4000
    194    193    198   1    116.2000    711.2800
    186    194    193   1    104.4000    585.7600
    186    194    195   1    132.8000    585.7600
    193    194    195   1    122.7000    711.2800
    194    195    196   1    120.0000    711.2800
    194    195    206   1    120.0000    292.8800
    196    195    206   1    120.0000    292.8800
    195    196    197   1    120.0000    527.1840
    195    196    207   1    120.0000    292.8800
    197    196    207   1    120.0000    292.8800
    196    197    198   1    120.0000    527.1840
    196    197    208   1    120.0000    292.8800
    198    197    208   1    120.0000    292.8800
    193    198    197   1    120.0000    527.1840
    193    198    209   1    120.0000    292.8800
    197    198    209   1    120.0000    292.8800
    185    210    211   1    112.7000    488.2728
    185    210    225   1    110.7000    313.8000
    185    210    226   1    110.7000    313.8000
    211    210    225   1    110.7000    313.8000
    211    210    226   1    110.7000    313.8000
    225    210    226   1    107.8000    276.1440
    210    211    212   1    111.1950    627.6000
    210    211    227   1    110.7000    313.8000
    210    211    236   1    112.7000    488.2728
    212    211    227   1    108.6190    418.4000
    212    211    236   1    111.1950    627.6000
    227    211    236   1    110.7000    313.8000
    211    212    213   1    128.1660    543.9200
    211    212    220   1    128.1660    543.9200
    213    212    220   1     99.1400    753.1200
    212    213    214   1    104.4000    585.7600
    212    213    218   1    132.8000    585.7600
    214    213    218   1    122.7000    711.2800
    213    214    215   1    116.2000    711.2800
    213    214    219   1    105.4700    669.4400
    215    214    219   1    134.4130    418.4000
    214    215    216   1    120.0000    527.1840
    214    215    228   1    120.0000    292.8800
    216    215    228   1    120.0000    292.8800
    215    216    217   1    120.0000    527.1840
    215    216    229   1    120.0000    292.8800
    217    216    229   1    120.0000    292.8800
    216    217    218   1    120.0000    527.1840
    216    217    230   1    120.0000    292.8800
    218    217    230   1    120.0000    292.8800
    213    218    217   1    120.0000    711.2800
    213    218    231   1    120.0000    292.8800
    217    218    231   1    120.0000    292.8800
    214    219    220   1    105.4700    669.4400
    214    219    224   1    134.4130    418.4000
    220    219    224   1    116.2000    711.2800
    212    220    219   1    104.4000    585.7600
    212    220    221   1    132.8000    585.7600
    219    220    221   1    122.7000    711.2800
    220    221    222   1    120.0000    711.2800
    220    221    232   1    120.0000    292.8800
    222    221    232   1    120.0000    292.8800
    221    222    223   1    120.0000    527.1840
    221    222    233   1    120.0000    292.8800
    223    222    233   1    120.0000    292.8800
    222    223    224   1    120.0000    527.1840
    222    223    234   1    120.0000    292.8800
    224    223    234   1    120.0000    292.8800
    219    224    223   1    120.0000    527.1840
    219    224    235   1    120.0000    292.8800
    223    224    235   1    120.0000    292.8800
    211    236    237   1    112.7000    488.2728
    211    236    251   1    110.7000    313.8000
    211    236    252   1    110.7000    313.8000
    237    236    251   1    110.7000    313.8000
    237    236    252   1    110.7000    313.8000
    251    236    252   1    107.8000    276.1440
    236    237    238   1    111.1950    627.6000
    236    237    253   1    110.7000    313.8000
    236    237    262   1    112.7000    488.2728
    238    237    253   1    108.6190    418.4000
    238    237    262   1    111.1950    627.6000
    253    237    262   1    110.7000    313.8000
    237    238    239   1    128.1660    543.9200
    237    238    246   1    128.1660    543.9200
    239    238    246   1     99.1400    753.1200
    238    239    240   1    104.4000    585.7600
    238    239    244   1    132.8000    585.7600
    240    239    244   1    122.7000    711.2800
    239    240    241   1    116.2000    711.2800
    239    240    245   1    105.4700    669.4400
    241    240    245   1    134.4130    418.4000
    240    241    242   1    120.0000    527.1840
    240    241    254   1    120.0000    292.8800
    242    241    254   1    120.0000    292.8800
    241    242    243   1    120.0000    527.1840
    241    242    255   1    120.0000    292.8800
    243    242    255   1    120.0000    292.8800
    242    243    244   1    120.0000    527.1840
    242    243    256   1    120.0000    292.8800
    244    243    256   1    120.0000    292.8800
    239    244    243   1    120.0000    711.2800
    239    244    257   1    120.0000    292.8800
    243    244    257   1    120.0000    292.8800
    240    245    246   1    105.4700    669.4400
    240    245    250   1    134.4130    418.4000
    246    245    250   1    116.2000    711.2800
    238    246    245   1    104.4000    585.7600
    238    246    247   1    132.8000    585.7600
    245    246    247   1    122.7000    711.2800
    246    247    248   1    120.0000    711.2800
    246    247    258   1    120.0000    292.8800
    248    247    258   1    120.0000    292.8800
    247    248    249   1    120.0000    527.1840
    247    248    259   1    120.0000    292.8800
    249    248    259   1    120.0000    292.8800
    248    249    250   1    120.0000    527.1840
    248    249    260   1    120.0000    292.8800
    250    249    260   1    120.0000    292.8800
    245    250    249   1    120.0000    527.1840
    245    250    261   1    120.0000    292.8800
    249    250    261   1    120.0000    292.8800
    237    262    263   1    112.7000    488.2728
    237    262    277   1    110.7000    313.8000
    237    262    278   1    110.7000    313.8000
    263    262    277   1    110.7000    313.8000
    263    262    278   1    110.7000    313.8000
    277    262    278   1    107.8000    276.1440
    262    263    264   1    111.1950    627.6000
    262    263    279   1    110.7000    313.8000
    262    263    288   1    112.7000    488.2728
    264    263    279   1    108.6190    418.4000
    264    263    288   1    111.1950    627.6000
    279    263    288   1    110.7000    313.8000
    263    264    265   1    128.1660    543.9200
    263    264    272   1    128.1660    543.9200
    265    264    272   1     99.1400    753.1200
    264    265    266   1    104.4000    585.7600
    264    265    270   1    132.8000    585.7600
    266    265    270   1    122.7000    711.2800
    265    266    267   1    116.2000    711.2800
    265    266    271   1    105.4700    669.4400
    267    266    271   1    134.4130    418.4000
    266    267    268   1    120.0000    527.1840
    266    267    280   1    120.0000    292.8800
    268    267    280   1    120.0000    292.8800
    267    268    269   1    120.0000    527.1840
    267    268    281   1    120.0000    292.8800
    269    268    281   1    120.0000    292.8800
    268    269    270   1    120.0000    527.1840
    268    269    282   1    120.0000    292.8800
    270    269    282   1    120.0000    292.8800
    265    270    269   1    120.0000    711.2800
    265    270    283   1    120.0000    292.8800
    269    270    283   1    120.0000    292.8800
    266    271    272   1    105.4700    669.4400
    266    271    276   1    134.4130    418.4000
    272    271    276   1    116.2000    711.2800
    264    272    271   1    104.4000    585.7600
    264    272    273   1    132.8000    585.7600
    271    272    273   1    122.7000    711.2800
    272    273    274   1    120.0000    711.2800
    272    273    284   1    120.0000    292.8800
    274    273    284   1    120.0000    292.8800
    273    274    275   1    120.0000    527.1840
    273    274    285   1    120.0000    292.8800
    275    274    285   1    120.0000    292.8800
    274    275    276   1    120.0000    527.1840
    274    275    286   1    120.0000    292.8800
    276    275    286   1    120.0000    292.8800
    271    276    275   1    120.0000    527.1840
    271    276    287   1    120.0000    292.8800
    275    276    287   1    120.0000    292.8800
    263    288    289   1    112.7000    488.2728
    263    288    303   1    110.7000    313.8000
    263    288    304   1    110.7000    313.8000
    289    288    303   1    110.7000    313.8000
    289    288    304   1    110.7000    313.8000
    303    288    304   1    107.8000    276.1440
    288    289    290   1    111.1950    627.6000
    288    289    305   1    110.7000    313.8000
    288    289    314   1    112.7000    488.2728
    290    289    305   1    108.6190    418.4000
    290    289    314   1    111.1950    627.6000
    305    289    314   1    110.7000    313.8000
    289    290    291   1    128.1660    543.9200
    289    290    298   1    128.1660    543.9200
    291    290    298   1     99.1400    753.1200
    290    291    292   1    104.4000    585.7600
    290    291    296   1    132.8000    585.7600
    292    291    296   1    122.7000    711.2800
    291    292    293   1    116.2000    711.2800
    291    292    297   1    105.4700    669.4400
    293    292    297   1    134.4130    418.4000
    292    293    294   1    120.0000    527.1840
    292    293    306   1    120.0000    292.8800
    294    293    306   1    120.0000    292.8800
    293    294    295   1    120.0000    527.1840
    293    294    307   1    120.0000    292.8800
    295    294    307   1    120.0000    292.8800
    294    295    296   1    120.0000    527.1840
    294    295    308   1    120.0000    292.8800
    296    295    308   1    120.0000    292.8800
    291    296    295   1    120.0000    711.2800
    291    296    309   1    120.0000    292.8800
    295    296    309   1    120.0000    292.8800
    292    297    298   1    105.4700    669.4400
    292    297    302   1    134.4130    418.4000
    298    297    302   1    116.2000    711.2800
    290    298    297   1    104.4000    585.7600
    290    298    299   1    132.8000    585.7600
    297    298    299   1    122.7000    711.2800
    298    299    300   1    120.0000    711.2800
    298    299    310   1    120.0000    292.8800
    300    299    310   1    120.0000    292.8800
    299    300    301   1    120.0000    527.1840
    299    300    311   1    120.0000    292.8800
    301    300    311   1    120.0000    292.8800
    300    301    302   1    120.0000    527.1840
    300    301    312   1    120.0000    292.8800
    302    301    312   1    120.0000    292.8800
    297    302    301   1    120.0000    527.1840
    297    302    313   1    120.0000    292.8800
    301    302    313   1    120.0000    292.8800
    289    314    315   1    112.7000    488.2728
    289    314    329   1    110.7000    313.8000
    289    314    330   1    110.7000    313.8000
    315    314    329   1    110.7000    313.8000
    315    314    330   1    110.7000    313.8000
    329    314    330   1    107.8000    276.1440
    314    315    316   1    111.1950    627.6000
    314    315    331   1    110.7000    313.8000
    314    315    340   1    112.7000    488.2728
    316    315    331   1    108.6190    418.4000
    316    315    340   1    111.1950    627.6000
    331    315    340   1    110.7000    313.8000
    315    316    317   1    128.1660    543.9200
    315    316    324   1    128.1660    543.9200
    317    316    324   1     99.1400    753.1200
    316    317    318   1    104.4000    585.7600
    316    317    322   1    132.8000    585.7600
    318    317    322   1    122.7000    711.2800
    317    318    319   1    116.2000    711.2800
    317    318    323   1    105.4700    669.4400
    319    318    323   1    134.4130    418.4000
    318    319    320   1    120.0000    527.1840
    318    319    332   1    120.0000    292.8800
    320    319    332   1    120.0000    292.8800
    319    320    321   1    120.0000    527.1840
    319    320    333   1    120.0000    292.8800
    321    320    333   1    120.0000    292.8800
    320    321    322   1    120.0000    527.1840
    320    321    334   1    120.0000    292.8800
    322    321    334   1    120.0000    292.8800
    317    322    321   1    120.0000    711.2800
    317    322    335   1    120.0000    292.8800
    321    322    335   1    120.0000    292.8800
    318    323    324   1    105.4700    669.4400
    318    323    328   1    134.4130    418.4000
    324    323    328   1    116.2000    711.2800
    316    324    323   1    104.4000    585.7600
    316    324    325   1    132.8000    585.7600
    323    324    325   1    122.7000    711.2800
    324    325    326   1    120.0000    711.2800
    324    325    336   1    120.0000    292.8800
    326    325    336   1    120.0000    292.8800
    325    326    327   1    120.0000    527.1840
    325    326    337   1    120.0000    292.8800
    327    326    337   1    120.0000    292.8800
    326    327    328   1    120.0000    527.1840
    326    327    338   1    120.0000    292.8800
    328    327    338   1    120.0000    292.8800
    323    328    327   1    120.0000    527.1840
    323    328    339   1    120.0000    292.8800
    327    328    339   1    120.0000    292.8800
    315    340    341   1    112.7000    488.2728
    315    340    355   1    110.7000    313.8000
    315    340    356   1    110.7000    313.8000
    341    340    355   1    110.7000    313.8000
    341    340    356   1    110.7000    313.8000
    355    340    356   1    107.8000    276.1440
    340    341    342   1    111.1950    627.6000
    340    341    357   1    110.7000    313.8000
    340    341    366   1    112.7000    488.2728
    342    341    357   1    108.6190    418.4000
    342    341    366   1    111.1950    627.6000
    357    341    366   1    110.7000    313.8000
    341    342    343   1    128.1660    543.9200
    341    342    350   1    128.1660    543.9200
    343    342    350   1     99.1400    753.1200
    342    343    344   1    104.4000    585.7600
    342    343    348   1    132.8000    585.7600
    344    343    348   1    122.7000    711.2800
    343    344    345   1    116.2000    711.2800
    343    344    349   1    105.4700    669.4400
    345    344    349   1    134.4130    418.4000
    344    345    346   1    120.0000    527.1840
    344    345    358   1    120.0000    292.8800
    346    345    358   1    120.0000    292.8800
    345    346    347   1    120.0000    527.1840
    345    346    359   1    120.0000    292.8800
    347    346    359   1    120.0000    292.8800
    346    347    348   1    120.0000    527.1840
    346    347    360   1    120.0000    292.8800
    348    347    360   1    120.0000    292.8800
    343    348    347   1    120.0000    711.2800
    343    348    361   1    120.0000    292.8800
    347    348    361   1    120.0000    292.8800
    344    349    350   1    105.4700    669.4400
    344    349    354   1    134.4130    418.4000
    350    349    354   1    116.2000    711.2800
    342    350    349   1    104.4000    585.7600
    342    350    351   1    132.8000    585.7600
    349    350    351   1    122.7000    711.2800
    350    351    352   1    120.0000    711.2800
    350    351    362   1    120.0000    292.8800
    352    351    362   1    120.0000    292.8800
    351    352    353   1    120.0000    527.1840
    351    352    363   1    120.0000    292.8800
    353    352    363   1    120.0000    292.8800
    352    353    354   1    120.0000    527.1840
    352    353    364   1    120.0000    292.8800
    354    353    364   1    120.0000    292.8800
    349    354    353   1    120.0000    527.1840
    349    354    365   1    120.0000    292.8800
    353    354    365   1    120.0000    292.8800
    341    366    367   1    112.7000    488.2728
    341    366    381   1    110.7000    313.8000
    341    366    382   1    110.7000    313.8000
    367    366    381   1    110.7000    313.8000
    367    366    382   1    110.7000    313.8000
    381    366    382   1    107.8000    276.1440
    366    367    368   1    111.1950    627.6000
    366    367    383   1    110.7000    313.8000
    366    367    392   1    112.7000    488.2728
    368    367    383   1    108.6190    418.4000
    368    367    392   1    111.1950    627.6000
    383    367    392   1    110.7000    313.8000
    367    368    369   1    128.1660    543.9200
    367    368    376   1    128.1660    543.9200
    369    368    376   1     99.1400    753.1200
    368    369    370   1    104.4000    585.7600
    368    369    374   1    132.8000    585.7600
    370    369    374   1    122.7000    711.2800
    369    370    371   1    116.2000    711.2800
    369    370    375   1    105.4700    669.4400
    371    370    375   1    134.4130    418.4000
    370    371    372   1    120.0000    527.1840
    370    371    384   1    120.0000    292.8800
    372    371    384   1    120.0000    292.8800
    371    372    373   1    120.0000    527.1840
    371    372    385   1    120.0000    292.8800
    373    372    385   1    120.0000    292.8800
    372    373    374   1    120.0000    527.1840
    372    373    386   1    120.0000    292.8800
    374    373    386   1    120.0000    292.8800
    369    374    373   1    120.0000    711.2800
    369    374    387   1    120.0000    292.8800
    373    374    387   1    120.0000    292.8800
    370    375    376   1    105.4700    669.4400
    370    375    380   1    134.4130    418.4000
    376    375    380   1    116.2000    711.2800
    368    376    375   1    104.4000    585.7600
    368    376    377   1    132.8000    585.7600
    375    376    377   1    122.7000    711.2800
    376    377    378   1    120.0000    711.2800
    376    377    388   1    120.0000    292.8800
    378    377    388   1    120.0000    292.8800
    377    378    379   1    120.0000    527.1840
    377    378    389   1    120.0000    292.8800
    379    378    389   1    120.0000    292.8800
    378    379    380   1    120.0000    527.1840
    378    379    390   1    120.0000    292.8800
    380    379    390   1    120.0000    292.8800
    375    380    379   1    120.0000    527.1840
    375    380    391   1    120.0000    292.8800
    379    380    391   1    120.0000    292.8800
    367    392    393   1    112.7000    488.2728
    367    392    407   1    110.7000    313.8000
    367    392    408   1    110.7000    313.8000
    393    392    407   1    110.7000    313.8000
    393    392    408   1    110.7000    313.8000
    407    392    408   1    107.8000    276.1440
    392    393    394   1    111.1950    627.6000
    392    393    409   1    110.7000    313.8000
    392    393    418   1    112.7000    488.2728
    394    393    409   1    108.6190    418.4000
    394    393    418   1    111.1950    627.6000
    409    393    418   1    110.7000    313.8000
    393    394    395   1    128.1660    543.9200
    393    394    402   1    128.1660    543.9200
    395    394    402   1     99.1400    753.1200
    394    395    396   1    104.4000    585.7600
    394    395    400   1    132.8000    585.7600
    396    395    400   1    122.7000    711.2800
    395    396    397   1    116.2000    711.2800
    395    396    401   1    105.4700    669.4400
    397    396    401   1    134.4130    418.4000
    396    397    398   1    120.0000    527.1840
    396    397    410   1    120.0000    292.8800
    398    397    410   1    120.0000    292.8800
    397    398    399   1    120.0000    527.1840
    397    398    411   1    120.0000    292.8800
    399    398    411   1    120.0000    292.8800
    398    399    400   1    120.0000    527.1840
    398    399    412   1    120.0000    292.8800
    400    399    412   1    120.0000    292.8800
    395    400    399   1    120.0000    711.2800
    395    400    413   1    120.0000    292.8800
    399    400    413   1    120.0000    292.8800
    396    401    402   1    105.4700    669.4400
    396    401    406   1    134.4130    418.4000
    402    401    406   1    116.2000    711.2800
    394    402    401   1    104.4000    585.7600
    394    402    403   1    132.8000    585.7600
    401    402    403   1    122.7000    711.2800
    402    403    404   1    120.0000    711.2800
    402    403    414   1    120.0000    292.8800
    404    403    414   1    120.0000    292.8800
    403    404    405   1    120.0000    527.1840
    403    404    415   1    120.0000    292.8800
    405    404    415   1    120.0000    292.8800
    404    405    406   1    120.0000    527.1840
    404    405    416   1    120.0000    292.8800
    406    405    416   1    120.0000    292.8800
    401    406    405   1    120.0000    527.1840
    401    406    417   1    120.0000    292.8800
    405    406    417   1    120.0000    292.8800
    393    418    419   1    112.7000    488.2728
    393    418    433   1    110.7000    313.8000
    393    418    434   1    110.7000    313.8000
    419    418    433   1    110.7000    313.8000
    419    418    434   1    110.7000    313.8000
    433    418    434   1    107.8000    276.1440
    418    419    420   1    111.1950    627.6000
    418    419    435   1    110.7000    313.8000
    418    419    444   1    112.7000    488.2728
    420    419    435   1    108.6190    418.4000
    420    419    444   1    111.1950    627.6000
    435    419    444   1    110.7000    313.8000
    419    420    421   1    128.1660    543.9200
    419    420    428   1    128.1660    543.9200
    421    420    428   1     99.1400    753.1200
    420    421    422   1    104.4000    585.7600
    420    421    426   1    132.8000    585.7600
    422    421    426   1    122.7000    711.2800
    421    422    423   1    116.2000    711.2800
    421    422    427   1    105.4700    669.4400
    423    422    427   1    134.4130    418.4000
    422    423    424   1    120.0000    527.1840
    422    423    436   1    120.0000    292.8800
    424    423    436   1    120.0000    292.8800
    423    424    425   1    120.0000    527.1840
    423    424    437   1    120.0000    292.8800
    425    424    437   1    120.0000    292.8800
    424    425    426   1    120.0000    527.1840
    424    425    438   1    120.0000    292.8800
    426    425    438   1    120.0000    292.8800
    421    426    425   1    120.0000    711.2800
    421    426    439   1    120.0000    292.8800
    425    426    439   1    120.0000    292.8800
    422    427    428   1    105.4700    669.4400
    422    427    432   1    134.4130    418.4000
    428    427    432   1    116.2000    711.2800
    420    428    427   1    104.4000    585.7600
    420    428    429   1    132.8000    585.7600
    427    428    429   1    122.7000    711.2800
    428    429    430   1    120.0000    711.2800
    428    429    440   1    120.0000    292.8800
    430    429    440   1    120.0000    292.8800
    429    430    431   1    120.0000    527.1840
    429    430    441   1    120.0000    292.8800
    431    430    441   1    120.0000    292.8800
    430    431    432   1    120.0000    527.1840
    430    431    442   1    120.0000    292.8800
    432    431    442   1    120.0000    292.8800
    427    432    431   1    120.0000    527.1840
    427    432    443   1    120.0000    292.8800
    431    432    443   1    120.0000    292.8800
    419    444    445   1    112.7000    488.2728
    419    444    459   1    110.7000    313.8000
    419    444    460   1    110.7000    313.8000
    445    444    459   1    110.7000    313.8000
    445    444    460   1    110.7000    313.8000
    459    444    460   1    107.8000    276.1440
    444    445    446   1    111.1950    627.6000
    444    445    461   1    110.7000    313.8000
    444    445    470   1    112.7000    488.2728
    446    445    461   1    108.6190    418.4000
    446    445    470   1    111.1950    627.6000
    461    445    470   1    110.7000    313.8000
    445    446    447   1    128.1660    543.9200
    445    446    454   1    128.1660    543.9200
    447    446    454   1     99.1400    753.1200
    446    447    448   1    104.4000    585.7600
    446    447    452   1    132.8000    585.7600
    448    447    452   1    122.7000    711.2800
    447    448    449   1    116.2000    711.2800
    447    448    453   1    105.4700    669.4400
    449    448    453   1    134.4130    418.4000
    448    449    450   1    120.0000    527.1840
    448    449    462   1    120.0000    292.8800
    450    449    462   1    120.0000    292.8800
    449    450    451   1    120.0000    527.1840
    449    450    463   1    120.0000    292.8800
    451    450    463   1    120.0000    292.8800
    450    451    452   1    120.0000    527.1840
    450    451    464   1    120.0000    292.8800
    452    451    464   1    120.0000    292.8800
    447    452    451   1    120.0000    711.2800
    447    452    465   1    120.0000    292.8800
    451    452    465   1    120.0000    292.8800
    448    453    454   1    105.4700    669.4400
    448    453    458   1    134.4130    418.4000
    454    453    458   1    116.2000    711.2800
    446    454    453   1    104.4000    585.7600
    446    454    455   1    132.8000    585.7600
    453    454    455   1    122.7000    711.2800
    454    455    456   1    120.0000    711.2800
    454    455    466   1    120.0000    292.8800
    456    455    466   1    120.0000    292.8800
    455    456    457   1    120.0000    527.1840
    455    456    467   1    120.0000    292.8800
    457    456    467   1    120.0000    292.8800
    456    457    458   1    120.0000    527.1840
    456    457    468   1    120.0000    292.8800
    458    457    468   1    120.0000    292.8800
    453    458    457   1    120.0000    527.1840
    453    458    469   1    120.0000    292.8800
    457    458    469   1    120.0000    292.8800
    445    470    471   1    112.7000    488.2728
    445    470    485   1    110.7000    313.8000
    445    470    486   1    110.7000    313.8000
    471    470    485   1    110.7000    313.8000
    471    470    486   1    110.7000    313.8000
    485    470    486   1    107.8000    276.1440
    470    471    472   1    111.1950    627.6000
    470    471    487   1    110.7000    313.8000
    470    471    496   1    112.7000    488.2728
    472    471    487   1    108.6190    418.4000
    472    471    496   1    111.1950    627.6000
    487    471    496   1    110.7000    313.8000
    471    472    473   1    128.1660    543.9200
    471    472    480   1    128.1660    543.9200
    473    472    480   1     99.1400    753.1200
    472    473    474   1    104.4000    585.7600
    472    473    478   1    132.8000    585.7600
    474    473    478   1    122.7000    711.2800
    473    474    475   1    116.2000    711.2800
    473    474    479   1    105.4700    669.4400
    475    474    479   1    134.4130    418.4000
    474    475    476   1    120.0000    527.1840
    474    475    488   1    120.0000    292.8800
    476    475    488   1    120.0000    292.8800
    475    476    477   1    120.0000    527.1840
    475    476    489   1    120.0000    292.8800
    477    476    489   1    120.0000    292.8800
    476    477    478   1    120.0000    527.1840
    476    477    490   1    120.0000    292.8800
    478    477    490   1    120.0000    292.8800
    473    478    477   1    120.0000    711.2800
    473    478    491   1    120.0000    292.8800
    477    478    491   1    120.0000    292.8800
    474    479    480   1    105.4700    669.4400
    474    479    484   1    134.4130    418.4000
    480    479    484   1    116.2000    711.2800
    472    480    479   1    104.4000    585.7600
    472    480    481   1    132.8000    585.7600
    479    480    481   1    122.7000    711.2800
    480    481    482   1    120.0000    711.2800
    480    481    492   1    120.0000    292.8800
    482    481    492   1    120.0000    292.8800
    481    482    483   1    120.0000    527.1840
    481    482    493   1    120.0000    292.8800
    483    482    493   1    120.0000    292.8800
    482    483    484   1    120.0000    527.1840
    482    483    494   1    120.0000    292.8800
    484    483    494   1    120.0000    292.8800
    479    484    483   1    120.0000    527.1840
    479    484    495   1    120.0000    292.8800
    483    484    495   1    120.0000    292.8800
    471    496    497   1    112.7000    488.2728
    471    496    511   1    110.7000    313.8000
    471    496    512   1    110.7000    313.8000
    497    496    511   1    110.7000    313.8000
    497    496    512   1    110.7000    313.8000
    511    496    512   1    107.8000    276.1440
    496    497    498   1    111.1950    627.6000
    496    497    513   1    110.7000    313.8000
    496    497    522   1    110.7000    313.8000
    498    497    513   1    108.6190    418.4000
    498    497    522   1    108.6190    418.4000
    513    497    522   1    107.8000    276.1440
    497    498    499   1    128.1660    543.9200
    497    498    506   1    128.1660    543.9200
    499    498    506   1     99.1400    753.1200
    498    499    500   1    104.4000    585.7600
    498    499    504   1    132.8000    585.7600
    500    499    504   1    122.7000    711.2800
    499    500    501   1    116.2000    711.2800
    499    500    505   1    105.4700    669.4400
    501    500    505   1    134.4130    418.4000
    500    501    502   1    120.0000    527.1840
    500    501    514   1    120.0000    292.8800
    502    501    514   1    120.0000    292.8800
    501    502    503   1    120.0000    527.1840
    501    502    515   1    120.0000    292.8800
    503    502    515   1    120.0000    292.8800
    502    503    504   1    120.0000    527.1840
    502    503    516   1    120.0000    292.8800
    504    503    516   1    120.0000    292.8800
    499    504    503   1    120.0000    711.2800
    499    504    517   1    120.0000    292.8800
    503    504    517   1    120.0000    292.8800
    500    505    506   1    105.4700    669.4400
    500    505    510   1    134.4130    418.4000
    506    505    510   1    116.2000    711.2800
    498    506    505   1    104.4000    585.7600
    498    506    507   1    132.8000    585.7600
    505    506    507   1    122.7000    711.2800
    506    507    508   1    120.0000    711.2800
    506    507    518   1    120.0000    292.8800
    508    507    518   1    120.0000    292.8800
    507    508    509   1    120.0000    527.1840
    507    508    519   1    120.0000    292.8800
    509    508    519   1    120.0000    292.8800
    508    509    510   1    120.0000    527.1840
    508    509    520   1    120.0000    292.8800
    510    509    520   1    120.0000    292.8800
    505    510    509   1    120.0000    527.1840
    505    510    521   1    120.0000    292.8800
    509    510    521   1    120.0000    292.8800

[ dihedrals ]
; Proper dihedrals
     16      1      2      3   5     0.00000     0.00000     1.25520  0.0
     16      1      2     18   5     0.00000     0.00000     1.25520  0.0
     16      1      2     28   5     0.00000     0.00000     1.25520  0.0
     17      1      2      3   5     0.00000     0.00000     1.25520  0.0
     17      1      2     18   5     0.00000     0.00000     1.25520  0.0
     17      1      2     28   5     0.00000     0.00000     1.25520  0.0
     27      1      2      3   5     0.00000     0.00000     1.25520  0.0
     27      1      2     18   5     0.00000     0.00000     1.25520  0.0
     27      1      2     28   5     0.00000     0.00000     1.25520  0.0
      1      2      3      4   5     9.22572     0.13807     3.27189  0.0
      1      2      3     11   5     9.22572     0.13807     3.27189  0.0
     18      2      3      4   5     0.00000     0.00000     0.00000  0.0
     18      2      3     11   5     0.00000     0.00000     0.00000  0.0
     28      2      3      4   5     9.22572     0.13807     3.27189  0.0
     28      2      3     11   5     9.22572     0.13807     3.27189  0.0
      1      2     28     29   5     4.74884    -0.63178     1.67360  0.0
      1      2     28     43   5     0.00000     0.00000     1.25520  0.0
      1      2     28     44   5     0.00000     0.00000     1.25520  0.0
      3      2     28     29   5    -5.40573     4.88691     0.00000  0.0
      3      2     28     43   5     0.00000     0.00000     1.25520  0.0
      3      2     28     44   5     0.00000     0.00000     1.25520  0.0
     18      2     28     29   5     0.00000     0.00000     1.25520  0.0
     18      2     28     43   5     0.00000     0.00000     1.25520  0.0
     18      2     28     44   5     0.00000     0.00000     1.25520  0.0
      2      3      4      5   5     0.00000    30.33400     0.00000  0.0
      2      3      4      9   5     0.00000    30.33400     0.00000  0.0
     11      3      4      5   5     0.00000    30.33400     0.00000  0.0
     11      3      4      9   5     0.00000    30.33400     0.00000  0.0
      2      3     11     10   5     0.00000    30.33400     0.00000  0.0
      2      3     11     12   5     0.00000    30.33400     0.00000  0.0
      4      3     11     10   5     0.00000    30.33400     0.00000  0.0
      4      3     11     12   5     0.00000    30.33400     0.00000  0.0
      3      4      5      6   5     0.00000    25.10400     0.00000  0.0
      3      4      5     10   5     0.00000    25.10400     0.00000  0.0
      9      4      5      6   5     0.00000    25.10400     0.00000  0.0
      9      4      5     10   5     0.00000    25.10400     0.00000  0.0
      3      4      9      8   5     0.00000    30.33400     0.00000  0.0
      3      4      9     22   5     0.00000    30.33400     0.00000  0.0
      5      4      9      8   5     0.00000    30.33400     0.00000  0.0
      5      4      9     22   5     0.00000    30.33400     0.00000  0.0
      4      5      6      7   5     0.00000    29.28800     0.00000  0.0
      4      5      6     19   5     0.00000    29.28800     0.00000  0.0
     10      5      6      7   5     0.00000    30.33400     0.00000  0.0
     10      5      6     19   5     0.00000    30.33400     0.00000  0.0
      4      5     10     11   5     0.00000    29.28800     0.00000  0.0
      4      5     10     15   5     0.00000    29.28800     0.00000  0.0
      6      5     10     11   5     0.00000    29.28800     0.00000  0.0
      6      5     10     15   5     0.00000    30.33400     0.00000  0.0
      5      6      7      8   5     0.00000    30.33400     0.00000  0.0
      5      6      7     20   5     0.00000    30.33400     0.00000  0.0
     19      6      7      8   5     0.00000    30.33400     0.00000  0.0
     19      6      7     20   5     0.00000    30.33400     0.00000  0.0
      6      7      8      9   5     0.00000    30.33400     0.00000  0.0
      6      7      8     21   5     0.00000    30.33400     0.00000  0.0
     20      7      8      9   5     0.00000    30.33400     0.00000  0.0
     20      7      8     21   5     0.00000    30.33400     0.00000  0.0
      7      8      9      4   5     0.00000    30.33400     0.00000  0.0
      7      8      9     22   5     0.00000    30.33400     0.00000  0.0
     21      8      9      4   5     0.00000    30.33400     0.00000  0.0
     21      8      9     22   5     0.00000    30.33400     0.00000  0.0
      5     10     11      3   5     0.00000    25.10400     0.00000  0.0
      5     10     11     12   5     0.00000    25.10400     0.00000  0.0
     15     10     11      3   5     0.00000    25.10400     0.00000  0.0
     15     10     11     12   5     0.00000    25.10400     0.00000  0.0
      5     10     15     14   5     0.00000    30.33400     0.00000  0.0
      5     10     15     26   5     0.00000    30.33400     0.00000  0.0
     11     10     15     14   5     0.00000    29.28800     0.00000  0.0
     11     10     15     26   5     0.00000    29.28800     0.00000  0.0
      3     11     12     13   5     0.00000    30.33400     0.00000  0.0
      3     11     12     23   5     0.00000    30.33400     0.00000  0.0
     10     11     12     13   5     0.00000    30.33400     0.00000  0.0
     10     11     12     23   5     0.00000    30.33400     0.00000  0.0
     11     12     13     14   5     0.00000    30.33400     0.00000  0.0
     11     12     13     24   5     0.00000    30.33400     0.00000  0.0
     23     12     13     14   5     0.00000    30.33400     0.00000  0.0
     23     12     13     24   5     0.00000    30.33400     0.00000  0.0
     12     13     14     15   5     0.00000    30.33400     0.00000  0.0
     12     13     14     25   5     0.00000    30.33400     0.00000  0.0
     24     13     14     15   5     0.00000    30.33400     0.00000  0.0
     24     13     14     25   5     0.00000    30.33400     0.00000  0.0
     13     14     15     10   5     0.00000    30.33400     0.00000  0.0
     13     14     15     26   5     0.00000    30.33400     0.00000  0.0
     25     14     15     10   5     0.00000    30.33400     0.00000  0.0
     25     14     15     26   5     0.00000    30.33400     0.00000  0.0
      2     28     29     30   5    -5.40573     4.88691     0.00000  0.0
      2     28     29     45   5     0.00000     0.00000     1.25520  0.0
      2     28     29     54   5     4.74884    -0.63178     1.67360  0.0
     43     28     29     30   5     0.00000     0.00000     1.25520  0.0
     43     28     29     45   5     0.00000     0.00000     1.25520  0.0
     43     28     29     54   5     0.00000     0.00000     1.25520  0.0
     44     28     29     30   5     0.00000     0.00000     1.25520  0.0
     44     28     29     45   5     0.00000     0.00000     1.25520  0.0
     44     28     29     54   5     0.00000     0.00000     1.25520  0.0
     28     29     30     31   5     9.22572     0.13807     3.27189  0.0
     28     29     30     38   5     9.22572     0.13807     3.27189  0.0
     45     29     30     31   5     0.00000     0.00000     0.00000  0.0
     45     29     30     38   5     0.00000     0.00000     0.00000  0.0
     54     29     30     31   5     9.22572     0.13807     3.27189  0.0
     54     29     30     38   5     9.22572     0.13807     3.27189  0.0
     28     29     54     55   5     4.74884    -0.63178     1.67360  0.0
     28     29     54     69   5     0.00000     0.00000     1.25520  0.0
     28     29     54     70   5     0.00000     0.00000     1.25520  0.0
     30     29     54     55   5    -5.40573     4.88691     0.00000  0.0
     30     29     54     69   5     0.00000     0.00000     1.25520  0.0
     30     29     54     70   5     0.00000     0.00000     1.25520  0.0
     45     29     54     55   5     0.00000     0.00000     1.25520  0.0
     45     29     54     69   5     0.00000     0.00000     1.25520  0.0
     45     29     54     70   5     0.00000     0.00000     1.25520  0.0
     29     30     31     32   5     0.00000    30.33400     0.00000  0.0
     29     30     31     36   5     0.00000    30.33400     0.00000  0.0
     38     30     31     32   5     0.00000    30.33400     0.00000  0.0
     38     30     31     36   5     0.00000    30.33400     0.00000  0.0
     29     30     38     37   5     0.00000    30.33400     0.00000  0.0
     29     30     38     39   5     0.00000    30.33400     0.00000  0.0
     31     30     38     37   5     0.00000    30.33400     0.00000  0.0
     31     30     38     39   5     0.00000    30.33400     0.00000  0.0
     30     31     32     33   5     0.00000    25.10400     0.00000  0.0
     30     31     32     37   5     0.00000    25.10400     0.00000  0.0
     36     31     32     33   5     0.00000    25.10400     0.00000  0.0
     36     31     32     37   5     0.00000    25.10400     0.00000  0.0
     30     31     36     35   5     0.00000    30.33400     0.00000  0.0
     30     31     36     49   5     0.00000    30.33400     0.00000  0.0
     32     31     36     35   5     0.00000    30.33400     0.00000  0.0
     32     31     36     49   5     0.00000    30.33400     0.00000  0.0
     31     32     33     34   5     0.00000    29.28800     0.00000  0.0
     31     32     33     46   5     0.00000    29.28800     0.00000  0.0
     37     32     33     34   5     0.00000    30.33400     0.00000  0.0
     37     32     33     46   5     0.00000    30.33400     0.00000  0.0
     31     32     37     38   5     0.00000    29.28800     0.00000  0.0
     31     32     37     42   5     0.00000    29.28800     0.00000  0.0
     33     32     37     38   5     0.00000    29.28800     0.00000  0.0
     33     32     37     42   5     0.00000    30.33400     0.00000  0.0
     32     33     34     35   5     0.00000    30.33400     0.00000  0.0
     32     33     34     47   5     0.00000    30.33400     0.00000  0.0
     46     33     34     35   5     0.00000    30.33400     0.00000  0.0
     46     33     34     47   5     0.00000    30.33400     0.00000  0.0
     33     34     35     36   5     0.00000    30.33400     0.00000  0.0
     33     34     35     48   5     0.00000    30.33400     0.00000  0.0
     47     34     35     36   5     0.00000    30.33400     0.00000  0.0
     47     34     35     48   5     0.00000    30.33400     0.00000  0.0
     34     35     36     31   5     0.00000    30.33400     0.00000  0.0
     34     35     36     49   5     0.00000    30.33400     0.00000  0.0
     48     35     36     31   5     0.00000    30.33400     0.00000  0.0
     48     35     36     49   5     0.00000    30.33400     0.00000  0.0
     32     37     38     30   5     0.00000    25.10400     0.00000  0.0
     32     37     38     39   5     0.00000    25.10400     0.00000  0.0
     42     37     38     30   5     0.00000    25.10400     0.00000  0.0
     42     37     38     39   5     0.00000    25.10400     0.00000  0.0
     32     37     42     41   5     0.00000    30.33400     0.00000  0.0
     32     37     42     53   5     0.00000    30.33400     0.00000  0.0
     38     37     42     41   5     0.00000    29.28800     0.00000  0.0
     38     37     42     53   5     0.00000    29.28800     0.00000  0.0
     30     38     39     40   5     0.00000    30.33400     0.00000  0.0
     30     38     39     50   5     0.00000    30.33400     0.00000  0.0
     37     38     39     40   5     0.00000    30.33400     0.00000  0.0
     37     38     39     50   5     0.00000    30.33400     0.00000  0.0
     38     39     40     41   5     0.00000    30.33400     0.00000  0.0
     38     39     40     51   5     0.00000    30.33400     0.00000  0.0
     50     39     40     41   5     0.00000    30.33400     0.00000  0.0
     50     39     40     51   5     0.00000    30.33400     0.00000  0.0
     39     40     41     42   5     0.00000    30.33400     0.00000  0.0
     39     40     41     52   5     0.00000    30.33400     0.00000  0.0
     51     40     41     42   5     0.00000    30.33400     0.00000  0.0
     51     40     41     52   5     0.00000    30.33400     0.00000  0.0
     40     41     42     37   5     0.00000    30.33400     0.00000  0.0
     40     41     42     53   5     0.00000    30.33400     0.00000  0.0
     52     41     42     37   5     0.00000    30.33400     0.00000  0.0
     52     41     42     53   5     0.00000    30.33400     0.00000  0.0
     29     54     55     56   5    -5.40573     4.88691     0.00000  0.0
     29     54     55     71   5     0.00000     0.00000     1.25520  0.0
     29     54     55     80   5     4.74884    -0.63178     1.67360  0.0
     69     54     55     56   5     0.00000     0.00000     1.25520  0.0
     69     54     55     71   5     0.00000     0.00000     1.25520  0.0
     69     54     55     80   5     0.00000     0.00000     1.25520  0.0
     70     54     55     56   5     0.00000     0.00000     1.25520  0.0
     70     54     55     71   5     0.00000     0.00000     1.25520  0.0
     70     54     55     80   5     0.00000     0.00000     1.25520  0.0
     54     55     56     57   5     9.22572     0.13807     3.27189  0.0
     54     55     56     64   5     9.22572     0.13807     3.27189  0.0
     71     55     56     57   5     0.00000     0.00000     0.00000  0.0
     71     55     56     64   5     0.00000     0.00000     0.00000  0.0
     80     55     56     57   5     9.22572     0.13807     3.27189  0.0
     80     55     56     64   5     9.22572     0.13807     3.27189  0.0
     54     55     80     81   5     4.74884    -0.63178     1.67360  0.0
     54     55     80     95   5     0.00000     0.00000     1.25520  0.0
     54     55     80     96   5     0.00000     0.00000     1.25520  0.0
     56     55     80     81   5    -5.40573     4.88691     0.00000  0.0
     56     55     80     95   5     0.00000     0.00000     1.25520  0.0
     56     55     80     96   5     0.00000     0.00000     1.25520  0.0
     71     55     80     81   5     0.00000     0.00000     1.25520  0.0
     71     55     80     95   5     0.00000     0.00000     1.25520  0.0
     71     55     80     96   5     0.00000     0.00000     1.25520  0.0
     55     56     57     58   5     0.00000    30.33400     0.00000  0.0
     55     56     57     62   5     0.00000    30.33400     0.00000  0.0
     64     56     57     58   5     0.00000    30.33400     0.00000  0.0
     64     56     57     62   5     0.00000    30.33400     0.00000  0.0
     55     56     64     63   5     0.00000    30.33400     0.00000  0.0
     55     56     64     65   5     0.00000    30.33400     0.00000  0.0
     57     56     64     63   5     0.00000    30.33400     0.00000  0.0
     57     56     64     65   5     0.00000    30.33400     0.00000  0.0
     56     57     58     59   5     0.00000    25.10400     0.00000  0.0
     56     57     58     63   5     0.00000    25.10400     0.00000  0.0
     62     57     58     59   5     0.00000    25.10400     0.00000  0.0
     62     57     58     63   5     0.00000    25.10400     0.00000  0.0
     56     57     62     61   5     0.00000    30.33400     0.00000  0.0
     56     57     62     75   5     0.00000    30.33400     0.00000  0.0
     58     57     62     61   5     0.00000    30.33400     0.00000  0.0
     58     57     62     75   5     0.00000    30.33400     0.00000  0.0
     57     58     59     60   5     0.00000    29.28800     0.00000  0.0
     57     58     59     72   5     0.00000    29.28800     0.00000  0.0
     63     58     59     60   5     0.00000    30.33400     0.00000  0.0
     63     58     59     72   5     0.00000    30.33400     0.00000  0.0
     57     58     63     64   5     0.00000    29.28800     0.00000  0.0
     57     58     63     68   5     0.00000    29.28800     0.00000  0.0
     59     58     63     64   5     0.00000    29.28800     0.00000  0.0
     59     58     63     68   5     0.00000    30.33400     0.00000  0.0
     58     59     60     61   5     0.00000    30.33400     0.00000  0.0
     58     59     60     73   5     0.00000    30.33400     0.00000  0.0
     72     59     60     61   5     0.00000    30.33400     0.00000  0.0
     72     59     60     73   5     0.00000    30.33400     0.00000  0.0
     59     60     61     62   5     0.00000    30.33400     0.00000  0.0
     59     60     61     74   5     0.00000    30.33400     0.00000  0.0
     73     60     61     62   5     0.00000    30.33400     0.00000  0.0
     73     60     61     74   5     0.00000    30.33400     0.00000  0.0
     60     61     62     57   5     0.00000    30.33400     0.00000  0.0
     60     61     62     75   5     0.00000    30.33400     0.00000  0.0
     74     61     62     57   5     0.00000    30.33400     0.00000  0.0
     74     61     62     75   5     0.00000    30.33400     0.00000  0.0
     58     63     64     56   5     0.00000    25.10400     0.00000  0.0
     58     63     64     65   5     0.00000    25.10400     0.00000  0.0
     68     63     64     56   5     0.00000    25.10400     0.00000  0.0
     68     63     64     65   5     0.00000    25.10400     0.00000  0.0
     58     63     68     67   5     0.00000    30.33400     0.00000  0.0
     58     63     68     79   5     0.00000    30.33400     0.00000  0.0
     64     63     68     67   5     0.00000    29.28800     0.00000  0.0
     64     63     68     79   5     0.00000    29.28800     0.00000  0.0
     56     64     65     66   5     0.00000    30.33400     0.00000  0.0
     56     64     65     76   5     0.00000    30.33400     0.00000  0.0
     63     64     65     66   5     0.00000    30.33400     0.00000  0.0
     63     64     65     76   5     0.00000    30.33400     0.00000  0.0
     64     65     66     67   5     0.00000    30.33400     0.00000  0.0
     64     65     66     77   5     0.00000    30.33400     0.00000  0.0
     76     65     66     67   5     0.00000    30.33400     0.00000  0.0
     76     65     66     77   5     0.00000    30.33400     0.00000  0.0
     65     66     67     68   5     0.00000    30.33400     0.00000  0.0
     65     66     67     78   5     0.00000    30.33400     0.00000  0.0
     77     66     67     68   5     0.00000    30.33400     0.00000  0.0
     77     66     67     78   5     0.00000    30.33400     0.00000  0.0
     66     67     68     63   5     0.00000    30.33400     0.00000  0.0
     66     67     68     79   5     0.00000    30.33400     0.00000  0.0
     78     67     68     63   5     0.00000    30.33400     0.00000  0.0
     78     67     68     79   5     0.00000    30.33400     0.00000  0.0
     55     80     81     82   5    -5.40573     4.88691     0.00000  0.0
     55     80     81     97   5     0.00000     0.00000     1.25520  0.0
     55     80     81    106   5     4.74884    -0.63178     1.67360  0.0
     95     80     81     82   5     0.00000     0.00000     1.25520  0.0
     95     80     81     97   5     0.00000     0.00000     1.25520  0.0
     95     80     81    106   5     0.00000     0.00000     1.25520  0.0
     96     80     81     82   5     0.00000     0.00000     1.25520  0.0
     96     80     81     97   5     0.00000     0.00000     1.25520  0.0
     96     80     81    106   5     0.00000     0.00000     1.25520  0.0
     80     81     82     83   5     9.22572     0.13807     3.27189  0.0
     80     81     82     90   5     9.22572     0.13807     3.27189  0.0
     97     81     82     83   5     0.00000     0.00000     0.00000  0.0
     97     81     82     90   5     0.00000     0.00000     0.00000  0.0
    106     81     82     83   5     9.22572     0.13807     3.27189  0.0
    106     81     82     90   5     9.22572     0.13807     3.27189  0.0
     80     81    106    107   5     4.74884    -0.63178     1.67360  0.0
     80     81    106    121   5     0.00000     0.00000     1.25520  0.0
     80     81    106    122   5     0.00000     0.00000     1.25520  0.0
     82     81    106    107   5    -5.40573     4.88691     0.00000  0.0
     82     81    106    121   5     0.00000     0.00000     1.25520  0.0
     82     81    106    122   5     0.00000     0.00000     1.25520  0.0
     97     81    106    107   5     0.00000     0.00000     1.25520  0.0
     97     81    106    121   5     0.00000     0.00000     1.25520  0.0
     97     81    106    122   5     0.00000     0.00000     1.25520  0.0
     81     82     83     84   5     0.00000    30.33400     0.00000  0.0
     81     82     83     88   5     0.00000    30.33400     0.00000  0.0
     90     82     83     84   5     0.00000    30.33400     0.00000  0.0
     90     82     83     88   5     0.00000    30.33400     0.00000  0.0
     81     82     90     89   5     0.00000    30.33400     0.00000  0.0
     81     82     90     91   5     0.00000    30.33400     0.00000  0.0
     83     82     90     89   5     0.00000    30.33400     0.00000  0.0
     83     82     90     91   5     0.00000    30.33400     0.00000  0.0
     82     83     84     85   5     0.00000    25.10400     0.00000  0.0
     82     83     84     89   5     0.00000    25.10400     0.00000  0.0
     88     83     84     85   5     0.00000    25.10400     0.00000  0.0
     88     83     84     89   5     0.00000    25.10400     0.00000  0.0
     82     83     88     87   5     0.00000    30.33400     0.00000  0.0
     82     83     88    101   5     0.00000    30.33400     0.00000  0.0
     84     83     88     87   5     0.00000    30.33400     0.00000  0.0
     84     83     88    101   5     0.00000    30.33400     0.00000  0.0
     83     84     85     86   5     0.00000    29.28800     0.00000  0.0
     83     84     85     98   5     0.00000    29.28800     0.00000  0.0
     89     84     85     86   5     0.00000    30.33400     0.00000  0.0
     89     84     85     98   5     0.00000    30.33400     0.00000  0.0
     83     84     89     90   5     0.00000    29.28800     0.00000  0.0
     83     84     89     94   5     0.00000    29.28800     0.00000  0.0
     85     84     89     90   5     0.00000    29.28800     0.00000  0.0
     85     84     89     94   5     0.00000    30.33400     0.00000  0.0
     84     85     86     87   5     0.00000    30.33400     0.00000  0.0
     84     85     86     99   5     0.00000    30.33400     0.00000  0.0
     98     85     86     87   5     0.00000    30.33400     0.00000  0.0
     98     85     86     99   5     0.00000    30.33400     0.00000  0.0
     85     86     87     88   5     0.00000    30.33400     0.00000  0.0
     85     86     87    100   5     0.00000    30.33400     0.00000  0.0
     99     86     87     88   5     0.00000    30.33400     0.00000  0.0
     99     86     87    100   5     0.00000    30.33400     0.00000  0.0
     86     87     88     83   5     0.00000    30.33400     0.00000  0.0
     86     87     88    101   5     0.00000    30.33400     0.00000  0.0
    100     87     88     83   5     0.00000    30.33400     0.00000  0.0
    100     87     88    101   5     0.00000    30.33400     0.00000  0.0
     84     89     90     82   5     0.00000    25.10400     0.00000  0.0
     84     89     90     91   5     0.00000    25.10400     0.00000  0.0
     94     89     90     82   5     0.00000    25.10400     0.00000  0.0
     94     89     90     91   5     0.00000    25.10400     0.00000  0.0
     84     89     94     93   5     0.00000    30.33400     0.00000  0.0
     84     89     94    105   5     0.00000    30.33400     0.00000  0.0
     90     89     94     93   5     0.00000    29.28800     0.00000  0.0
     90     89     94    105   5     0.00000    29.28800     0.00000  0.0
     82     90     91     92   5     0.00000    30.33400     0.00000  0.0
     82     90     91    102   5     0.00000    30.33400     0.00000  0.0
     89     90     91     92   5     0.00000    30.33400     0.00000  0.0
     89     90     91    102   5     0.00000    30.33400     0.00000  0.0
     90     91     92     93   5     0.00000    30.33400     0.00000  0.0
     90     91     92    103   5     0.00000    30.33400     0.00000  0.0
    102     91     92     93   5     0.00000    30.33400     0.00000  0.0
    102     91     92    103   5     0.00000    30.33400     0.00000  0.0
     91     92     93     94   5     0.00000    30.33400     0.00000  0.0
     91     92     93    104   5     0.00000    30.33400     0.00000  0.0
    103     92     93     94   5     0.00000    30.33400     0.00000  0.0
    103     92     93    104   5     0.00000    30.33400     0.00000  0.0
     92     93     94     89   5     0.00000    30.33400     0.00000  0.0
     92     93     94    105   5     0.00000    30.33400     0.00000  0.0
    104     93     94     89   5     0.00000    30.33400     0.00000  0.0
    104     93     94    105   5     0.00000    30.33400     0.00000  0.0
     81    106    107    108   5    -5.40573     4.88691     0.00000  0.0
     81    106    107    123   5     0.00000     0.00000     1.25520  0.0
     81    106    107    132   5     4.74884    -0.63178     1.67360  0.0
    121    106    107    108   5     0.00000     0.00000     1.25520  0.0
    121    106    107    123   5     0.00000     0.00000     1.25520  0.0
    121    106    107    132   5     0.00000     0.00000     1.25520  0.0
    122    106    107    108   5     0.00000     0.00000     1.25520  0.0
    122    106    107    123   5     0.00000     0.00000     1.25520  0.0
    122    106    107    132   5     0.00000     0.00000     1.25520  0.0
    106    107    108    109   5     9.22572     0.13807     3.27189  0.0
    106    107    108    116   5     9.22572     0.13807     3.27189  0.0
    123    107    108    109   5     0.00000     0.00000     0.00000  0.0
    123    107    108    116   5     0.00000     0.00000     0.00000  0.0
    132    107    108    109   5     9.22572     0.13807     3.27189  0.0
    132    107    108    116   5     9.22572     0.13807     3.27189  0.0
    106    107    132    133   5     4.74884    -0.63178     1.67360  0.0
    106    107    132    147   5     0.00000     0.00000     1.25520  0.0
    106    107    132    148   5     0.00000     0.00000     1.25520  0.0
    108    107    132    133   5    -5.40573     4.88691     0.00000  0.0
    108    107    132    147   5     0.00000     0.00000     1.25520  0.0
    108    107    132    148   5     0.00000     0.00000     1.25520  0.0
    123    107    132    133   5     0.00000     0.00000     1.25520  0.0
    123    107    132    147   5     0.00000     0.00000     1.25520  0.0
    123    107    132    148   5     0.00000     0.00000     1.25520  0.0
    107    108    109    110   5     0.00000    30.33400     0.00000  0.0
    107    108    109    114   5     0.00000    30.33400     0.00000  0.0
    116    108    109    110   5     0.00000    30.33400     0.00000  0.0
    116    108    109    114   5     0.00000    30.33400     0.00000  0.0
    107    108    116    115   5     0.00000    30.33400     0.00000  0.0
    107    108    116    117   5     0.00000    30.33400     0.00000  0.0
    109    108    116    115   5     0.00000    30.33400     0.00000  0.0
    109    108    116    117   5     0.00000    30.33400     0.00000  0.0
    108    109    110    111   5     0.00000    25.10400     0.00000  0.0
    108    109    110    115   5     0.00000    25.10400     0.00000  0.0
    114    109    110    111   5     0.00000    25.10400     0.00000  0.0
    114    109    110    115   5     0.00000    25.10400     0.00000  0.0
    108    109    114    113   5     0.00000    30.33400     0.00000  0.0
    108    109    114    127   5     0.00000    30.33400     0.00000  0.0
    110    109    114    113   5     0.00000    30.33400     0.00000  0.0
    110    109    114    127   5     0.00000    30.33400     0.00000  0.0
    109    110    111    112   5     0.00000    29.28800     0.00000  0.0
    109    110    111    124   5     0.00000    29.28800     0.00000  0.0
    115    110    111    112   5     0.00000    30.33400     0.00000  0.0
    115    110    111    124   5     0.00000    30.33400     0.00000  0.0
    109    110    115    116   5     0.00000    29.28800     0.00000  0.0
    109    110    115    120   5     0.00000    29.28800     0.00000  0.0
    111    110    115    116   5     0.00000    29.28800     0.00000  0.0
    111    110    115    120   5     0.00000    30.33400     0.00000  0.0
    110    111    112    113   5     0.00000    30.33400     0.00000  0.0
    110    111    112    125   5     0.00000    30.33400     0.00000  0.0
    124    111    112    113   5     0.00000    30.33400     0.00000  0.0
    124    111    112    125   5     0.00000    30.33400     0.00000  0.0
    111    112    113    114   5     0.00000    30.33400     0.00000  0.0
    111    112    113    126   5     0.00000    30.33400     0.00000  0.0
    125    112    113    114   5     0.00000    30.33400     0.00000  0.0
    125    112    113    126   5     0.00000    30.33400     0.00000  0.0
    112    113    114    109   5     0.00000    30.33400     0.00000  0.0
    112    113    114    127   5     0.00000    30.33400     0.00000  0.0
    126    113    114    109   5     0.00000    30.33400     0.00000  0.0
    126    113    114    127   5     0.00000    30.33400     0.00000  0.0
    110    115    116    108   5     0.00000    25.10400     0.00000  0.0
    110    115    116    117   5     0.00000    25.10400     0.00000  0.0
    120    115    116    108   5     0.00000    25.10400     0.00000  0.0
    120    115    116    117   5     0.00000    25.10400     0.00000  0.0
    110    115    120    119   5     0.00000    30.33400     0.00000  0.0
    110    115    120    131   5     0.00000    30.33400     0.00000  0.0
    116    115    120    119   5     0.00000    29.28800     0.00000  0.0
    116    115    120    131   5     0.00000    29.28800     0.00000  0.0
    108    116    117    118   5     0.00000    30.33400     0.00000  0.0
    108    116    117    128   5     0.00000    30.33400     0.00000  0.0
    115    116    117    118   5     0.00000    30.33400     0.00000  0.0
    115    116    117    128   5     0.00000    30.33400     0.00000  0.0
    116    117    118    119   5     0.00000    30.33400     0.00000  0.0
    116    117    118    129   5     0.00000    30.33400     0.00000  0.0
    128    117    118    119   5     0.00000    30.33400     0.00000  0.0
    128    117    118    129   5     0.00000    30.33400     0.00000  0.0
    117    118    119    120   5     0.00000    30.33400     0.00000  0.0
    117    118    119    130   5     0.00000    30.33400     0.00000  0.0
    129    118    119    120   5     0.00000    30.33400     0.00000  0.0
    129    118    119    130   5     0.00000    30.33400     0.00000  0.0
    118    119    120    115   5     0.00000    30.33400     0.00000  0.0
    118    119    120    131   5     0.00000    30.33400     0.00000  0.0
    130    119    120    115   5     0.00000    30.33400     0.00000  0.0
    130    119    120    131   5     0.00000    30.33400     0.00000  0.0
    107    132    133    134   5    -5.40573     4.88691     0.00000  0.0
    107    132    133    149   5     0.00000     0.00000     1.25520  0.0
    107    132    133    158   5     4.74884    -0.63178     1.67360  0.0
    147    132    133    134   5     0.00000     0.00000     1.25520  0.0
    147    132    133    149   5     0.00000     0.00000     1.25520  0.0
    147    132    133    158   5     0.00000     0.00000     1.25520  0.0
    148    132    133    134   5     0.00000     0.00000     1.25520  0.0
    148    132    133    149   5     0.00000     0.00000     1.25520  0.0
    148    132    133    158   5     0.00000     0.00000     1.25520  0.0
    132    133    134    135   5     9.22572     0.13807     3.27189  0.0
    132    133    134    142   5     9.22572     0.13807     3.27189  0.0
    149    133    134    135   5     0.00000     0.00000     0.00000  0.0
    149    133    134    142   5     0.00000     0.00000     0.00000  0.0
    158    133    134    135   5     9.22572     0.13807     3.27189  0.0
    158    133    134    142   5     9.22572     0.13807     3.27189  0.0
    132    133    158    159   5     4.74884    -0.63178     1.67360  0.0
    132    133    158    173   5     0.00000     0.00000     1.25520  0.0
    132    133    158    174   5     0.00000     0.00000     1.25520  0.0
    134    133    158    159   5    -5.40573     4.88691     0.00000  0.0
    134    133    158    173   5     0.00000     0.00000     1.25520  0.0
    134    133    158    174   5     0.00000     0.00000     1.25520  0.0
    149    133    158    159   5     0.00000     0.00000     1.25520  0.0
    149    133    158    173   5     0.00000     0.00000     1.25520  0.0
    149    133    158    174   5     0.00000     0.00000     1.25520  0.0
    133    134    135    136   5     0.00000    30.33400     0.00000  0.0
    133    134    135    140   5     0.00000    30.33400     0.00000  0.0
    142    134    135    136   5     0.00000    30.33400     0.00000  0.0
    142    134    135    140   5     0.00000    30.33400     0.00000  0.0
    133    134    142    141   5     0.00000    30.33400     0.00000  0.0
    133    134    142    143   5     0.00000    30.33400     0.00000  0.0
    135    134    142    141   5     0.00000    30.33400     0.00000  0.0
    135    134    142    143   5     0.00000    30.33400     0.00000  0.0
    134    135    136    137   5     0.00000    25.10400     0.00000  0.0
    134    135    136    141   5     0.00000    25.10400     0.00000  0.0
    140    135    136    137   5     0.00000    25.10400     0.00000  0.0
    140    135    136    141   5     0.00000    25.10400     0.00000  0.0
    134    135    140    139   5     0.00000    30.33400     0.00000  0.0
    134    135    140    153   5     0.00000    30.33400     0.00000  0.0
    136    135    140    139   5     0.00000    30.33400     0.00000  0.0
    136    135    140    153   5     0.00000    30.33400     0.00000  0.0
    135    136    137    138   5     0.00000    29.28800     0.00000  0.0
    135    136    137    150   5     0.00000    29.28800     0.00000  0.0
    141    136    137    138   5     0.00000    30.33400     0.00000  0.0
    141    136    137    150   5     0.00000    30.33400     0.00000  0.0
    135    136    141    142   5     0.00000    29.28800     0.00000  0.0
    135    136    141    146   5     0.00000    29.28800     0.00000  0.0
    137    136    141    142   5     0.00000    29.28800     0.00000  0.0
    137    136    141    146   5     0.00000    30.33400     0.00000  0.0
    136    137    138    139   5     0.00000    30.33400     0.00000  0.0
    136    137    138    151   5     0.00000    30.33400     0.00000  0.0
    150    137    138    139   5     0.00000    30.33400     0.00000  0.0
    150    137    138    151   5     0.00000    30.33400     0.00000  0.0
    137    138    139    140   5     0.00000    30.33400     0.00000  0.0
    137    138    139    152   5     0.00000    30.33400     0.00000  0.0
    151    138    139    140   5     0.00000    30.33400     0.00000  0.0
    151    138    139    152   5     0.00000    30.33400     0.00000  0.0
    138    139    140    135   5     0.00000    30.33400     0.00000  0.0
    138    139    140    153   5     0.00000    30.33400     0.00000  0.0
    152    139    140    135   5     0.00000    30.33400     0.00000  0.0
    152    139    140    153   5     0.00000    30.33400     0.00000  0.0
    136    141    142    134   5     0.00000    25.10400     0.00000  0.0
    136    141    142    143   5     0.00000    25.10400     0.00000  0.0
    146    141    142    134   5     0.00000    25.10400     0.00000  0.0
    146    141    142    143   5     0.00000    25.10400     0.00000  0.0
    136    141    146    145   5     0.00000    30.33400     0.00000  0.0
    136    141    146    157   5     0.00000    30.33400     0.00000  0.0
    142    141    146    145   5     0.00000    29.28800     0.00000  0.0
    142    141    146    157   5     0.00000    29.28800     0.00000  0.0
    134    142    143    144   5     0.00000    30.33400     0.00000  0.0
    134    142    143    154   5     0.00000    30.33400     0.00000  0.0
    141    142    143    144   5     0.00000    30.33400     0.00000  0.0
    141    142    143    154   5     0.00000    30.33400     0.00000  0.0
    142    143    144    145   5     0.00000    30.33400     0.00000  0.0
    142    143    144    155   5     0.00000    30.33400     0.00000  0.0
    154    143    144    145   5     0.00000    30.33400     0.00000  0.0
    154    143    144    155   5     0.00000    30.33400     0.00000  0.0
    143    144    145    146   5     0.00000    30.33400     0.00000  0.0
    143    144    145    156   5     0.00000    30.33400     0.00000  0.0
    155    144    145    146   5     0.00000    30.33400     0.00000  0.0
    155    144    145    156   5     0.00000    30.33400     0.00000  0.0
    144    145    146    141   5     0.00000    30.33400     0.00000  0.0
    144    145    146    157   5     0.00000    30.33400     0.00000  0.0
    156    145    146    141   5     0.00000    30.33400     0.00000  0.0
    156    145    146    157   5     0.00000    30.33400     0.00000  0.0
    133    158    159    160   5    -5.40573     4.88691     0.00000  0.0
    133    158    159    175   5     0.00000     0.00000     1.25520  0.0
    133    158    159    184   5     4.74884    -0.63178     1.67360  0.0
    173    158    159    160   5     0.00000     0.00000     1.25520  0.0
    173    158    159    175   5     0.00000     0.00000     1.25520  0.0
    173    158    159    184   5     0.00000     0.00000     1.25520  0.0
    174    158    159    160   5     0.00000     0.00000     1.25520  0.0
    174    158    159    175   5     0.00000     0.00000     1.25520  0.0
    174    158    159    184   5     0.00000     0.00000     1.25520  0.0
    158    159    160    161   5     9.22572     0.13807     3.27189  0.0
    158    159    160    168   5     9.22572     0.13807     3.27189  0.0
    175    159    160    161   5     0.00000     0.00000     0.00000  0.0
    175    159    160    168   5     0.00000     0.00000     0.00000  0.0
    184    159    160    161   5     9.22572     0.13807     3.27189  0.0
    184    159    160    168   5     9.22572     0.13807     3.27189  0.0
    158    159    184    185   5     4.74884    -0.63178     1.67360  0.0
    158    159    184    199   5     0.00000     0.00000     1.25520  0.0
    158    159    184    200   5     0.00000     0.00000     1.25520  0.0
    160    159    184    185   5    -5.40573     4.88691     0.00000  0.0
    160    159    184    199   5     0.00000     0.00000     1.25520  0.0
    160    159    184    200   5     0.00000     0.00000     1.25520  0.0
    175    159    184    185   5     0.00000     0.00000     1.25520  0.0
    175    159    184    199   5     0.00000     0.00000     1.25520  0.0
    175    159    184    200   5     0.00000     0.00000     1.25520  0.0
    159    160    161    162   5     0.00000    30.33400     0.00000  0.0
    159    160    161    166   5     0.00000    30.33400     0.00000  0.0
    168    160    161    162   5     0.00000    30.33400     0.00000  0.0
    168    160    161    166   5     0.00000    30.33400     0.00000  0.0
    159    160    168    167   5     0.00000    30.33400     0.00000  0.0
    159    160    168    169   5     0.00000    30.33400     0.00000  0.0
    161    160    168    167   5     0.00000    30.33400     0.00000  0.0
    161    160    168    169   5     0.00000    30.33400     0.00000  0.0
    160    161    162    163   5     0.00000    25.10400     0.00000  0.0
    160    161    162    167   5     0.00000    25.10400     0.00000  0.0
    166    161    162    163   5     0.00000    25.10400     0.00000  0.0
    166    161    162    167   5     0.00000    25.10400     0.00000  0.0
    160    161    166    165   5     0.00000    30.33400     0.00000  0.0
    160    161    166    179   5     0.00000    30.33400     0.00000  0.0
    162    161    166    165   5     0.00000    30.33400     0.00000  0.0
    162    161    166    179   5     0.00000    30.33400     0.00000  0.0
    161    162    163    164   5     0.00000    29.28800     0.00000  0.0
    161    162    163    176   5     0.00000    29.28800     0.00000  0.0
    167    162    163    164   5     0.00000    30.33400     0.00000  0.0
    167    162    163    176   5     0.00000    30.33400     0.00000  0.0
    161    162    167    168   5     0.00000    29.28800     0.00000  0.0
    161    162    167    172   5     0.00000    29.28800     0.00000  0.0
    163    162    167    168   5     0.00000    29.28800     0.00000  0.0
    163    162    167    172   5     0.00000    30.33400     0.00000  0.0
    162    163    164    165   5     0.00000    30.33400     0.00000  0.0
    162    163    164    177   5     0.00000    30.33400     0.00000  0.0
    176    163    164    165   5     0.00000    30.33400     0.00000  0.0
    176    163    164    177   5     0.00000    30.33400     0.00000  0.0
    163    164    165    166   5     0.00000    30.33400     0.00000  0.0
    163    164    165    178   5     0.00000    30.33400     0.00000  0.0
    177    164    165    166   5     0.00000    30.33400     0.00000  0.0
    177    164    165    178   5     0.00000    30.33400     0.00000  0.0
    164    165    166    161   5     0.00000    30.33400     0.00000  0.0
    164    165    166    179   5     0.00000    30.33400     0.00000  0.0
    178    165    166    161   5     0.00000    30.33400     0.00000  0.0
    178    165    166    179   5     0.00000    30.33400     0.00000  0.0
    162    167    168    160   5     0.00000    25.10400     0.00000  0.0
    162    167    168    169   5     0.00000    25.10400     0.00000  0.0
    172    167    168    160   5     0.00000    25.10400     0.00000  0.0
    172    167    168    169   5     0.00000    25.10400     0.00000  0.0
    162    167    172    171   5     0.00000    30.33400     0.00000  0.0
    162    167    172    183   5     0.00000    30.33400     0.00000  0.0
    168    167    172    171   5     0.00000    29.28800     0.00000  0.0
    168    167    172    183   5     0.00000    29.28800     0.00000  0.0
    160    168    169    170   5     0.00000    30.33400     0.00000  0.0
    160    168    169    180   5     0.00000    30.33400     0.00000  0.0
    167    168    169    170   5     0.00000    30.33400     0.00000  0.0
    167    168    169    180   5     0.00000    30.33400     0.00000  0.0
    168    169    170    171   5     0.00000    30.33400     0.00000  0.0
    168    169    170    181   5     0.00000    30.33400     0.00000  0.0
    180    169    170    171   5     0.00000    30.33400     0.00000  0.0
    180    169    170    181   5     0.00000    30.33400     0.00000  0.0
    169    170    171    172   5     0.00000    30.33400     0.00000  0.0
    169    170    171    182   5     0.00000    30.33400     0.00000  0.0
    181    170    171    172   5     0.00000    30.33400     0.00000  0.0
    181    170    171    182   5     0.00000    30.33400     0.00000  0.0
    170    171    172    167   5     0.00000    30.33400     0.00000  0.0
    170    171    172    183   5     0.00000    30.33400     0.00000  0.0
    182    171    172    167   5     0.00000    30.33400     0.00000  0.0
    182    171    172    183   5     0.00000    30.33400     0.00000  0.0
    159    184    185    186   5    -5.40573     4.88691     0.00000  0.0
    159    184    185    201   5     0.00000     0.00000     1.25520  0.0
    159    184    185    210   5     4.74884    -0.63178     1.67360  0.0
    199    184    185    186   5     0.00000     0.00000     1.25520  0.0
    199    184    185    201   5     0.00000     0.00000     1.25520  0.0
    199    184    185    210   5     0.00000     0.00000     1.25520  0.0
    200    184    185    186   5     0.00000     0.00000     1.25520  0.0
    200    184    185    201   5     0.00000     0.00000     1.25520  0.0
    200    184    185    210   5     0.00000     0.00000     1.25520  0.0
    184    185    186    187   5     9.22572     0.13807     3.27189  0.0
    184    185    186    194   5     9.22572     0.13807     3.27189  0.0
    201    185    186    187   5     0.00000     0.00000     0.00000  0.0
    201    185    186    194   5     0.00000     0.00000     0.00000  0.0
    210    185    186    187   5     9.22572     0.13807     3.27189  0.0
    210    185    186    194   5     9.22572     0.13807     3.27189  0.0
    184    185    210    211   5     4.74884    -0.63178     1.67360  0.0
    184    185    210    225   5     0.00000     0.00000     1.25520  0.0
    184    185    210    226   5     0.00000     0.00000     1.25520  0.0
    186    185    210    211   5    -5.40573     4.88691     0.00000  0.0
    186    185    210    225   5     0.00000     0.00000     1.25520  0.0
    186    185    210    226   5     0.00000     0.00000     1.25520  0.0
    201    185    210    211   5     0.00000     0.00000     1.25520  0.0
    201    185    210    225   5     0.00000     0.00000     1.25520  0.0
    201    185    210    226   5     0.00000     0.00000     1.25520  0.0
    185    186    187    188   5     0.00000    30.33400     0.00000  0.0
    185    186    187    192   5     0.00000    30.33400     0.00000  0.0
    194    186    187    188   5     0.00000    30.33400     0.00000  0.0
    194    186    187    192   5     0.00000    30.33400     0.00000  0.0
    185    186    194    193   5     0.00000    30.33400     0.00000  0.0
    185    186    194    195   5     0.00000    30.33400     0.00000  0.0
    187    186    194    193   5     0.00000    30.33400     0.00000  0.0
    187    186    194    195   5     0.00000    30.33400     0.00000  0.0
    186    187    188    189   5     0.00000    25.10400     0.00000  0.0
    186    187    188    193   5     0.00000    25.10400     0.00000  0.0
    192    187    188    189   5     0.00000    25.10400     0.00000  0.0
    192    187    188    193   5     0.00000    25.10400     0.00000  0.0
    186    187    192    191   5     0.00000    30.33400     0.00000  0.0
    186    187    192    205   5     0.00000    30.33400     0.00000  0.0
    188    187    192    191   5     0.00000    30.33400     0.00000  0.0
    188    187    192    205   5     0.00000    30.33400     0.00000  0.0
    187    188    189    190   5     0.00000    29.28800     0.00000  0.0
    187    188    189    202   5     0.00000    29.28800     0.00000  0.0
    193    188    189    190   5     0.00000    30.33400     0.00000  0.0
    193    188    189    202   5     0.00000    30.33400     0.00000  0.0
    187    188    193    194   5     0.00000    29.28800     0.00000  0.0
    187    188    193    198   5     0.00000    29.28800     0.00000  0.0
    189    188    193    194   5     0.00000    29.28800     0.00000  0.0
    189    188    193    198   5     0.00000    30.33400     0.00000  0.0
    188    189    190    191   5     0.00000    30.33400     0.00000  0.0
    188    189    190    203   5     0.00000    30.33400     0.00000  0.0
    202    189    190    191   5     0.00000    30.33400     0.00000  0.0
    202    189    190    203   5     0.00000    30.33400     0.00000  0.0
    189    190    191    192   5     0.00000    30.33400     0.00000  0.0
    189    190    191    204   5     0.00000    30.33400     0.00000  0.0
    203    190    191    192   5     0.00000    30.33400     0.00000  0.0
    203    190    191    204   5     0.00000    30.33400     0.00000  0.0
    190    191    192    187   5     0.00000    30.33400     0.00000  0.0
    190    191    192    205   5     0.00000    30.33400     0.00000  0.0
    204    191    192    187   5     0.00000    30.33400     0.00000  0.0
    204    191    192    205   5     0.00000    30.33400     0.00000  0.0
    188    193    194    186   5     0.00000    25.10400     0.00000  0.0
    188    193    194    195   5     0.00000    25.10400     0.00000  0.0
    198    193    194    186   5     0.00000    25.10400     0.00000  0.0
    198    193    194    195   5     0.00000    25.10400     0.00000  0.0
    188    193    198    197   5     0.00000    30.33400     0.00000  0.0
    188    193    198    209   5     0.00000    30.33400     0.00000  0.0
    194    193    198    197   5     0.00000    29.28800     0.00000  0.0
    194    193    198    209   5     0.00000    29.28800     0.00000  0.0
    186    194    195    196   5     0.00000    30.33400     0.00000  0.0
    186    194    195    206   5     0.00000    30.33400     0.00000  0.0
    193    194    195    196   5     0.00000    30.33400     0.00000  0.0
    193    194    195    206   5     0.00000    30.33400     0.00000  0.0
    194    195    196    197   5     0.00000    30.33400     0.00000  0.0
    194    195    196    207   5     0.00000    30.33400     0.00000  0.0
    206    195    196    197   5     0.00000    30.33400     0.00000  0.0
    206    195    196    207   5     0.00000    30.33400     0.00000  0.0
    195    196    197    198   5     0.00000    30.33400     0.00000  0.0
    195    196    197    208   5     0.00000    30.33400     0.00000  0.0
    207    196    197    198   5     0.00000    30.33400     0.00000  0.0
    207    196    197    208   5     0.00000    30.33400     0.00000  0.0
    196    197    198    193   5     0.00000    30.33400     0.00000  0.0
    196    197    198    209   5     0.00000    30.33400     0.00000  0.0
    208    197    198    193   5     0.00000    30.33400     0.00000  0.0
    208    197    198    209   5     0.00000    30.33400     0.00000  0.0
    185    210    211    212   5    -5.40573     4.88691     0.00000  0.0
    185    210    211    227   5     0.00000     0.00000     1.25520  0.0
    185    210    211    236   5     4.74884    -0.63178     1.67360  0.0
    225    210    211    212   5     0.00000     0.00000     1.25520  0.0
    225    210    211    227   5     0.00000     0.00000     1.25520  0.0
    225    210    211    236   5     0.00000     0.00000     1.25520  0.0
    226    210    211    212   5     0.00000     0.00000     1.25520  0.0
    226    210    211    227   5     0.00000     0.00000     1.25520  0.0
    226    210    211    236   5     0.00000     0.00000     1.25520  0.0
    210    211    212    213   5     9.22572     0.13807     3.27189  0.0
    210    211    212    220   5     9.22572     0.13807     3.27189  0.0
    227    211    212    213   5     0.00000     0.00000     0.00000  0.0
    227    211    212    220   5     0.00000     0.00000     0.00000  0.0
    236    211    212    213   5     9.22572     0.13807     3.27189  0.0
    236    211    212    220   5     9.22572     0.13807     3.27189  0.0
    210    211    236    237   5     4.74884    -0.63178     1.67360  0.0
    210    211    236    251   5     0.00000     0.00000     1.25520  0.0
    210    211    236    252   5     0.00000     0.00000     1.25520  0.0
    212    211    236    237   5    -5.40573     4.88691     0.00000  0.0
    212    211    236    251   5     0.00000     0.00000     1.25520  0.0
    212    211    236    252   5     0.00000     0.00000     1.25520  0.0
    227    211    236    237   5     0.00000     0.00000     1.25520  0.0
    227    211    236    251   5     0.00000     0.00000     1.25520  0.0
    227    211    236    252   5     0.00000     0.00000     1.25520  0.0
    211    212    213    214   5     0.00000    30.33400     0.00000  0.0
    211    212    213    218   5     0.00000    30.33400     0.00000  0.0
    220    212    213    214   5     0.00000    30.33400     0.00000  0.0
    220    212    213    218   5     0.00000    30.33400     0.00000  0.0
    211    212    220    219   5     0.00000    30.33400     0.00000  0.0
    211    212    220    221   5     0.00000    30.33400     0.00000  0.0
    213    212    220    219   5     0.00000    30.33400     0.00000  0.0
    213    212    220    221   5     0.00000    30.33400     0.00000  0.0
    212    213    214    215   5     0.00000    25.10400     0.00000  0.0
    212    213    214    219   5     0.00000    25.10400     0.00000  0.0
    218    213    214    215   5     0.00000    25.10400     0.00000  0.0
    218    213    214    219   5     0.00000    25.10400     0.00000  0.0
    212    213    218    217   5     0.00000    30.33400     0.00000  0.0
    212    213    218    231   5     0.00000    30.33400     0.00000  0.0
    214    213    218    217   5     0.00000    30.33400     0.00000  0.0
    214    213    218    231   5     0.00000    30.33400     0.00000  0.0
    213    214    215    216   5     0.00000    29.28800     0.00000  0.0
    213    214    215    228   5     0.00000    29.28800     0.00000  0.0
    219    214    215    216   5     0.00000    30.33400     0.00000  0.0
    219    214    215    228   5     0.00000    30.33400     0.00000  0.0
    213    214    219    220   5     0.00000    29.28800     0.00000  0.0
    213    214    219    224   5     0.00000    29.28800     0.00000  0.0
    215    214    219    220   5     0.00000    29.28800     0.00000  0.0
    215    214    219    224   5     0.00000    30.33400     0.00000  0.0
    214    215    216    217   5     0.00000    30.33400     0.00000  0.0
    214    215    216    229   5     0.00000    30.33400     0.00000  0.0
    228    215    216    217   5     0.00000    30.33400     0.00000  0.0
    228    215    216    229   5     0.00000    30.33400     0.00000  0.0
    215    216    217    218   5     0.00000    30.33400     0.00000  0.0
    215    216    217    230   5     0.00000    30.33400     0.00000  0.0
    229    216    217    218   5     0.00000    30.33400     0.00000  0.0
    229    216    217    230   5     0.00000    30.33400     0.00000  0.0
    216    217    218    213   5     0.00000    30.33400     0.00000  0.0
    216    217    218    231   5     0.00000    30.33400     0.00000  0.0
    230    217    218    213   5     0.00000    30.33400     0.00000  0.0
    230    217    218    231   5     0.00000    30.33400     0.00000  0.0
    214    219    220    212   5     0.00000    25.10400     0.00000  0.0
    214    219    220    221   5     0.00000    25.10400     0.00000  0.0
    224    219    220    212   5     0.00000    25.10400     0.00000  0.0
    224    219    220    221   5     0.00000    25.10400     0.00000  0.0
    214    219    224    223   5     0.00000    30.33400     0.00000  0.0
    214    219    224    235   5     0.00000    30.33400     0.00000  0.0
    220    219    224    223   5     0.00000    29.28800     0.00000  0.0
    220    219    224    235   5     0.00000    29.28800     0.00000  0.0
    212    220    221    222   5     0.00000    30.33400     0.00000  0.0
    212    220    221    232   5     0.00000    30.33400     0.00000  0.0
    219    220    221    222   5     0.00000    30.33400     0.00000  0.0
    219    220    221    232   5     0.00000    30.33400     0.00000  0.0
    220    221    222    223   5     0.00000    30.33400     0.00000  0.0
    220    221    222    233   5     0.00000    30.33400     0.00000  0.0
    232    221    222    223   5     0.00000    30.33400     0.00000  0.0
    232    221    222    233   5     0.00000    30.33400     0.00000  0.0
    221    222    223    224   5     0.00000    30.33400     0.00000  0.0
    221    222    223    234   5     0.00000    30.33400     0.00000  0.0
    233    222    223    224   5     0.00000    30.33400     0.00000  0.0
    233    222    223    234   5     0.00000    30.33400     0.00000  0.0
    222    223    224    219   5     0.00000    30.33400     0.00000  0.0
    222    223    224    235   5     0.00000    30.33400     0.00000  0.0
    234    223    224    219   5     0.00000    30.33400     0.00000  0.0
    234    223    224    235   5     0.00000    30.33400     0.00000  0.0
    211    236    237    238   5    -5.40573     4.88691     0.00000  0.0
    211    236    237    253   5     0.00000     0.00000     1.25520  0.0
    211    236    237    262   5     4.74884    -0.63178     1.67360  0.0
    251    236    237    238   5     0.00000     0.00000     1.25520  0.0
    251    236    237    253   5     0.00000     0.00000     1.25520  0.0
    251    236    237    262   5     0.00000     0.00000     1.25520  0.0
    252    236    237    238   5     0.00000     0.00000     1.25520  0.0
    252    236    237    253   5     0.00000     0.00000     1.25520  0.0
    252    236    237    262   5     0.00000     0.00000     1.25520  0.0
    236    237    238    239   5     9.22572     0.13807     3.27189  0.0
    236    237    238    246   5     9.22572     0.13807     3.27189  0.0
    253    237    238    239   5     0.00000     0.00000     0.00000  0.0
    253    237    238    246   5     0.00000     0.00000     0.00000  0.0
    262    237    238    239   5     9.22572     0.13807     3.27189  0.0
    262    237    238    246   5     9.22572     0.13807     3.27189  0.0
    236    237    262    263   5     4.74884    -0.63178     1.67360  0.0
    236    237    262    277   5     0.00000     0.00000     1.25520  0.0
    236    237    262    278   5     0.00000     0.00000     1.25520  0.0
    238    237    262    263   5    -5.40573     4.88691     0.00000  0.0
    238    237    262    277   5     0.00000     0.00000     1.25520  0.0
    238    237    262    278   5     0.00000     0.00000     1.25520  0.0
    253    237    262    263   5     0.00000     0.00000     1.25520  0.0
    253    237    262    277   5     0.00000     0.00000     1.25520  0.0
    253    237    262    278   5     0.00000     0.00000     1.25520  0.0
    237    238    239    240   5     0.00000    30.33400     0.00000  0.0
    237    238    239    244   5     0.00000    30.33400     0.00000  0.0
    246    238    239    240   5     0.00000    30.33400     0.00000  0.0
    246    238    239    244   5     0.00000    30.33400     0.00000  0.0
    237    238    246    245   5     0.00000    30.33400     0.00000  0.0
    237    238    246    247   5     0.00000    30.33400     0.00000  0.0
    239    238    246    245   5     0.00000    30.33400     0.00000  0.0
    239    238    246    247   5     0.00000    30.33400     0.00000  0.0
    238    239    240    241   5     0.00000    25.10400     0.00000  0.0
    238    239    240    245   5     0.00000    25.10400     0.00000  0.0
    244    239    240    241   5     0.00000    25.10400     0.00000  0.0
    244    239    240    245   5     0.00000    25.10400     0.00000  0.0
    238    239    244    243   5     0.00000    30.33400     0.00000  0.0
    238    239    244    257   5     0.00000    30.33400     0.00000  0.0
    240    239    244    243   5     0.00000    30.33400     0.00000  0.0
    240    239    244    257   5     0.00000    30.33400     0.00000  0.0
    239    240    241    242   5     0.00000    29.28800     0.00000  0.0
    239    240    241    254   5     0.00000    29.28800     0.00000  0.0
    245    240    241    242   5     0.00000    30.33400     0.00000  0.0
    245    240    241    254   5     0.00000    30.33400     0.00000  0.0
    239    240    245    246   5     0.00000    29.28800     0.00000  0.0
    239    240    245    250   5     0.00000    29.28800     0.00000  0.0
    241    240    245    246   5     0.00000    29.28800     0.00000  0.0
    241    240    245    250   5     0.00000    30.33400     0.00000  0.0
    240    241    242    243   5     0.00000    30.33400     0.00000  0.0
    240    241    242    255   5     0.00000    30.33400     0.00000  0.0
    254    241    242    243   5     0.00000    30.33400     0.00000  0.0
    254    241    242    255   5     0.00000    30.33400     0.00000  0.0
    241    242    243    244   5     0.00000    30.33400     0.00000  0.0
    241    242    243    256   5     0.00000    30.33400     0.00000  0.0
    255    242    243    244   5     0.00000    30.33400     0.00000  0.0
    255    242    243    256   5     0.00000    30.33400     0.00000  0.0
    242    243    244    239   5     0.00000    30.33400     0.00000  0.0
    242    243    244    257   5     0.00000    30.33400     0.00000  0.0
    256    243    244    239   5     0.00000    30.33400     0.00000  0.0
    256    243    244    257   5     0.00000    30.33400     0.00000  0.0
    240    245    246    238   5     0.00000    25.10400     0.00000  0.0
    240    245    246    247   5     0.00000    25.10400     0.00000  0.0
    250    245    246    238   5     0.00000    25.10400     0.00000  0.0
    250    245    246    247   5     0.00000    25.10400     0.00000  0.0
    240    245    250    249   5     0.00000    30.33400     0.00000  0.0
    240    245    250    261   5     0.00000    30.33400     0.00000  0.0
    246    245    250    249   5     0.00000    29.28800     0.00000  0.0
    246    245    250    261   5     0.00000    29.28800     0.00000  0.0
    238    246    247    248   5     0.00000    30.33400     0.00000  0.0
    238    246    247    258   5     0.00000    30.33400     0.00000  0.0
    245    246    247    248   5     0.00000    30.33400     0.00000  0.0
    245    246    247    258   5     0.00000    30.33400     0.00000  0.0
    246    247    248    249   5     0.00000    30.33400     0.00000  0.0
    246    247    248    259   5     0.00000    30.33400     0.00000  0.0
    258    247    248    249   5     0.00000    30.33400     0.00000  0.0
    258    247    248    259   5     0.00000    30.33400     0.00000  0.0
    247    248    249    250   5     0.00000    30.33400     0.00000  0.0
    247    248    249    260   5     0.00000    30.33400     0.00000  0.0
    259    248    249    250   5     0.00000    30.33400     0.00000  0.0
    259    248    249    260   5     0.00000    30.33400     0.00000  0.0
    248    249    250    245   5     0.00000    30.33400     0.00000  0.0
    248    249    250    261   5     0.00000    30.33400     0.00000  0.0
    260    249    250    245   5     0.00000    30.33400     0.00000  0.0
    260    249    250    261   5     0.00000    30.33400     0.00000  0.0
    237    262    263    264   5    -5.40573     4.88691     0.00000  0.0
    237    262    263    279   5     0.00000     0.00000     1.25520  0.0
    237    262    263    288   5     4.74884    -0.63178     1.67360  0.0
    277    262    263    264   5     0.00000     0.00000     1.25520  0.0
    277    262    263    279   5     0.00000     0.00000     1.25520  0.0
    277    262    263    288   5     0.00000     0.00000     1.25520  0.0
    278    262    263    264   5     0.00000     0.00000     1.25520  0.0
    278    262    263    279   5     0.00000     0.00000     1.25520  0.0
    278    262    263    288   5     0.00000     0.00000     1.25520  0.0
    262    263    264    265   5     9.22572     0.13807     3.27189  0.0
    262    263    264    272   5     9.22572     0.13807     3.27189  0.0
    279    263    264    265   5     0.00000     0.00000     0.00000  0.0
    279    263    264    272   5     0.00000     0.00000     0.00000  0.0
    288    263    264    265   5     9.22572     0.13807     3.27189  0.0
    288    263    264    272   5     9.22572     0.13807     3.27189  0.0
    262    263    288    289   5     4.74884    -0.63178     1.67360  0.0
    262    263    288    303   5     0.00000     0.00000     1.25520  0.0
    262    263    288    304   5     0.00000     0.00000     1.25520  0.0
    264    263    288    289   5    -5.40573     4.88691     0.00000  0.0
    264    263    288    303   5     0.00000     0.00000     1.25520  0.0
    264    263    288    304   5     0.00000     0.00000     1.25520  0.0
    279    263    288    289   5     0.00000     0.00000     1.25520  0.0
    279    263    288    303   5     0.00000     0.00000     1.25520  0.0
    279    263    288    304   5     0.00000     0.00000     1.25520  0.0
    263    264    265    266   5     0.00000    30.33400     0.00000  0.0
    263    264    265    270   5     0.00000    30.33400     0.00000  0.0
    272    264    265    266   5     0.00000    30.33400     0.00000  0.0
    272    264    265    270   5     0.00000    30.33400     0.00000  0.0
    263    264    272    271   5     0.00000    30.33400     0.00000  0.0
    263    264    272    273   5     0.00000    30.33400     0.00000  0.0
    265    264    272    271   5     0.00000    30.33400     0.00000  0.0
    265    264    272    273   5     0.00000    30.33400     0.00000  0.0
    264    265    266    267   5     0.00000    25.10400     0.00000  0.0
    264    265    266    271   5     0.00000    25.10400     0.00000  0.0
    270    265    266    267   5     0.00000    25.10400     0.00000  0.0
    270    265    266    271   5     0.00000    25.10400     0.00000  0.0
    264    265    270    269   5     0.00000    30.33400     0.00000  0.0
    264    265    270    283   5     0.00000    30.33400     0.00000  0.0
    266    265    270    269   5     0.00000    30.33400     0.00000  0.0
    266    265    270    283   5     0.00000    30.33400     0.00000  0.0
    265    266    267    268   5     0.00000    29.28800     0.00000  0.0
    265    266    267    280   5     0.00000    29.28800     0.00000  0.0
    271    266    267    268   5     0.00000    30.33400     0.00000  0.0
    271    266    267    280   5     0.00000    30.33400     0.00000  0.0
    265    266    271    272   5     0.00000    29.28800     0.00000  0.0
    265    266    271    276   5     0.00000    29.28800     0.00000  0.0
    267    266    271    272   5     0.00000    29.28800     0.00000  0.0
    267    266    271    276   5     0.00000    30.33400     0.00000  0.0
    266    267    268    269   5     0.00000    30.33400     0.00000  0.0
    266    267    268    281   5     0.00000    30.33400     0.00000  0.0
    280    267    268    269   5     0.00000    30.33400     0.00000  0.0
    280    267    268    281   5     0.00000    30.33400     0.00000  0.0
    267    268    269    270   5     0.00000    30.33400     0.00000  0.0
    267    268    269    282   5     0.00000    30.33400     0.00000  0.0
    281    268    269    270   5     0.00000    30.33400     0.00000  0.0
    281    268    269    282   5     0.00000    30.33400     0.00000  0.0
    268    269    270    265   5     0.00000    30.33400     0.00000  0.0
    268    269    270    283   5     0.00000    30.33400     0.00000  0.0
    282    269    270    265   5     0.00000    30.33400     0.00000  0.0
    282    269    270    283   5     0.00000    30.33400     0.00000  0.0
    266    271    272    264   5     0.00000    25.10400     0.00000  0.0
    266    271    272    273   5     0.00000    25.10400     0.00000  0.0
    276    271    272    264   5     0.00000    25.10400     0.00000  0.0
    276    271    272    273   5     0.00000    25.10400     0.00000  0.0
    266    271    276    275   5     0.00000    30.33400     0.00000  0.0
    266    271    276    287   5     0.00000    30.33400     0.00000  0.0
    272    271    276    275   5     0.00000    29.28800     0.00000  0.0
    272    271    276    287   5     0.00000    29.28800     0.00000  0.0
    264    272    273    274   5     0.00000    30.33400     0.00000  0.0
    264    272    273    284   5     0.00000    30.33400     0.00000  0.0
    271    272    273    274   5     0.00000    30.33400     0.00000  0.0
    271    272    273    284   5     0.00000    30.33400     0.00000  0.0
    272    273    274    275   5     0.00000    30.33400     0.00000  0.0
    272    273    274    285   5     0.00000    30.33400     0.00000  0.0
    284    273    274    275   5     0.00000    30.33400     0.00000  0.0
    284    273    274    285   5     0.00000    30.33400     0.00000  0.0
    273    274    275    276   5     0.00000    30.33400     0.00000  0.0
    273    274    275    286   5     0.00000    30.33400     0.00000  0.0
    285    274    275    276   5     0.00000    30.33400     0.00000  0.0
    285    274    275    286   5     0.00000    30.33400     0.00000  0.0
    274    275    276    271   5     0.00000    30.33400     0.00000  0.0
    274    275    276    287   5     0.00000    30.33400     0.00000  0.0
    286    275    276    271   5     0.00000    30.33400     0.00000  0.0
    286    275    276    287   5     0.00000    30.33400     0.00000  0.0
    263    288    289    290   5    -5.40573     4.88691     0.00000  0.0
    263    288    289    305   5     0.00000     0.00000     1.25520  0.0
    263    288    289    314   5     4.74884    -0.63178     1.67360  0.0
    303    288    289    290   5     0.00000     0.00000     1.25520  0.0
    303    288    289    305   5     0.00000     0.00000     1.25520  0.0
    303    288    289    314   5     0.00000     0.00000     1.25520  0.0
    304    288    289    290   5     0.00000     0.00000     1.25520  0.0
    304    288    289    305   5     0.00000     0.00000     1.25520  0.0
    304    288    289    314   5     0.00000     0.00000     1.25520  0.0
    288    289    290    291   5     9.22572     0.13807     3.27189  0.0
    288    289    290    298   5     9.22572     0.13807     3.27189  0.0
    305    289    290    291   5     0.00000     0.00000     0.00000  0.0
    305    289    290    298   5     0.00000     0.00000     0.00000  0.0
    314    289    290    291   5     9.22572     0.13807     3.27189  0.0
    314    289    290    298   5     9.22572     0.13807     3.27189  0.0
    288    289    314    315   5     4.74884    -0.63178     1.67360  0.0
    288    289    314    329   5     0.00000     0.00000     1.25520  0.0
    288    289    314    330   5     0.00000     0.00000     1.25520  0.0
    290    289    314    315   5    -5.40573     4.88691     0.00000  0.0
    290    289    314    329   5     0.00000     0.00000     1.25520  0.0
    290    289    314    330   5     0.00000     0.00000     1.25520  0.0
    305    289    314    315   5     0.00000     0.00000     1.25520  0.0
    305    289    314    329   5     0.00000     0.00000     1.25520  0.0
    305    289    314    330   5     0.00000     0.00000     1.25520  0.0
    289    290    291    292   5     0.00000    30.33400     0.00000  0.0
    289    290    291    296   5     0.00000    30.33400     0.00000  0.0
    298    290    291    292   5     0.00000    30.33400     0.00000  0.0
    298    290    291    296   5     0.00000    30.33400     0.00000  0.0
    289    290    298    297   5     0.00000    30.33400     0.00000  0.0
    289    290    298    299   5     0.00000    30.33400     0.00000  0.0
    291    290    298    297   5     0.00000    30.33400     0.00000  0.0
    291    290    298    299   5     0.00000    30.33400     0.00000  0.0
    290    291    292    293   5     0.00000    25.10400     0.00000  0.0
    290    291    292    297   5     0.00000    25.10400     0.00000  0.0
    296    291    292    293   5     0.00000    25.10400     0.00000  0.0
    296    291    292    297   5     0.00000    25.10400     0.00000  0.0
    290    291    296    295   5     0.00000    30.33400     0.00000  0.0
    290    291    296    309   5     0.00000    30.33400     0.00000  0.0
    292    291    296    295   5     0.00000    30.33400     0.00000  0.0
    292    291    296    309   5     0.00000    30.33400     0.00000  0.0
    291    292    293    294   5     0.00000    29.28800     0.00000  0.0
    291    292    293    306   5     0.00000    29.28800     0.00000  0.0
    297    292    293    294   5     0.00000    30.33400     0.00000  0.0
    297    292    293    306   5     0.00000    30.33400     0.00000  0.0
    291    292    297    298   5     0.00000    29.28800     0.00000  0.0
    291    292    297    302   5     0.00000    29.28800     0.00000  0.0
    293    292    297    298   5     0.00000    29.28800     0.00000  0.0
    293    292    297    302   5     0.00000    30.33400     0.00000  0.0
    292    293    294    295   5     0.00000    30.33400     0.00000  0.0
    292    293    294    307   5     0.00000    30.33400     0.00000  0.0
    306    293    294    295   5     0.00000    30.33400     0.00000  0.0
    306    293    294    307   5     0.00000    30.33400     0.00000  0.0
    293    294    295    296   5     0.00000    30.33400     0.00000  0.0
    293    294    295    308   5     0.00000    30.33400     0.00000  0.0
    307    294    295    296   5     0.00000    30.33400     0.00000  0.0
    307    294    295    308   5     0.00000    30.33400     0.00000  0.0
    294    295    296    291   5     0.00000    30.33400     0.00000  0.0
    294    295    296    309   5     0.00000    30.33400     0.00000  0.0
    308    295    296    291   5     0.00000    30.33400     0.00000  0.0
    308    295    296    309   5     0.00000    30.33400     0.00000  0.0
    292    297    298    290   5     0.00000    25.10400     0.00000  0.0
    292    297    298    299   5     0.00000    25.10400     0.00000  0.0
    302    297    298    290   5     0.00000    25.10400     0.00000  0.0
    302    297    298    299   5     0.00000    25.10400     0.00000  0.0
    292    297    302    301   5     0.00000    30.33400     0.00000  0.0
    292    297    302    313   5     0.00000    30.33400     0.00000  0.0
    298    297    302    301   5     0.00000    29.28800     0.00000  0.0
    298    297    302    313   5     0.00000    29.28800     0.00000  0.0
    290    298    299    300   5     0.00000    30.33400     0.00000  0.0
    290    298    299    310   5     0.00000    30.33400     0.00000  0.0
    297    298    299    300   5     0.00000    30.33400     0.00000  0.0
    297    298    299    310   5     0.00000    30.33400     0.00000  0.0
    298    299    300    301   5     0.00000    30.33400     0.00000  0.0
    298    299    300    311   5     0.00000    30.33400     0.00000  0.0
    310    299    300    301   5     0.00000    30.33400     0.00000  0.0
    310    299    300    311   5     0.00000    30.33400     0.00000  0.0
    299    300    301    302   5     0.00000    30.33400     0.00000  0.0
    299    300    301    312   5     0.00000    30.33400     0.00000  0.0
    311    300    301    302   5     0.00000    30.33400     0.00000  0.0
    311    300    301    312   5     0.00000    30.33400     0.00000  0.0
    300    301    302    297   5     0.00000    30.33400     0.00000  0.0
    300    301    302    313   5     0.00000    30.33400     0.00000  0.0
    312    301    302    297   5     0.00000    30.33400     0.00000  0.0
    312    301    302    313   5     0.00000    30.33400     0.00000  0.0
    289    314    315    316   5    -5.40573     4.88691     0.00000  0.0
    289    314    315    331   5     0.00000     0.00000     1.25520  0.0
    289    314    315    340   5     4.74884    -0.63178     1.67360  0.0
    329    314    315    316   5     0.00000     0.00000     1.25520  0.0
    329    314    315    331   5     0.00000     0.00000     1.25520  0.0
    329    314    315    340   5     0.00000     0.00000     1.25520  0.0
    330    314    315    316   5     0.00000     0.00000     1.25520  0.0
    330    314    315    331   5     0.00000     0.00000     1.25520  0.0
    330    314    315    340   5     0.00000     0.00000     1.25520  0.0
    314    315    316    317   5     9.22572     0.13807     3.27189  0.0
    314    315    316    324   5     9.22572     0.13807     3.27189  0.0
    331    315    316    317   5     0.00000     0.00000     0.00000  0.0
    331    315    316    324   5     0.00000     0.00000     0.00000  0.0
    340    315    316    317   5     9.22572     0.13807     3.27189  0.0
    340    315    316    324   5     9.22572     0.13807     3.27189  0.0
    314    315    340    341   5     4.74884    -0.63178     1.67360  0.0
    314    315    340    355   5     0.00000     0.00000     1.25520  0.0
    314    315    340    356   5     0.00000     0.00000     1.25520  0.0
    316    315    340    341   5    -5.40573     4.88691     0.00000  0.0
    316    315    340    355   5     0.00000     0.00000     1.25520  0.0
    316    315    340    356   5     0.00000     0.00000     1.25520  0.0
    331    315    340    341   5     0.00000     0.00000     1.25520  0.0
    331    315    340    355   5     0.00000     0.00000     1.25520  0.0
    331    315    340    356   5     0.00000     0.00000     1.25520  0.0
    315    316    317    318   5     0.00000    30.33400     0.00000  0.0
    315    316    317    322   5     0.00000    30.33400     0.00000  0.0
    324    316    317    318   5     0.00000    30.33400     0.00000  0.0
    324    316    317    322   5     0.00000    30.33400     0.00000  0.0
    315    316    324    323   5     0.00000    30.33400     0.00000  0.0
    315    316    324    325   5     0.00000    30.33400     0.00000  0.0
    317    316    324    323   5     0.00000    30.33400     0.00000  0.0
    317    316    324    325   5     0.00000    30.33400     0.00000  0.0
    316    317    318    319   5     0.00000    25.10400     0.00000  0.0
    316    317    318    323   5     0.00000    25.10400     0.00000  0.0
    322    317    318    319   5     0.00000    25.10400     0.00000  0.0
    322    317    318    323   5     0.00000    25.10400     0.00000  0.0
    316    317    322    321   5     0.00000    30.33400     0.00000  0.0
    316    317    322    335   5     0.00000    30.33400     0.00000  0.0
    318    317    322    321   5     0.00000    30.33400     0.00000  0.0
    318    317    322    335   5     0.00000    30.33400     0.00000  0.0
    317    318    319    320   5     0.00000    29.28800     0.00000  0.0
    317    318    319    332   5     0.00000    29.28800     0.00000  0.0
    323    318    319    320   5     0.00000    30.33400     0.00000  0.0
    323    318    319    332   5     0.00000    30.33400     0.00000  0.0
    317    318    323    324   5     0.00000    29.28800     0.00000  0.0
    317    318    323    328   5     0.00000    29.28800     0.00000  0.0
    319    318    323    324   5     0.00000    29.28800     0.00000  0.0
    319    318    323    328   5     0.00000    30.33400     0.00000  0.0
    318    319    320    321   5     0.00000    30.33400     0.00000  0.0
    318    319    320    333   5     0.00000    30.33400     0.00000  0.0
    332    319    320    321   5     0.00000    30.33400     0.00000  0.0
    332    319    320    333   5     0.00000    30.33400     0.00000  0.0
    319    320    321    322   5     0.00000    30.33400     0.00000  0.0
    319    320    321    334   5     0.00000    30.33400     0.00000  0.0
    333    320    321    322   5     0.00000    30.33400     0.00000  0.0
    333    320    321    334   5     0.00000    30.33400     0.00000  0.0
    320    321    322    317   5     0.00000    30.33400     0.00000  0.0
    320    321    322    335   5     0.00000    30.33400     0.00000  0.0
    334    321    322    317   5     0.00000    30.33400     0.00000  0.0
    334    321    322    335   5     0.00000    30.33400     0.00000  0.0
    318    323    324    316   5     0.00000    25.10400     0.00000  0.0
    318    323    324    325   5     0.00000    25.10400     0.00000  0.0
    328    323    324    316   5     0.00000    25.10400     0.00000  0.0
    328    323    324    325   5     0.00000    25.10400     0.00000  0.0
    318    323    328    327   5     0.00000    30.33400     0.00000  0.0
    318    323    328    339   5     0.00000    30.33400     0.00000  0.0
    324    323    328    327   5     0.00000    29.28800     0.00000  0.0
    324    323    328    339   5     0.00000    29.28800     0.00000  0.0
    316    324    325    326   5     0.00000    30.33400     0.00000  0.0
    316    324    325    336   5     0.00000    30.33400     0.00000  0.0
    323    324    325    326   5     0.00000    30.33400     0.00000  0.0
    323    324    325    336   5     0.00000    30.33400     0.00000  0.0
    324    325    326    327   5     0.00000    30.33400     0.00000  0.0
    324    325    326    337   5     0.00000    30.33400     0.00000  0.0
    336    325    326    327   5     0.00000    30.33400     0.00000  0.0
    336    325    326    337   5     0.00000    30.33400     0.00000  0.0
    325    326    327    328   5     0.00000    30.33400     0.00000  0.0
    325    326    327    338   5     0.00000    30.33400     0.00000  0.0
    337    326    327    328   5     0.00000    30.33400     0.00000  0.0
    337    326    327    338   5     0.00000    30.33400     0.00000  0.0
    326    327    328    323   5     0.00000    30.33400     0.00000  0.0
    326    327    328    339   5     0.00000    30.33400     0.00000  0.0
    338    327    328    323   5     0.00000    30.33400     0.00000  0.0
    338    327    328    339   5     0.00000    30.33400     0.00000  0.0
    315    340    341    342   5    -5.40573     4.88691     0.00000  0.0
    315    340    341    357   5     0.00000     0.00000     1.25520  0.0
    315    340    341    366   5     4.74884    -0.63178     1.67360  0.0
    355    340    341    342   5     0.00000     0.00000     1.25520  0.0
    355    340    341    357   5     0.00000     0.00000     1.25520  0.0
    355    340    341    366   5     0.00000     0.00000     1.25520  0.0
    356    340    341    342   5     0.00000     0.00000     1.25520  0.0
    356    340    341    357   5     0.00000     0.00000     1.25520  0.0
    356    340    341    366   5     0.00000     0.00000     1.25520  0.0
    340    341    342    343   5     9.22572     0.13807     3.27189  0.0
    340    341    342    350   5     9.22572     0.13807     3.27189  0.0
    357    341    342    343   5     0.00000     0.00000     0.00000  0.0
    357    341    342    350   5     0.00000     0.00000     0.00000  0.0
    366    341    342    343   5     9.22572     0.13807     3.27189  0.0
    366    341    342    350   5     9.22572     0.13807     3.27189  0.0
    340    341    366    367   5     4.74884    -0.63178     1.67360  0.0
    340    341    366    381   5     0.00000     0.00000     1.25520  0.0
    340    341    366    382   5     0.00000     0.00000     1.25520  0.0
    342    341    366    367   5    -5.40573     4.88691     0.00000  0.0
    342    341    366    381   5     0.00000     0.00000     1.25520  0.0
    342    341    366    382   5     0.00000     0.00000     1.25520  0.0
    357    341    366    367   5     0.00000     0.00000     1.25520  0.0
    357    341    366    381   5     0.00000     0.00000     1.25520  0.0
    357    341    366    382   5     0.00000     0.00000     1.25520  0.0
    341    342    343    344   5     0.00000    30.33400     0.00000  0.0
    341    342    343    348   5     0.00000    30.33400     0.00000  0.0
    350    342    343    344   5     0.00000    30.33400     0.00000  0.0
    350    342    343    348   5     0.00000    30.33400     0.00000  0.0
    341    342    350    349   5     0.00000    30.33400     0.00000  0.0
    341    342    350    351   5     0.00000    30.33400     0.00000  0.0
    343    342    350    349   5     0.00000    30.33400     0.00000  0.0
    343    342    350    351   5     0.00000    30.33400     0.00000  0.0
    342    343    344    345   5     0.00000    25.10400     0.00000  0.0
    342    343    344    349   5     0.00000    25.10400     0.00000  0.0
    348    343    344    345   5     0.00000    25.10400     0.00000  0.0
    348    343    344    349   5     0.00000    25.10400     0.00000  0.0
    342    343    348    347   5     0.00000    30.33400     0.00000  0.0
    342    343    348    361   5     0.00000    30.33400     0.00000  0.0
    344    343    348    347   5     0.00000    30.33400     0.00000  0.0
    344    343    348    361   5     0.00000    30.33400     0.00000  0.0
    343    344    345    346   5     0.00000    29.28800     0.00000  0.0
    343    344    345    358   5     0.00000    29.28800     0.00000  0.0
    349    344    345    346   5     0.00000    30.33400     0.00000  0.0
    349    344    345    358   5     0.00000    30.33400     0.00000  0.0
    343    344    349    350   5     0.00000    29.28800     0.00000  0.0
    343    344    349    354   5     0.00000    29.28800     0.00000  0.0
    345    344    349    350   5     0.00000    29.28800     0.00000  0.0
    345    344    349    354   5     0.00000    30.33400     0.00000  0.0
    344    345    346    347   5     0.00000    30.33400     0.00000  0.0
    344    345    346    359   5     0.00000    30.33400     0.00000  0.0
    358    345    346    347   5     0.00000    30.33400     0.00000  0.0
    358    345    346    359   5     0.00000    30.33400     0.00000  0.0
    345    346    347    348   5     0.00000    30.33400     0.00000  0.0
    345    346    347    360   5     0.00000    30.33400     0.00000  0.0
    359    346    347    348   5     0.00000    30.33400     0.00000  0.0
    359    346    347    360   5     0.00000    30.33400     0.00000  0.0
    346    347    348    343   5     0.00000    30.33400     0.00000  0.0
    346    347    348    361   5     0.00000    30.33400     0.00000  0.0
    360    347    348    343   5     0.00000    30.33400     0.00000  0.0
    360    347    348    361   5     0.00000    30.33400     0.00000  0.0
    344    349    350    342   5     0.00000    25.10400     0.00000  0.0
    344    349    350    351   5     0.00000    25.10400     0.00000  0.0
    354    349    350    342   5     0.00000    25.10400     0.00000  0.0
    354    349    350    351   5     0.00000    25.10400     0.00000  0.0
    344    349    354    353   5     0.00000    30.33400     0.00000  0.0
    344    349    354    365   5     0.00000    30.33400     0.00000  0.0
    350    349    354    353   5     0.00000    29.28800     0.00000  0.0
    350    349    354    365   5     0.00000    29.28800     0.00000  0.0
    342    350    351    352   5     0.00000    30.33400     0.00000  0.0
    342    350    351    362   5     0.00000    30.33400     0.00000  0.0
    349    350    351    352   5     0.00000    30.33400     0.00000  0.0
    349    350    351    362   5     0.00000    30.33400     0.00000  0.0
    350    351    352    353   5     0.00000    30.33400     0.00000  0.0
    350    351    352    363   5     0.00000    30.33400     0.00000  0.0
    362    351    352    353   5     0.00000    30.33400     0.00000  0.0
    362    351    352    363   5     0.00000    30.33400     0.00000  0.0
    351    352    353    354   5     0.00000    30.33400     0.00000  0.0
    351    352    353    364   5     0.00000    30.33400     0.00000  0.0
    363    352    353    354   5     0.00000    30.33400     0.00000  0.0
    363    352    353    364   5     0.00000    30.33400     0.00000  0.0
    352    353    354    349   5     0.00000    30.33400     0.00000  0.0
    352    353    354    365   5     0.00000    30.33400     0.00000  0.0
    364    353    354    349   5     0.00000    30.33400     0.00000  0.0
    364    353    354    365   5     0.00000    30.33400     0.00000  0.0
    341    366    367    368   5    -5.40573     4.88691     0.00000  0.0
    341    366    367    383   5     0.00000     0.00000     1.25520  0.0
    341    366    367    392   5     4.74884    -0.63178     1.67360  0.0
    381    366    367    368   5     0.00000     0.00000     1.25520  0.0
    381    366    367    383   5     0.00000     0.00000     1.25520  0.0
    381    366    367    392   5     0.00000     0.00000     1.25520  0.0
    382    366    367    368   5     0.00000     0.00000     1.25520  0.0
    382    366    367    383   5     0.00000     0.00000     1.25520  0.0
    382    366    367    392   5     0.00000     0.00000     1.25520  0.0
    366    367    368    369   5     9.22572     0.13807     3.27189  0.0
    366    367    368    376   5     9.22572     0.13807     3.27189  0.0
    383    367    368    369   5     0.00000     0.00000     0.00000  0.0
    383    367    368    376   5     0.00000     0.00000     0.00000  0.0
    392    367    368    369   5     9.22572     0.13807     3.27189  0.0
    392    367    368    376   5     9.22572     0.13807     3.27189  0.0
    366    367    392    393   5     4.74884    -0.63178     1.67360  0.0
    366    367    392    407   5     0.00000     0.00000     1.25520  0.0
    366    367    392    408   5     0.00000     0.00000     1.25520  0.0
    368    367    392    393   5    -5.40573     4.88691     0.00000  0.0
    368    367    392    407   5     0.00000     0.00000     1.25520  0.0
    368    367    392    408   5     0.00000     0.00000     1.25520  0.0
    383    367    392    393   5     0.00000     0.00000     1.25520  0.0
    383    367    392    407   5     0.00000     0.00000     1.25520  0.0
    383    367    392    408   5     0.00000     0.00000     1.25520  0.0
    367    368    369    370   5     0.00000    30.33400     0.00000  0.0
    367    368    369    374   5     0.00000    30.33400     0.00000  0.0
    376    368    369    370   5     0.00000    30.33400     0.00000  0.0
    376    368    369    374   5     0.00000    30.33400     0.00000  0.0
    367    368    376    375   5     0.00000    30.33400     0.00000  0.0
    367    368    376    377   5     0.00000    30.33400     0.00000  0.0
    369    368    376    375   5     0.00000    30.33400     0.00000  0.0
    369    368    376    377   5     0.00000    30.33400     0.00000  0.0
    368    369    370    371   5     0.00000    25.10400     0.00000  0.0
    368    369    370    375   5     0.00000    25.10400     0.00000  0.0
    374    369    370    371   5     0.00000    25.10400     0.00000  0.0
    374    369    370    375   5     0.00000    25.10400     0.00000  0.0
    368    369    374    373   5     0.00000    30.33400     0.00000  0.0
    368    369    374    387   5     0.00000    30.33400     0.00000  0.0
    370    369    374    373   5     0.00000    30.33400     0.00000  0.0
    370    369    374    387   5     0.00000    30.33400     0.00000  0.0
    369    370    371    372   5     0.00000    29.28800     0.00000  0.0
    369    370    371    384   5     0.00000    29.28800     0.00000  0.0
    375    370    371    372   5     0.00000    30.33400     0.00000  0.0
    375    370    371    384   5     0.00000    30.33400     0.00000  0.0
    369    370    375    376   5     0.00000    29.28800     0.00000  0.0
    369    370    375    380   5     0.00000    29.28800     0.00000  0.0
    371    370    375    376   5     0.00000    29.28800     0.00000  0.0
    371    370    375    380   5     0.00000    30.33400     0.00000  0.0
    370    371    372    373   5     0.00000    30.33400     0.00000  0.0
    370    371    372    385   5     0.00000    30.33400     0.00000  0.0
    384    371    372    373   5     0.00000    30.33400     0.00000  0.0
    384    371    372    385   5     0.00000    30.33400     0.00000  0.0
    371    372    373    374   5     0.00000    30.33400     0.00000  0.0
    371    372    373    386   5     0.00000    30.33400     0.00000  0.0
    385    372    373    374   5     0.00000    30.33400     0.00000  0.0
    385    372    373    386   5     0.00000    30.33400     0.00000  0.0
    372    373    374    369   5     0.00000    30.33400     0.00000  0.0
    372    373    374    387   5     0.00000    30.33400     0.00000  0.0
    386    373    374    369   5     0.00000    30.33400     0.00000  0.0
    386    373    374    387   5     0.00000    30.33400     0.00000  0.0
    370    375    376    368   5     0.00000    25.10400     0.00000  0.0
    370    375    376    377   5     0.00000    25.10400     0.00000  0.0
    380    375    376    368   5     0.00000    25.10400     0.00000  0.0
    380    375    376    377   5     0.00000    25.10400     0.00000  0.0
    370    375    380    379   5     0.00000    30.33400     0.00000  0.0
    370    375    380    391   5     0.00000    30.33400     0.00000  0.0
    376    375    380    379   5     0.00000    29.28800     0.00000  0.0
    376    375    380    391   5     0.00000    29.28800     0.00000  0.0
    368    376    377    378   5     0.00000    30.33400     0.00000  0.0
    368    376    377    388   5     0.00000    30.33400     0.00000  0.0
    375    376    377    378   5     0.00000    30.33400     0.00000  0.0
    375    376    377    388   5     0.00000    30.33400     0.00000  0.0
    376    377    378    379   5     0.00000    30.33400     0.00000  0.0
    376    377    378    389   5     0.00000    30.33400     0.00000  0.0
    388    377    378    379   5     0.00000    30.33400     0.00000  0.0
    388    377    378    389   5     0.00000    30.33400     0.00000  0.0
    377    378    379    380   5     0.00000    30.33400     0.00000  0.0
    377    378    379    390   5     0.00000    30.33400     0.00000  0.0
    389    378    379    380   5     0.00000    30.33400     0.00000  0.0
    389    378    379    390   5     0.00000    30.33400     0.00000  0.0
    378    379    380    375   5     0.00000    30.33400     0.00000  0.0
    378    379    380    391   5     0.00000    30.33400     0.00000  0.0
    390    379    380    375   5     0.00000    30.33400     0.00000  0.0
    390    379    380    391   5     0.00000    30.33400     0.00000  0.0
    367    392    393    394   5    -5.40573     4.88691     0.00000  0.0
    367    392    393    409   5     0.00000     0.00000     1.25520  0.0
    367    392    393    418   5     4.74884    -0.63178     1.67360  0.0
    407    392    393    394   5     0.00000     0.00000     1.25520  0.0
    407    392    393    409   5     0.00000     0.00000     1.25520  0.0
    407    392    393    418   5     0.00000     0.00000     1.25520  0.0
    408    392    393    394   5     0.00000     0.00000     1.25520  0.0
    408    392    393    409   5     0.00000     0.00000     1.25520  0.0
    408    392    393    418   5     0.00000     0.00000     1.25520  0.0
    392    393    394    395   5     9.22572     0.13807     3.27189  0.0
    392    393    394    402   5     9.22572     0.13807     3.27189  0.0
    409    393    394    395   5     0.00000     0.00000     0.00000  0.0
    409    393    394    402   5     0.00000     0.00000     0.00000  0.0
    418    393    394    395   5     9.22572     0.13807     3.27189  0.0
    418    393    394    402   5     9.22572     0.13807     3.27189  0.0
    392    393    418    419   5     4.74884    -0.63178     1.67360  0.0
    392    393    418    433   5     0.00000     0.00000     1.25520  0.0
    392    393    418    434   5     0.00000     0.00000     1.25520  0.0
    394    393    418    419   5    -5.40573     4.88691     0.00000  0.0
    394    393    418    433   5     0.00000     0.00000     1.25520  0.0
    394    393    418    434   5     0.00000     0.00000     1.25520  0.0
    409    393    418    419   5     0.00000     0.00000     1.25520  0.0
    409    393    418    433   5     0.00000     0.00000     1.25520  0.0
    409    393    418    434   5     0.00000     0.00000     1.25520  0.0
    393    394    395    396   5     0.00000    30.33400     0.00000  0.0
    393    394    395    400   5     0.00000    30.33400     0.00000  0.0
    402    394    395    396   5     0.00000    30.33400     0.00000  0.0
    402    394    395    400   5     0.00000    30.33400     0.00000  0.0
    393    394    402    401   5     0.00000    30.33400     0.00000  0.0
    393    394    402    403   5     0.00000    30.33400     0.00000  0.0
    395    394    402    401   5     0.00000    30.33400     0.00000  0.0
    395    394    402    403   5     0.00000    30.33400     0.00000  0.0
    394    395    396    397   5     0.00000    25.10400     0.00000  0.0
    394    395    396    401   5     0.00000    25.10400     0.00000  0.0
    400    395    396    397   5     0.00000    25.10400     0.00000  0.0
    400    395    396    401   5     0.00000    25.10400     0.00000  0.0
    394    395    400    399   5     0.00000    30.33400     0.00000  0.0
    394    395    400    413   5     0.00000    30.33400     0.00000  0.0
    396    395    400    399   5     0.00000    30.33400     0.00000  0.0
    396    395    400    413   5     0.00000    30.33400     0.00000  0.0
    395    396    397    398   5     0.00000    29.28800     0.00000  0.0
    395    396    397    410   5     0.00000    29.28800     0.00000  0.0
    401    396    397    398   5     0.00000    30.33400     0.00000  0.0
    401    396    397    410   5     0.00000    30.33400     0.00000  0.0
    395    396    401    402   5     0.00000    29.28800     0.00000  0.0
    395    396    401    406   5     0.00000    29.28800     0.00000  0.0
    397    396    401    402   5     0.00000    29.28800     0.00000  0.0
    397    396    401    406   5     0.00000    30.33400     0.00000  0.0
    396    397    398    399   5     0.00000    30.33400     0.00000  0.0
    396    397    398    411   5     0.00000    30.33400     0.00000  0.0
    410    397    398    399   5     0.00000    30.33400     0.00000  0.0
    410    397    398    411   5     0.00000    30.33400     0.00000  0.0
    397    398    399    400   5     0.00000    30.33400     0.00000  0.0
    397    398    399    412   5     0.00000    30.33400     0.00000  0.0
    411    398    399    400   5     0.00000    30.33400     0.00000  0.0
    411    398    399    412   5     0.00000    30.33400     0.00000  0.0
    398    399    400    395   5     0.00000    30.33400     0.00000  0.0
    398    399    400    413   5     0.00000    30.33400     0.00000  0.0
    412    399    400    395   5     0.00000    30.33400     0.00000  0.0
    412    399    400    413   5     0.00000    30.33400     0.00000  0.0
    396    401    402    394   5     0.00000    25.10400     0.00000  0.0
    396    401    402    403   5     0.00000    25.10400     0.00000  0.0
    406    401    402    394   5     0.00000    25.10400     0.00000  0.0
    406    401    402    403   5     0.00000    25.10400     0.00000  0.0
    396    401    406    405   5     0.00000    30.33400     0.00000  0.0
    396    401    406    417   5     0.00000    30.33400     0.00000  0.0
    402    401    406    405   5     0.00000    29.28800     0.00000  0.0
    402    401    406    417   5     0.00000    29.28800     0.00000  0.0
    394    402    403    404   5     0.00000    30.33400     0.00000  0.0
    394    402    403    414   5     0.00000    30.33400     0.00000  0.0
    401    402    403    404   5     0.00000    30.33400     0.00000  0.0
    401    402    403    414   5     0.00000    30.33400     0.00000  0.0
    402    403    404    405   5     0.00000    30.33400     0.00000  0.0
    402    403    404    415   5     0.00000    30.33400     0.00000  0.0
    414    403    404    405   5     0.00000    30.33400     0.00000  0.0
    414    403    404    415   5     0.00000    30.33400     0.00000  0.0
    403    404    405    406   5     0.00000    30.33400     0.00000  0.0
    403    404    405    416   5     0.00000    30.33400     0.00000  0.0
    415    404    405    406   5     0.00000    30.33400     0.00000  0.0
    415    404    405    416   5     0.00000    30.33400     0.00000  0.0
    404    405    406    401   5     0.00000    30.33400     0.00000  0.0
    404    405    406    417   5     0.00000    30.33400     0.00000  0.0
    416    405    406    401   5     0.00000    30.33400     0.00000  0.0
    416    405    406    417   5     0.00000    30.33400     0.00000  0.0
    393    418    419    420   5    -5.40573     4.88691     0.00000  0.0
    393    418    419    435   5     0.00000     0.00000     1.25520  0.0
    393    418    419    444   5     4.74884    -0.63178     1.67360  0.0
    433    418    419    420   5     0.00000     0.00000     1.25520  0.0
    433    418    419    435   5     0.00000     0.00000     1.25520  0.0
    433    418    419    444   5     0.00000     0.00000     1.25520  0.0
    434    418    419    420   5     0.00000     0.00000     1.25520  0.0
    434    418    419    435   5     0.00000     0.00000     1.25520  0.0
    434    418    419    444   5     0.00000     0.00000     1.25520  0.0
    418    419    420    421   5     9.22572     0.13807     3.27189  0.0
    418    419    420    428   5     9.22572     0.13807     3.27189  0.0
    435    419    420    421   5     0.00000     0.00000     0.00000  0.0
    435    419    420    428   5     0.00000     0.00000     0.00000  0.0
    444    419    420    421   5     9.22572     0.13807     3.27189  0.0
    444    419    420    428   5     9.22572     0.13807     3.27189  0.0
    418    419    444    445   5     4.74884    -0.63178     1.67360  0.0
    418    419    444    459   5     0.00000     0.00000     1.25520  0.0
    418    419    444    460   5     0.00000     0.00000     1.25520  0.0
    420    419    444    445   5    -5.40573     4.88691     0.00000  0.0
    420    419    444    459   5     0.00000     0.00000     1.25520  0.0
    420    419    444    460   5     0.00000     0.00000     1.25520  0.0
    435    419    444    445   5     0.00000     0.00000     1.25520  0.0
    435    419    444    459   5     0.00000     0.00000     1.25520  0.0
    435    419    444    460   5     0.00000     0.00000     1.25520  0.0
    419    420    421    422   5     0.00000    30.33400     0.00000  0.0
    419    420    421    426   5     0.00000    30.33400     0.00000  0.0
    428    420    421    422   5     0.00000    30.33400     0.00000  0.0
    428    420    421    426   5     0.00000    30.33400     0.00000  0.0
    419    420    428    427   5     0.00000    30.33400     0.00000  0.0
    419    420    428    429   5     0.00000    30.33400     0.00000  0.0
    421    420    428    427   5     0.00000    30.33400     0.00000  0.0
    421    420    428    429   5     0.00000    30.33400     0.00000  0.0
    420    421    422    423   5     0.00000    25.10400     0.00000  0.0
    420    421    422    427   5     0.00000    25.10400     0.00000  0.0
    426    421    422    423   5     0.00000    25.10400     0.00000  0.0
    426    421    422    427   5     0.00000    25.10400     0.00000  0.0
    420    421    426    425   5     0.00000    30.33400     0.00000  0.0
    420    421    426    439   5     0.00000    30.33400     0.00000  0.0
    422    421    426    425   5     0.00000    30.33400     0.00000  0.0
    422    421    426    439   5     0.00000    30.33400     0.00000  0.0
    421    422    423    424   5     0.00000    29.28800     0.00000  0.0
    421    422    423    436   5     0.00000    29.28800     0.00000  0.0
    427    422    423    424   5     0.00000    30.33400     0.00000  0.0
    427    422    423    436   5     0.00000    30.33400     0.00000  0.0
    421    422    427    428   5     0.00000    29.28800     0.00000  0.0
    421    422    427    432   5     0.00000    29.28800     0.00000  0.0
    423    422    427    428   5     0.00000    29.28800     0.00000  0.0
    423    422    427    432   5     0.00000    30.33400     0.00000  0.0
    422    423    424    425   5     0.00000    30.33400     0.00000  0.0
    422    423    424    437   5     0.00000    30.33400     0.00000  0.0
    436    423    424    425   5     0.00000    30.33400     0.00000  0.0
    436    423    424    437   5     0.00000    30.33400     0.00000  0.0
    423    424    425    426   5     0.00000    30.33400     0.00000  0.0
    423    424    425    438   5     0.00000    30.33400     0.00000  0.0
    437    424    425    426   5     0.00000    30.33400     0.00000  0.0
    437    424    425    438   5     0.00000    30.33400     0.00000  0.0
    424    425    426    421   5     0.00000    30.33400     0.00000  0.0
    424    425    426    439   5     0.00000    30.33400     0.00000  0.0
    438    425    426    421   5     0.00000    30.33400     0.00000  0.0
    438    425    426    439   5     0.00000    30.33400     0.00000  0.0
    422    427    428    420   5     0.00000    25.10400     0.00000  0.0
    422    427    428    429   5     0.00000    25.10400     0.00000  0.0
    432    427    428    420   5     0.00000    25.10400     0.00000  0.0
    432    427    428    429   5     0.00000    25.10400     0.00000  0.0
    422    427    432    431   5     0.00000    30.33400     0.00000  0.0
    422    427    432    443   5     0.00000    30.33400     0.00000  0.0
    428    427    432    431   5     0.00000    29.28800     0.00000  0.0
    428    427    432    443   5     0.00000    29.28800     0.00000  0.0
    420    428    429    430   5     0.00000    30.33400     0.00000  0.0
    420    428    429    440   5     0.00000    30.33400     0.00000  0.0
    427    428    429    430   5     0.00000    30.33400     0.00000  0.0
    427    428    429    440   5     0.00000    30.33400     0.00000  0.0
    428    429    430    431   5     0.00000    30.33400     0.00000  0.0
    428    429    430    441   5     0.00000    30.33400     0.00000  0.0
    440    429    430    431   5     0.00000    30.33400     0.00000  0.0
    440    429    430    441   5     0.00000    30.33400     0.00000  0.0
    429    430    431    432   5     0.00000    30.33400     0.00000  0.0
    429    430    431    442   5     0.00000    30.33400     0.00000  0.0
    441    430    431    432   5     0.00000    30.33400     0.00000  0.0
    441    430    431    442   5     0.00000    30.33400     0.00000  0.0
    430    431    432    427   5     0.00000    30.33400     0.00000  0.0
    430    431    432    443   5     0.00000    30.33400     0.00000  0.0
    442    431    432    427   5     0.00000    30.33400     0.00000  0.0
    442    431    432    443   5     0.00000    30.33400     0.00000  0.0
    419    444    445    446   5    -5.40573     4.88691     0.00000  0.0
    419    444    445    461   5     0.00000     0.00000     1.25520  0.0
    419    444    445    470   5     4.74884    -0.63178     1.67360  0.0
    459    444    445    446   5     0.00000     0.00000     1.25520  0.0
    459    444    445    461   5     0.00000     0.00000     1.25520  0.0
    459    444    445    470   5     0.00000     0.00000     1.25520  0.0
    460    444    445    446   5     0.00000     0.00000     1.25520  0.0
    460    444    445    461   5     0.00000     0.00000     1.25520  0.0
    460    444    445    470   5     0.00000     0.00000     1.25520  0.0
    444    445    446    447   5     9.22572     0.13807     3.27189  0.0
    444    445    446    454   5     9.22572     0.13807     3.27189  0.0
    461    445    446    447   5     0.00000     0.00000     0.00000  0.0
    461    445    446    454   5     0.00000     0.00000     0.00000  0.0
    470    445    446    447   5     9.22572     0.13807     3.27189  0.0
    470    445    446    454   5     9.22572     0.13807     3.27189  0.0
    444    445    470    471   5     4.74884    -0.63178     1.67360  0.0
    444    445    470    485   5     0.00000     0.00000     1.25520  0.0
    444    445    470    486   5     0.00000     0.00000     1.25520  0.0
    446    445    470    471   5    -5.40573     4.88691     0.00000  0.0
    446    445    470    485   5     0.00000     0.00000     1.25520  0.0
    446    445    470    486   5     0.00000     0.00000     1.25520  0.0
    461    445    470    471   5     0.00000     0.00000     1.25520  0.0
    461    445    470    485   5     0.00000     0.00000     1.25520  0.0
    461    445    470    486   5     0.00000     0.00000     1.25520  0.0
    445    446    447    448   5     0.00000    30.33400     0.00000  0.0
    445    446    447    452   5     0.00000    30.33400     0.00000  0.0
    454    446    447    448   5     0.00000    30.33400     0.00000  0.0
    454    446    447    452   5     0.00000    30.33400     0.00000  0.0
    445    446    454    453   5     0.00000    30.33400     0.00000  0.0
    445    446    454    455   5     0.00000    30.33400     0.00000  0.0
    447    446    454    453   5     0.00000    30.33400     0.00000  0.0
    447    446    454    455   5     0.00000    30.33400     0.00000  0.0
    446    447    448    449   5     0.00000    25.10400     0.00000  0.0
    446    447    448    453   5     0.00000    25.10400     0.00000  0.0
    452    447    448    449   5     0.00000    25.10400     0.00000  0.0
    452    447    448    453   5     0.00000    25.10400     0.00000  0.0
    446    447    452    451   5     0.00000    30.33400     0.00000  0.0
    446    447    452    465   5     0.00000    30.33400     0.00000  0.0
    448    447    452    451   5     0.00000    30.33400     0.00000  0.0
    448    447    452    465   5     0.00000    30.33400     0.00000  0.0
    447    448    449    450   5     0.00000    29.28800     0.00000  0.0
    447    448    449    462   5     0.00000    29.28800     0.00000  0.0
    453    448    449    450   5     0.00000    30.33400     0.00000  0.0
    453    448    449    462   5     0.00000    30.33400     0.00000  0.0
    447    448    453    454   5     0.00000    29.28800     0.00000  0.0
    447    448    453    458   5     0.00000    29.28800     0.00000  0.0
    449    448    453    454   5     0.00000    29.28800     0.00000  0.0
    449    448    453    458   5     0.00000    30.33400     0.00000  0.0
    448    449    450    451   5     0.00000    30.33400     0.00000  0.0
    448    449    450    463   5     0.00000    30.33400     0.00000  0.0
    462    449    450    451   5     0.00000    30.33400     0.00000  0.0
    462    449    450    463   5     0.00000    30.33400     0.00000  0.0
    449    450    451    452   5     0.00000    30.33400     0.00000  0.0
    449    450    451    464   5     0.00000    30.33400     0.00000  0.0
    463    450    451    452   5     0.00000    30.33400     0.00000  0.0
    463    450    451    464   5     0.00000    30.33400     0.00000  0.0
    450    451    452    447   5     0.00000    30.33400     0.00000  0.0
    450    451    452    465   5     0.00000    30.33400     0.00000  0.0
    464    451    452    447   5     0.00000    30.33400     0.00000  0.0
    464    451    452    465   5     0.00000    30.33400     0.00000  0.0
    448    453    454    446   5     0.00000    25.10400     0.00000  0.0
    448    453    454    455   5     0.00000    25.10400     0.00000  0.0
    458    453    454    446   5     0.00000    25.10400     0.00000  0.0
    458    453    454    455   5     0.00000    25.10400     0.00000  0.0
    448    453    458    457   5     0.00000    30.33400     0.00000  0.0
    448    453    458    469   5     0.00000    30.33400     0.00000  0.0
    454    453    458    457   5     0.00000    29.28800     0.00000  0.0
    454    453    458    469   5     0.00000    29.28800     0.00000  0.0
    446    454    455    456   5     0.00000    30.33400     0.00000  0.0
    446    454    455    466   5     0.00000    30.33400     0.00000  0.0
    453    454    455    456   5     0.00000    30.33400     0.00000  0.0
    453    454    455    466   5     0.00000    30.33400     0.00000  0.0
    454    455    456    457   5     0.00000    30.33400     0.00000  0.0
    454    455    456    467   5     0.00000    30.33400     0.00000  0.0
    466    455    456    457   5     0.00000    30.33400     0.00000  0.0
    466    455    456    467   5     0.00000    30.33400     0.00000  0.0
    455    456    457    458   5     0.00000    30.33400     0.00000  0.0
    455    456    457    468   5     0.00000    30.33400     0.00000  0.0
    467    456    457    458   5     0.00000    30.33400     0.00000  0.0
    467    456    457    468   5     0.00000    30.33400     0.00000  0.0
    456    457    458    453   5     0.00000    30.33400     0.00000  0.0
    456    457    458    469   5     0.00000    30.33400     0.00000  0.0
    468    457    458    453   5     0.00000    30.33400     0.00000  0.0
    468    457    458    469   5     0.00000    30.33400     0.00000  0.0
    445    470    471    472   5    -5.40573     4.88691     0.00000  0.0
    445    470    471    487   5     0.00000     0.00000     1.25520  0.0
    445    470    471    496   5     4.74884    -0.63178     1.67360  0.0
    485    470    471    472   5     0.00000     0.00000     1.25520  0.0
    485    470    471    487   5     0.00000     0.00000     1.25520  0.0
    485    470    471    496   5     0.00000     0.00000     1.25520  0.0
    486    470    471    472   5     0.00000     0.00000     1.25520  0.0
    486    470    471    487   5     0.00000     0.00000     1.25520  0.0
    486    470    471    496   5     0.00000     0.00000     1.25520  0.0
    470    471    472    473   5     9.22572     0.13807     3.27189  0.0
    470    471    472    480   5     9.22572     0.13807     3.27189  0.0
    487    471    472    473   5     0.00000     0.00000     0.00000  0.0
    487    471    472    480   5     0.00000     0.00000     0.00000  0.0
    496    471    472    473   5     9.22572     0.13807     3.27189  0.0
    496    471    472    480   5     9.22572     0.13807     3.27189  0.0
    470    471    496    497   5     4.74884    -0.63178     1.67360  0.0
    470    471    496    511   5     0.00000     0.00000     1.25520  0.0
    470    471    496    512   5     0.00000     0.00000     1.25520  0.0
    472    471    496    497   5    -5.40573     4.88691     0.00000  0.0
    472    471    496    511   5     0.00000     0.00000     1.25520  0.0
    472    471    496    512   5     0.00000     0.00000     1.25520  0.0
    487    471    496    497   5     0.00000     0.00000     1.25520  0.0
    487    471    496    511   5     0.00000     0.00000     1.25520  0.0
    487    471    496    512   5     0.00000     0.00000     1.25520  0.0
    471    472    473    474   5     0.00000    30.33400     0.00000  0.0
    471    472    473    478   5     0.00000    30.33400     0.00000  0.0
    480    472    473    474   5     0.00000    30.33400     0.00000  0.0
    480    472    473    478   5     0.00000    30.33400     0.00000  0.0
    471    472    480    479   5     0.00000    30.33400     0.00000  0.0
    471    472    480    481   5     0.00000    30.33400     0.00000  0.0
    473    472    480    479   5     0.00000    30.33400     0.00000  0.0
    473    472    480    481   5     0.00000    30.33400     0.00000  0.0
    472    473    474    475   5     0.00000    25.10400     0.00000  0.0
    472    473    474    479   5     0.00000    25.10400     0.00000  0.0
    478    473    474    475   5     0.00000    25.10400     0.00000  0.0
    478    473    474    479   5     0.00000    25.10400     0.00000  0.0
    472    473    478    477   5     0.00000    30.33400     0.00000  0.0
    472    473    478    491   5     0.00000    30.33400     0.00000  0.0
    474    473    478    477   5     0.00000    30.33400     0.00000  0.0
    474    473    478    491   5     0.00000    30.33400     0.00000  0.0
    473    474    475    476   5     0.00000    29.28800     0.00000  0.0
    473    474    475    488   5     0.00000    29.28800     0.00000  0.0
    479    474    475    476   5     0.00000    30.33400     0.00000  0.0
    479    474    475    488   5     0.00000    30.33400     0.00000  0.0
    473    474    479    480   5     0.00000    29.28800     0.00000  0.0
    473    474    479    484   5     0.00000    29.28800     0.00000  0.0
    475    474    479    480   5     0.00000    29.28800     0.00000  0.0
    475    474    479    484   5     0.00000    30.33400     0.00000  0.0
    474    475    476    477   5     0.00000    30.33400     0.00000  0.0
    474    475    476    489   5     0.00000    30.33400     0.00000  0.0
    488    475    476    477   5     0.00000    30.33400     0.00000  0.0
    488    475    476    489   5     0.00000    30.33400     0.00000  0.0
    475    476    477    478   5     0.00000    30.33400     0.00000  0.0
    475    476    477    490   5     0.00000    30.33400     0.00000  0.0
    489    476    477    478   5     0.00000    30.33400     0.00000  0.0
    489    476    477    490   5     0.00000    30.33400     0.00000  0.0
    476    477    478    473   5     0.00000    30.33400     0.00000  0.0
    476    477    478    491   5     0.00000    30.33400     0.00000  0.0
    490    477    478    473   5     0.00000    30.33400     0.00000  0.0
    490    477    478    491   5     0.00000    30.33400     0.00000  0.0
    474    479    480    472   5     0.00000    25.10400     0.00000  0.0
    474    479    480    481   5     0.00000    25.10400     0.00000  0.0
    484    479    480    472   5     0.00000    25.10400     0.00000  0.0
    484    479    480    481   5     0.00000    25.10400     0.00000  0.0
    474    479    484    483   5     0.00000    30.33400     0.00000  0.0
    474    479    484    495   5     0.00000    30.33400     0.00000  0.0
    480    479    484    483   5     0.00000    29.28800     0.00000  0.0
    480    479    484    495   5     0.00000    29.28800     0.00000  0.0
    472    480    481    482   5     0.00000    30.33400     0.00000  0.0
    472    480    481    492   5     0.00000    30.33400     0.00000  0.0
    479    480    481    482   5     0.00000    30.33400     0.00000  0.0
    479    480    481    492   5     0.00000    30.33400     0.00000  0.0
    480    481    482    483   5     0.00000    30.33400     0.00000  0.0
    480    481    482    493   5     0.00000    30.33400     0.00000  0.0
    492    481    482    483   5     0.00000    30.33400     0.00000  0.0
    492    481    482    493   5     0.00000    30.33400     0.00000  0.0
    481    482    483    484   5     0.00000    30.33400     0.00000  0.0
    481    482    483    494   5     0.00000    30.33400     0.00000  0.0
    493    482    483    484   5     0.00000    30.33400     0.00000  0.0
    493    482    483    494   5     0.00000    30.33400     0.00000  0.0
    482    483    484    479   5     0.00000    30.33400     0.00000  0.0
    482    483    484    495   5     0.00000    30.33400     0.00000  0.0
    494    483    484    479   5     0.00000    30.33400     0.00000  0.0
    494    483    484    495   5     0.00000    30.33400     0.00000  0.0
    471    496    497    498   5    -5.40573     4.88691     0.00000  0.0
    471    496    497    513   5     0.00000     0.00000     1.25520  0.0
    471    496    497    522   5     0.00000     0.00000     1.25520  0.0
    511    496    497    498   5     0.00000     0.00000     1.25520  0.0
    511    496    497    513   5     0.00000     0.00000     1.25520  0.0
    511    496    497    522   5     0.00000     0.00000     1.25520  0.0
    512    496    497    498   5     0.00000     0.00000     1.25520  0.0
    512    496    497    513   5     0.00000     0.00000     1.25520  0.0
    512    496    497    522   5     0.00000     0.00000     1.25520  0.0
    496    497    498    499   5     9.22572     0.13807     3.27189  0.0
    496    497    498    506   5     9.22572     0.13807     3.27189  0.0
    513    497    498    499   5     0.00000     0.00000     0.00000  0.0
    513    497    498    506   5     0.00000     0.00000     0.00000  0.0
    522    497    498    499   5     0.00000     0.00000     0.00000  0.0
    522    497    498    506   5     0.00000     0.00000     0.00000  0.0
    497    498    499    500   5     0.00000    30.33400     0.00000  0.0
    497    498    499    504   5     0.00000    30.33400     0.00000  0.0
    506    498    499    500   5     0.00000    30.33400     0.00000  0.0
    506    498    499    504   5     0.00000    30.33400     0.00000  0.0
    497    498    506    505   5     0.00000    30.33400     0.00000  0.0
    497    498    506    507   5     0.00000    30.33400     0.00000  0.0
    499    498    506    505   5     0.00000    30.33400     0.00000  0.0
    499    498    506    507   5     0.00000    30.33400     0.00000  0.0
    498    499    500    501   5     0.00000    25.10400     0.00000  0.0
    498    499    500    505   5     0.00000    25.10400     0.00000  0.0
    504    499    500    501   5     0.00000    25.10400     0.00000  0.0
    504    499    500    505   5     0.00000    25.10400     0.00000  0.0
    498    499    504    503   5     0.00000    30.33400     0.00000  0.0
    498    499    504    517   5     0.00000    30.33400     0.00000  0.0
    500    499    504    503   5     0.00000    30.33400     0.00000  0.0
    500    499    504    517   5     0.00000    30.33400     0.00000  0.0
    499    500    501    502   5     0.00000    29.28800     0.00000  0.0
    499    500    501    514   5     0.00000    29.28800     0.00000  0.0
    505    500    501    502   5     0.00000    30.33400     0.00000  0.0
    505    500    501    514   5     0.00000    30.33400     0.00000  0.0
    499    500    505    506   5     0.00000    29.28800     0.00000  0.0
    499    500    505    510   5     0.00000    29.28800     0.00000  0.0
    501    500    505    506   5     0.00000    29.28800     0.00000  0.0
    501    500    505    510   5     0.00000    30.33400     0.00000  0.0
    500    501    502    503   5     0.00000    30.33400     0.00000  0.0
    500    501    502    515   5     0.00000    30.33400     0.00000  0.0
    514    501    502    503   5     0.00000    30.33400     0.00000  0.0
    514    501    502    515   5     0.00000    30.33400     0.00000  0.0
    501    502    503    504   5     0.00000    30.33400     0.00000  0.0
    501    502    503    516   5     0.00000    30.33400     0.00000  0.0
    515    502    503    504   5     0.00000    30.33400     0.00000  0.0
    515    502    503    516   5     0.00000    30.33400     0.00000  0.0
    502    503    504    499   5     0.00000    30.33400     0.00000  0.0
    502    503    504    517   5     0.00000    30.33400     0.00000  0.0
    516    503    504    499   5     0.00000    30.33400     0.00000  0.0
    516    503    504    517   5     0.00000    30.33400     0.00000  0.0
    500    505    506    498   5     0.00000    25.10400     0.00000  0.0
    500    505    506    507   5     0.00000    25.10400     0.00000  0.0
    510    505    506    498   5     0.00000    25.10400     0.00000  0.0
    510    505    506    507   5     0.00000    25.10400     0.00000  0.0
    500    505    510    509   5     0.00000    30.33400     0.00000  0.0
    500    505    510    521   5     0.00000    30.33400     0.00000  0.0
    506    505    510    509   5     0.00000    29.28800     0.00000  0.0
    506    505    510    521   5     0.00000    29.28800     0.00000  0.0
    498    506    507    508   5     0.00000    30.33400     0.00000  0.0
    498    506    507    518   5     0.00000    30.33400     0.00000  0.0
    505    506    507    508   5     0.00000    30.33400     0.00000  0.0
    505    506    507    518   5     0.00000    30.33400     0.00000  0.0
    506    507    508    509   5     0.00000    30.33400     0.00000  0.0
    506    507    508    519   5     0.00000    30.33400     0.00000  0.0
    518    507    508    509   5     0.00000    30.33400     0.00000  0.0
    518    507    508    519   5     0.00000    30.33400     0.00000  0.0
    507    508    509    510   5     0.00000    30.33400     0.00000  0.0
    507    508    509    520   5     0.00000    30.33400     0.00000  0.0
    519    508    509    510   5     0.00000    30.33400     0.00000  0.0
    519    508    509    520   5     0.00000    30.33400     0.00000  0.0
    508    509    510    505   5     0.00000    30.33400     0.00000  0.0
    508    509    510    521   5     0.00000    30.33400     0.00000  0.0
    520    509    510    505   5     0.00000    30.33400     0.00000  0.0
    520    509    510    521   5     0.00000    30.33400     0.00000  0.0

[ dihedrals ]
; Improper dihedrals
; h   i   j   k   funct
      2      4      3     11   5     0.00000    33.47200     0.00000  0.0
      3      5      4      9   5     0.00000    33.47200     0.00000  0.0
      4      6      5     10   5     0.00000    33.47200     0.00000  0.0
      5      7      6     19   5     0.00000     9.20480     0.00000  0.0
      6      8      7     20   5     0.00000     9.20480     0.00000  0.0
      7      9      8     21   5     0.00000     9.20480     0.00000  0.0
      4      8      9     22   5     0.00000     9.20480     0.00000  0.0
      5     11     10     15   5     0.00000    33.47200     0.00000  0.0
      3     10     11     12   5     0.00000    33.47200     0.00000  0.0
     11     13     12     23   5     0.00000     9.20480     0.00000  0.0
     12     14     13     24   5     0.00000     9.20480     0.00000  0.0
     13     15     14     25   5     0.00000     9.20480     0.00000  0.0
     10     14     15     26   5     0.00000     9.20480     0.00000  0.0
     29     31     30     38   5     0.00000    33.47200     0.00000  0.0
     30     32     31     36   5     0.00000    33.47200     0.00000  0.0
     31     33     32     37   5     0.00000    33.47200     0.00000  0.0
     32     34     33     46   5     0.00000     9.20480     0.00000  0.0
     33     35     34     47   5     0.00000     9.20480     0.00000  0.0
     34     36     35     48   5     0.00000     9.20480     0.00000  0.0
     31     35     36     49   5     0.00000     9.20480     0.00000  0.0
     32     38     37     42   5     0.00000    33.47200     0.00000  0.0
     30     37     38     39   5     0.00000    33.47200     0.00000  0.0
     38     40     39     50   5     0.00000     9.20480     0.00000  0.0
     39     41     40     51   5     0.00000     9.20480     0.00000  0.0
     40     42     41     52   5     0.00000     9.20480     0.00000  0.0
     37     41     42     53   5     0.00000     9.20480     0.00000  0.0
     55     57     56     64   5     0.00000    33.47200     0.00000  0.0
     56     58     57     62   5     0.00000    33.47200     0.00000  0.0
     57     59     58     63   5     0.00000    33.47200     0.00000  0.0
     58     60     59     72   5     0.00000     9.20480     0.00000  0.0
     59     61     60     73   5     0.00000     9.20480     0.00000  0.0
     60     62     61     74   5     0.00000     9.20480     0.00000  0.0
     57     61     62     75   5     0.00000     9.20480     0.00000  0.0
     58     64     63     68   5     0.00000    33.47200     0.00000  0.0
     56     63     64     65   5     0.00000    33.47200     0.00000  0.0
     64     66     65     76   5     0.00000     9.20480     0.00000  0.0
     65     67     66     77   5     0.00000     9.20480     0.00000  0.0
     66     68     67     78   5     0.00000     9.20480     0.00000  0.0
     63     67     68     79   5     0.00000     9.20480     0.00000  0.0
     81     83     82     90   5     0.00000    33.47200     0.00000  0.0
     82     84     83     88   5     0.00000    33.47200     0.00000  0.0
     83     85     84     89   5     0.00000    33.47200     0.00000  0.0
     84     86     85     98   5     0.00000     9.20480     0.00000  0.0
     85     87     86     99   5     0.00000     9.20480     0.00000  0.0
     86     88     87    100   5     0.00000     9.20480     0.00000  0.0
     83     87     88    101   5     0.00000     9.20480     0.00000  0.0
     84     90     89     94   5     0.00000    33.47200     0.00000  0.0
     82     89     90     91   5     0.00000    33.47200     0.00000  0.0
     90     92     91    102   5     0.00000     9.20480     0.00000  0.0
     91     93     92    103   5     0.00000     9.20480     0.00000  0.0
     92     94     93    104   5     0.00000     9.20480     0.00000  0.0
     89     93     94    105   5     0.00000     9.20480     0.00000  0.0
    107    109    108    116   5     0.00000    33.47200     0.00000  0.0
    108    110    109    114   5     0.00000    33.47200     0.00000  0.0
    109    111    110    115   5     0.00000    33.47200     0.00000  0.0
    110    112    111    124   5     0.00000     9.20480     0.00000  0.0
    111    113    112    125   5     0.00000     9.20480     0.00000  0.0
    112    114    113    126   5     0.00000     9.20480     0.00000  0.0
    109    113    114    127   5     0.00000     9.20480     0.00000  0.0
    110    116    115    120   5     0.00000    33.47200     0.00000  0.0
    108    115    116    117   5     0.00000    33.47200     0.00000  0.0
    116    118    117    128   5     0.00000     9.20480     0.00000  0.0
    117    119    118    129   5     0.00000     9.20480     0.00000  0.0
    118    120    119    130   5     0.00000     9.20480     0.00000  0.0
    115    119    120    131   5     0.00000     9.20480     0.00000  0.0
    133    135    134    142   5     0.00000    33.47200     0.00000  0.0
    134    136    135    140   5     0.00000    33.47200     0.00000  0.0
    135    137    136    141   5     0.00000    33.47200     0.00000  0.0
    136    138    137    150   5     0.00000     9.20480     0.00000  0.0
    137    139    138    151   5     0.00000     9.20480     0.00000  0.0
    138    140    139    152   5     0.00000     9.20480     0.00000  0.0
    135    139    140    153   5     0.00000     9.20480     0.00000  0.0
    136    142    141    146   5     0.00000    33.47200     0.00000  0.0
    134    141    142    143   5     0.00000    33.47200     0.00000  0.0
    142    144    143    154   5     0.00000     9.20480     0.00000  0.0
    143    145    144    155   5     0.00000     9.20480     0.00000  0.0
    144    146    145    156   5     0.00000     9.20480     0.00000  0.0
    141    145    146    157   5     0.00000     9.20480     0.00000  0.0
    159    161    160    168   5     0.00000    33.47200     0.00000  0.0
    160    162    161    166   5     0.00000    33.47200     0.00000  0.0
    161    163    162    167   5     0.00000    33.47200     0.00000  0.0
    162    164    163    176   5     0.00000     9.20480     0.00000  0.0
    163    165    164    177   5     0.00000     9.20480     0.00000  0.0
    164    166    165    178   5     0.00000     9.20480     0.00000  0.0
    161    165    166    179   5     0.00000     9.20480     0.00000  0.0
    162    168    167    172   5     0.00000    33.47200     0.00000  0.0
    160    167    168    169   5     0.00000    33.47200     0.00000  0.0
    168    170    169    180   5     0.00000     9.20480     0.00000  0.0
    169    171    170    181   5     0.00000     9.20480     0.00000  0.0
    170    172    171    182   5     0.00000     9.20480     0.00000  0.0
    167    171    172    183   5     0.00000     9.20480     0.00000  0.0
    185    187    186    194   5     0.00000    33.47200     0.00000  0.0
    186    188    187    192   5     0.00000    33.47200     0.00000  0.0
    187    189    188    193   5     0.00000    33.47200     0.00000  0.0
    188    190    189    202   5     0.00000     9.20480     0.00000  0.0
    189    191    190    203   5     0.00000     9.20480     0.00000  0.0
    190    192    191    204   5     0.00000     9.20480     0.00000  0.0
    187    191    192    205   5     0.00000     9.20480     0.00000  0.0
    188    194    193    198   5     0.00000    33.47200     0.00000  0.0
    186    193    194    195   5     0.00000    33.47200     0.00000  0.0
    194    196    195    206   5     0.00000     9.20480     0.00000  0.0
    195    197    196    207   5     0.00000     9.20480     0.00000  0.0
    196    198    197    208   5     0.00000     9.20480     0.00000  0.0
    193    197    198    209   5     0.00000     9.20480     0.00000  0.0
    211    213    212    220   5     0.00000    33.47200     0.00000  0.0
    212    214    213    218   5     0.00000    33.47200     0.00000  0.0
    213    215    214    219   5     0.00000    33.47200     0.00000  0.0
    214    216    215    228   5     0.00000     9.20480     0.00000  0.0
    215    217    216    229   5     0.00000     9.20480     0.00000  0.0
    216    218    217    230   5     0.00000     9.20480     0.00000  0.0
    213    217    218    231   5     0.00000     9.20480     0.00000  0.0
    214    220    219    224   5     0.00000    33.47200     0.00000  0.0
    212    219    220    221   5     0.00000    33.47200     0.00000  0.0
    220    222    221    232   5     0.00000     9.20480     0.00000  0.0
    221    223    222    233   5     0.00000     9.20480     0.00000  0.0
    222    224    223    234   5     0.00000     9.20480     0.00000  0.0
    219    223    224    235   5     0.00000     9.20480     0.00000  0.0
    237    239    238    246   5     0.00000    33.47200     0.00000  0.0
    238    240    239    244   5     0.00000    33.47200     0.00000  0.0
    239    241    240    245   5     0.00000    33.47200     0.00000  0.0
    240    242    241    254   5     0.00000     9.20480     0.00000  0.0
    241    243    242    255   5     0.00000     9.20480     0.00000  0.0
    242    244    243    256   5     0.00000     9.20480     0.00000  0.0
    239    243    244    257   5     0.00000     9.20480     0.00000  0.0
    240    246    245    250   5     0.00000    33.47200     0.00000  0.0
    238    245    246    247   5     0.00000    33.47200     0.00000  0.0
    246    248    247    258   5     0.00000     9.20480     0.00000  0.0
    247    249    248    259   5     0.00000     9.20480     0.00000  0.0
    248    250    249    260   5     0.00000     9.20480     0.00000  0.0
    245    249    250    261   5     0.00000     9.20480     0.00000  0.0
    263    265    264    272   5     0.00000    33.47200     0.00000  0.0
    264    266    265    270   5     0.00000    33.47200     0.00000  0.0
    265    267    266    271   5     0.00000    33.47200     0.00000  0.0
    266    268    267    280   5     0.00000     9.20480     0.00000  0.0
    267    269    268    281   5     0.00000     9.20480     0.00000  0.0
    268    270    269    282   5     0.00000     9.20480     0.00000  0.0
    265    269    270    283   5     0.00000     9.20480     0.00000  0.0
    266    272    271    276   5     0.00000    33.47200     0.00000  0.0
    264    271    272    273   5     0.00000    33.47200     0.00000  0.0
    272    274    273    284   5     0.00000     9.20480     0.00000  0.0
    273    275    274    285   5     0.00000     9.20480     0.00000  0.0
    274    276    275    286   5     0.00000     9.20480     0.00000  0.0
    271    275    276    287   5     0.00000     9.20480     0.00000  0.0
    289    291    290    298   5     0.00000    33.47200     0.00000  0.0
    290    292    291    296   5     0.00000    33.47200     0.00000  0.0
    291    293    292    297   5     0.00000    33.47200     0.00000  0.0
    292    294    293    306   5     0.00000     9.20480     0.00000  0.0
    293    295    294    307   5     0.00000     9.20480     0.00000  0.0
    294    296    295    308   5     0.00000     9.20480     0.00000  0.0
    291    295    296    309   5     0.00000     9.20480     0.00000  0.0
    292    298    297    302   5     0.00000    33.47200     0.00000  0.0
    290    297    298    299   5     0.00000    33.47200     0.00000  0.0
    298    300    299    310   5     0.00000     9.20480     0.00000  0.0
    299    301    300    311   5     0.00000     9.20480     0.00000  0.0
    300    302    301    312   5     0.00000     9.20480     0.00000  0.0
    297    301    302    313   5     0.00000     9.20480     0.00000  0.0
    315    317    316    324   5     0.00000    33.47200     0.00000  0.0
    316    318    317    322   5     0.00000    33.47200     0.00000  0.0
    317    319    318    323   5     0.00000    33.47200     0.00000  0.0
    318    320    319    332   5     0.00000     9.20480     0.00000  0.0
    319    321    320    333   5     0.00000     9.20480     0.00000  0.0
    320    322    321    334   5     0.00000     9.20480     0.00000  0.0
    317    321    322    335   5     0.00000     9.20480     0.00000  0.0
    318    324    323    328   5     0.00000    33.47200     0.00000  0.0
    316    323    324    325   5     0.00000    33.47200     0.00000  0.0
    324    326    325    336   5     0.00000     9.20480     0.00000  0.0
    325    327    326    337   5     0.00000     9.20480     0.00000  0.0
    326    328    327    338   5     0.00000     9.20480     0.00000  0.0
    323    327    328    339   5     0.00000     9.20480     0.00000  0.0
    341    343    342    350   5     0.00000    33.47200     0.00000  0.0
    342    344    343    348   5     0.00000    33.47200     0.00000  0.0
    343    345    344    349   5     0.00000    33.47200     0.00000  0.0
    344    346    345    358   5     0.00000     9.20480     0.00000  0.0
    345    347    346    359   5     0.00000     9.20480     0.00000  0.0
    346    348    347    360   5     0.00000     9.20480     0.00000  0.0
    343    347    348    361   5     0.00000     9.20480     0.00000  0.0
    344    350    349    354   5     0.00000    33.47200     0.00000  0.0
    342    349    350    351   5     0.00000    33.47200     0.00000  0.0
    350    352    351    362   5     0.00000     9.20480     0.00000  0.0
    351    353    352    363   5     0.00000     9.20480     0.00000  0.0
    352    354    353    364   5     0.00000     9.20480     0.00000  0.0
    349    353    354    365   5     0.00000     9.20480     0.00000  0.0
    367    369    368    376   5     0.00000    33.47200     0.00000  0.0
    368    370    369    374   5     0.00000    33.47200     0.00000  0.0
    369    371    370    375   5     0.00000    33.47200     0.00000  0.0
    370    372    371    384   5     0.00000     9.20480     0.00000  0.0
    371    373    372    385   5     0.00000     9.20480     0.00000  0.0
    372    374    373    386   5     0.00000     9.20480     0.00000  0.0
    369    373    374    387   5     0.00000     9.20480     0.00000  0.0
    370    376    375    380   5     0.00000    33.47200     0.00000  0.0
    368    375    376    377   5     0.00000    33.47200     0.00000  0.0
    376    378    377    388   5     0.00000     9.20480     0.00000  0.0
    377    379    378    389   5     0.00000     9.20480     0.00000  0.0
    378    380    379    390   5     0.00000     9.20480     0.00000  0.0
    375    379    380    391   5     0.00000     9.20480     0.00000  0.0
    393    395    394    402   5     0.00000    33.47200     0.00000  0.0
    394    396    395    400   5     0.00000    33.47200     0.00000  0.0
    395    397    396    401   5     0.00000    33.47200     0.00000  0.0
    396    398    397    410   5     0.00000     9.20480     0.00000  0.0
    397    399    398    411   5     0.00000     9.20480     0.00000  0.0
    398    400    399    412   5     0.00000     9.20480     0.00000  0.0
    395    399    400    413   5     0.00000     9.20480     0.00000  0.0
    396    402    401    406   5     0.00000    33.47200     0.00000  0.0
    394    401    402    403   5     0.00000    33.47200     0.00000  0.0
    402    404    403    414   5     0.00000     9.20480     0.00000  0.0
    403    405    404    415   5     0.00000     9.20480     0.00000  0.0
    404    406    405    416   5     0.00000     9.20480     0.00000  0.0
    401    405    406    417   5     0.00000     9.20480     0.00000  0.0
    419    421    420    428   5     0.00000    33.47200     0.00000  0.0
    420    422    421    426   5     0.00000    33.47200     0.00000  0.0
    421    423    422    427   5     0.00000    33.47200     0.00000  0.0
    422    424    423    436   5     0.00000     9.20480     0.00000  0.0
    423    425    424    437   5     0.00000     9.20480     0.00000  0.0
    424    426    425    438   5     0.00000     9.20480     0.00000  0.0
    421    425    426    439   5     0.00000     9.20480     0.00000  0.0
    422    428    427    432   5     0.00000    33.47200     0.00000  0.0
    420    427    428    429   5     0.00000    33.47200     0.00000  0.0
    428    430    429    440   5     0.00000     9.20480     0.00000  0.0
    429    431    430    441   5     0.00000     9.20480     0.00000  0.0
    430    432    431    442   5     0.00000     9.20480     0.00000  0.0
    427    431    432    443   5     0.00000     9.20480     0.00000  0.0
    445    447    446    454   5     0.00000    33.47200     0.00000  0.0
    446    448    447    452   5     0.00000    33.47200     0.00000  0.0
    447    449    448    453   5     0.00000    33.47200     0.00000  0.0
    448    450    449    462   5     0.00000     9.20480     0.00000  0.0
    449    451    450    463   5     0.00000     9.20480     0.00000  0.0
    450    452    451    464   5     0.00000     9.20480     0.00000  0.0
    447    451    452    465   5     0.00000     9.20480     0.00000  0.0
    448    454    453    458   5     0.00000    33.47200     0.00000  0.0
    446    453    454    455   5     0.00000    33.47200     0.00000  0.0
    454    456    455    466   5     0.00000     9.20480     0.00000  0.0
    455    457    456    467   5     0.00000     9.20480     0.00000  0.0
    456    458    457    468   5     0.00000     9.20480     0.00000  0.0
    453    457    458    469   5     0.00000     9.20480     0.00000  0.0
    471    473    472    480   5     0.00000    33.47200     0.00000  0.0
    472    474    473    478   5     0.00000    33.47200     0.00000  0.0
    473    475    474    479   5     0.00000    33.47200     0.00000  0.0
    474    476    475    488   5     0.00000     9.20480     0.00000  0.0
    475    477    476    489   5     0.00000     9.20480     0.00000  0.0
    476    478    477    490   5     0.00000     9.20480     0.00000  0.0
    473    477    478    491   5     0.00000     9.20480     0.00000  0.0
    474    480    479    484   5     0.00000    33.47200     0.00000  0.0
    472    479    480    481   5     0.00000    33.47200     0.00000  0.0
    480    482    481    492   5     0.00000     9.20480     0.00000  0.0
    481    483    482    493   5     0.00000     9.20480     0.00000  0.0
    482    484    483    494   5     0.00000     9.20480     0.00000  0.0
    479    483    484    495   5     0.00000     9.20480     0.00000  0.0
    497    499    498    506   5     0.00000    33.47200     0.00000  0.0
    498    500    499    504   5     0.00000    33.47200     0.00000  0.0
    499    501    500    505   5     0.00000    33.47200     0.00000  0.0
    500    502    501    514   5     0.00000     9.20480     0.00000  0.0
    501    503    502    515   5     0.00000     9.20480     0.00000  0.0
    502    504    503    516   5     0.00000     9.20480     0.00000  0.0
    499    503    504    517   5     0.00000     9.20480     0.00000  0.0
    500    506    505    510   5     0.00000    33.47200     0.00000  0.0
    498    505    506    507   5     0.00000    33.47200     0.00000  0.0
    506    508    507    518   5     0.00000     9.20480     0.00000  0.0
    507    509    508    519   5     0.00000     9.20480     0.00000  0.0
    508    510    509    520   5     0.00000     9.20480     0.00000  0.0
    505    509    510    521   5     0.00000     9.20480     0.00000  0.0
