;
; Gromacs include topology (itp) file.
; For Molecular Group XYZ
; Force field scheme: opls2005
; Produced from DL_FIELD v4.11
;


[ moleculetype ]
; name    nrexcl
XYZ    3

[ atoms ]
; nr   type   resnr   residu    atom    cgnr    charge    mass
    1        NT    1  MOL      N1     1  -0.9000000   14.0067
    2        CT    1  MOL      C2     2   0.0600000   12.0115
    3        CT    1  MOL      C3     3  -0.1200000   12.0115
    4        CT    1  MOL      C4     4  -0.1200000   12.0115
    5        CT    1  MOL      C5     5  -0.1200000   12.0115
    6        CT    1  MOL      C6     6  -0.1200000   12.0115
    7        CT    1  MOL      C7     7  -0.1200000   12.0115
    8        CT    1  MOL      C8     8  -0.1200000   12.0115
    9        CT    1  MOL      C9     9  -0.1200000   12.0115
   10        CT    1  MOL     C10    10  -0.1200000   12.0115
   11        CT    1  MOL     C11    11  -0.1200000   12.0115
   12         C    1  MOL     C12    12   0.5000000   12.0115
   13         O    1  MOL     O13    13  -0.5000000   15.9994
   14         H    1  MOL     H14    14   0.3600000    1.0080
   15      HANI    1  MOL     H15    15   0.0600000    1.0080
   16      HANI    1  MOL     H16    16   0.0600000    1.0080
   17        HC    1  MOL     H17    17   0.0600000    1.0080
   18        HC    1  MOL     H18    18   0.0600000    1.0080
   19        HC    1  MOL     H19    19   0.0600000    1.0080
   20        HC    1  MOL     H20    20   0.0600000    1.0080
   21        HC    1  MOL     H21    21   0.0600000    1.0080
   22        HC    1  MOL     H22    22   0.0600000    1.0080
   23        HC    1  MOL     H23    23   0.0600000    1.0080
   24        HC    1  MOL     H24    24   0.0600000    1.0080
   25        HC    1  MOL     H25    25   0.0600000    1.0080
   26        HC    1  MOL     H26    26   0.0600000    1.0080
   27        HC    1  MOL     H27    27   0.0600000    1.0080
   28        HC    1  MOL     H28    28   0.0600000    1.0080
   29        HC    1  MOL     H29    29   0.0600000    1.0080
   30        HC    1  MOL     H30    30   0.0600000    1.0080
   31        HC    1  MOL     H31    31   0.0600000    1.0080
   32        HC    1  MOL     H32    32   0.0600000    1.0080
   33        HC    1  MOL     H33    33   0.0600000    1.0080
   34        HC    1  MOL     H34    34   0.0600000    1.0080
   35         H    1  MOL     H35    35   0.3600000    1.0080
   36         N    1  MOL     N36    36  -0.5000000   14.0067
   37        CT    1  MOL     C37    37   0.0800000   12.0115
   38        CT    1  MOL     C38    38  -0.1200000   12.0115
   39        CT    1  MOL     C39    39  -0.1200000   12.0115
   40        CT    1  MOL     C40    40  -0.1200000   12.0115
   41        CT    1  MOL     C41    41  -0.1200000   12.0115
   42        CT    1  MOL     C42    42  -0.1200000   12.0115
   43        CT    1  MOL     C43    43  -0.1200000   12.0115
   44        CT    1  MOL     C44    44  -0.1200000   12.0115
   45        CT    1  MOL     C45    45  -0.1200000   12.0115
   46        CT    1  MOL     C46    46  -0.1200000   12.0115
   47         C    1  MOL     C47    47   0.5000000   12.0115
   48         O    1  MOL     O48    48  -0.5000000   15.9994
   49         H    1  MOL     H49    49   0.3000000    1.0080
   50        HC    1  MOL     H50    50   0.0600000    1.0080
   51        HC    1  MOL     H51    51   0.0600000    1.0080
   52        HC    1  MOL     H52    52   0.0600000    1.0080
   53        HC    1  MOL     H53    53   0.0600000    1.0080
   54        HC    1  MOL     H54    54   0.0600000    1.0080
   55        HC    1  MOL     H55    55   0.0600000    1.0080
   56        HC    1  MOL     H56    56   0.0600000    1.0080
   57        HC    1  MOL     H57    57   0.0600000    1.0080
   58        HC    1  MOL     H58    58   0.0600000    1.0080
   59        HC    1  MOL     H59    59   0.0600000    1.0080
   60        HC    1  MOL     H60    60   0.0600000    1.0080
   61        HC    1  MOL     H61    61   0.0600000    1.0080
   62        HC    1  MOL     H62    62   0.0600000    1.0080
   63        HC    1  MOL     H63    63   0.0600000    1.0080
   64        HC    1  MOL     H64    64   0.0600000    1.0080
   65        HC    1  MOL     H65    65   0.0600000    1.0080
   66        HC    1  MOL     H66    66   0.0600000    1.0080
   67        HC    1  MOL     H67    67   0.0600000    1.0080
   68        HC    1  MOL     H68    68   0.0600000    1.0080
   69        HC    1  MOL     H69    69   0.0600000    1.0080
   70         N    1  MOL     N70    70  -0.5000000   14.0067
   71        CT    1  MOL     C71    71   0.0800000   12.0115
   72        CT    1  MOL     C72    72  -0.1200000   12.0115
   73        CT    1  MOL     C73    73  -0.1200000   12.0115
   74        CT    1  MOL     C74    74  -0.1200000   12.0115
   75        CT    1  MOL     C75    75  -0.1200000   12.0115
   76        CT    1  MOL     C76    76  -0.1200000   12.0115
   77        CT    1  MOL     C77    77  -0.1200000   12.0115
   78        CT    1  MOL     C78    78  -0.1200000   12.0115
   79        CT    1  MOL     C79    79  -0.1200000   12.0115
   80        CT    1  MOL     C80    80  -0.1200000   12.0115
   81         C    1  MOL     C81    81   0.5000000   12.0115
   82         O    1  MOL     O82    82  -0.5000000   15.9994
   83         H    1  MOL     H83    83   0.3000000    1.0080
   84        HC    1  MOL     H84    84   0.0600000    1.0080
   85        HC    1  MOL     H85    85   0.0600000    1.0080
   86        HC    1  MOL     H86    86   0.0600000    1.0080
   87        HC    1  MOL     H87    87   0.0600000    1.0080
   88        HC    1  MOL     H88    88   0.0600000    1.0080
   89        HC    1  MOL     H89    89   0.0600000    1.0080
   90        HC    1  MOL     H90    90   0.0600000    1.0080
   91        HC    1  MOL     H91    91   0.0600000    1.0080
   92        HC    1  MOL     H92    92   0.0600000    1.0080
   93        HC    1  MOL     H93    93   0.0600000    1.0080
   94        HC    1  MOL     H94    94   0.0600000    1.0080
   95        HC    1  MOL     H95    95   0.0600000    1.0080
   96        HC    1  MOL     H96    96   0.0600000    1.0080
   97        HC    1  MOL     H97    97   0.0600000    1.0080
   98        HC    1  MOL     H98    98   0.0600000    1.0080
   99        HC    1  MOL     H99    99   0.0600000    1.0080
  100        HC    1  MOL    H100   100   0.0600000    1.0080
  101        HC    1  MOL    H101   101   0.0600000    1.0080
  102        HC    1  MOL    H102   102   0.0600000    1.0080
  103        HC    1  MOL    H103   103   0.0600000    1.0080
  104         N    1  MOL    N104   104  -0.5000000   14.0067
  105        CT    1  MOL    C105   105   0.0800000   12.0115
  106        CT    1  MOL    C106   106  -0.1200000   12.0115
  107        CT    1  MOL    C107   107  -0.1200000   12.0115
  108        CT    1  MOL    C108   108  -0.1200000   12.0115
  109        CT    1  MOL    C109   109  -0.1200000   12.0115
  110        CT    1  MOL    C110   110  -0.1200000   12.0115
  111        CT    1  MOL    C111   111  -0.1200000   12.0115
  112        CT    1  MOL    C112   112  -0.1200000   12.0115
  113        CT    1  MOL    C113   113  -0.1200000   12.0115
  114        CT    1  MOL    C114   114  -0.1200000   12.0115
  115         C    1  MOL    C115   115   0.5000000   12.0115
  116         O    1  MOL    O116   116  -0.5000000   15.9994
  117         H    1  MOL    H117   117   0.3000000    1.0080
  118        HC    1  MOL    H118   118   0.0600000    1.0080
  119        HC    1  MOL    H119   119   0.0600000    1.0080
  120        HC    1  MOL    H120   120   0.0600000    1.0080
  121        HC    1  MOL    H121   121   0.0600000    1.0080
  122        HC    1  MOL    H122   122   0.0600000    1.0080
  123        HC    1  MOL    H123   123   0.0600000    1.0080
  124        HC    1  MOL    H124   124   0.0600000    1.0080
  125        HC    1  MOL    H125   125   0.0600000    1.0080
  126        HC    1  MOL    H126   126   0.0600000    1.0080
  127        HC    1  MOL    H127   127   0.0600000    1.0080
  128        HC    1  MOL    H128   128   0.0600000    1.0080
  129        HC    1  MOL    H129   129   0.0600000    1.0080
  130        HC    1  MOL    H130   130   0.0600000    1.0080
  131        HC    1  MOL    H131   131   0.0600000    1.0080
  132        HC    1  MOL    H132   132   0.0600000    1.0080
  133        HC    1  MOL    H133   133   0.0600000    1.0080
  134        HC    1  MOL    H134   134   0.0600000    1.0080
  135        HC    1  MOL    H135   135   0.0600000    1.0080
  136        HC    1  MOL    H136   136   0.0600000    1.0080
  137        HC    1  MOL    H137   137   0.0600000    1.0080
  138         N    1  MOL    N138   138  -0.5000000   14.0067
  139        CT    1  MOL    C139   139   0.0800000   12.0115
  140        CT    1  MOL    C140   140  -0.1200000   12.0115
  141        CT    1  MOL    C141   141  -0.1200000   12.0115
  142        CT    1  MOL    C142   142  -0.1200000   12.0115
  143        CT    1  MOL    C143   143  -0.1200000   12.0115
  144        CT    1  MOL    C144   144  -0.1200000   12.0115
  145        CT    1  MOL    C145   145  -0.1200000   12.0115
  146        CT    1  MOL    C146   146  -0.1200000   12.0115
  147        CT    1  MOL    C147   147  -0.1200000   12.0115
  148        CT    1  MOL    C148   148  -0.1200000   12.0115
  149         C    1  MOL    C149   149   0.5000000   12.0115
  150         O    1  MOL    O150   150  -0.5000000   15.9994
  151         H    1  MOL    H151   151   0.3000000    1.0080
  152        HC    1  MOL    H152   152   0.0600000    1.0080
  153        HC    1  MOL    H153   153   0.0600000    1.0080
  154        HC    1  MOL    H154   154   0.0600000    1.0080
  155        HC    1  MOL    H155   155   0.0600000    1.0080
  156        HC    1  MOL    H156   156   0.0600000    1.0080
  157        HC    1  MOL    H157   157   0.0600000    1.0080
  158        HC    1  MOL    H158   158   0.0600000    1.0080
  159        HC    1  MOL    H159   159   0.0600000    1.0080
  160        HC    1  MOL    H160   160   0.0600000    1.0080
  161        HC    1  MOL    H161   161   0.0600000    1.0080
  162        HC    1  MOL    H162   162   0.0600000    1.0080
  163        HC    1  MOL    H163   163   0.0600000    1.0080
  164        HC    1  MOL    H164   164   0.0600000    1.0080
  165        HC    1  MOL    H165   165   0.0600000    1.0080
  166        HC    1  MOL    H166   166   0.0600000    1.0080
  167        HC    1  MOL    H167   167   0.0600000    1.0080
  168        HC    1  MOL    H168   168   0.0600000    1.0080
  169        HC    1  MOL    H169   169   0.0600000    1.0080
  170        HC    1  MOL    H170   170   0.0600000    1.0080
  171        HC    1  MOL    H171   171   0.0600000    1.0080
  172         N    1  MOL    N172   172  -0.5000000   14.0067
  173        CT    1  MOL    C173   173   0.0800000   12.0115
  174        CT    1  MOL    C174   174  -0.1200000   12.0115
  175        CT    1  MOL    C175   175  -0.1200000   12.0115
  176        CT    1  MOL    C176   176  -0.1200000   12.0115
  177        CT    1  MOL    C177   177  -0.1200000   12.0115
  178        CT    1  MOL    C178   178  -0.1200000   12.0115
  179        CT    1  MOL    C179   179  -0.1200000   12.0115
  180        CT    1  MOL    C180   180  -0.1200000   12.0115
  181        CT    1  MOL    C181   181  -0.1200000   12.0115
  182        CT    1  MOL    C182   182  -0.1200000   12.0115
  183         C    1  MOL    C183   183   0.5000000   12.0115
  184         O    1  MOL    O184   184  -0.5000000   15.9994
  185         H    1  MOL    H185   185   0.3000000    1.0080
  186        HC    1  MOL    H186   186   0.0600000    1.0080
  187        HC    1  MOL    H187   187   0.0600000    1.0080
  188        HC    1  MOL    H188   188   0.0600000    1.0080
  189        HC    1  MOL    H189   189   0.0600000    1.0080
  190        HC    1  MOL    H190   190   0.0600000    1.0080
  191        HC    1  MOL    H191   191   0.0600000    1.0080
  192        HC    1  MOL    H192   192   0.0600000    1.0080
  193        HC    1  MOL    H193   193   0.0600000    1.0080
  194        HC    1  MOL    H194   194   0.0600000    1.0080
  195        HC    1  MOL    H195   195   0.0600000    1.0080
  196        HC    1  MOL    H196   196   0.0600000    1.0080
  197        HC    1  MOL    H197   197   0.0600000    1.0080
  198        HC    1  MOL    H198   198   0.0600000    1.0080
  199        HC    1  MOL    H199   199   0.0600000    1.0080
  200        HC    1  MOL    H200   200   0.0600000    1.0080
  201        HC    1  MOL    H201   201   0.0600000    1.0080
  202        HC    1  MOL    H202   202   0.0600000    1.0080
  203        HC    1  MOL    H203   203   0.0600000    1.0080
  204        HC    1  MOL    H204   204   0.0600000    1.0080
  205        HC    1  MOL    H205   205   0.0600000    1.0080
  206         N    1  MOL    N206   206  -0.5000000   14.0067
  207        CT    1  MOL    C207   207   0.0800000   12.0115
  208        CT    1  MOL    C208   208  -0.1200000   12.0115
  209        CT    1  MOL    C209   209  -0.1200000   12.0115
  210        CT    1  MOL    C210   210  -0.1200000   12.0115
  211        CT    1  MOL    C211   211  -0.1200000   12.0115
  212        CT    1  MOL    C212   212  -0.1200000   12.0115
  213        CT    1  MOL    C213   213  -0.1200000   12.0115
  214        CT    1  MOL    C214   214  -0.1200000   12.0115
  215        CT    1  MOL    C215   215  -0.1200000   12.0115
  216        CT    1  MOL    C216   216  -0.1200000   12.0115
  217         C    1  MOL    C217   217   0.5000000   12.0115
  218         O    1  MOL    O218   218  -0.5000000   15.9994
  219         H    1  MOL    H219   219   0.3000000    1.0080
  220        HC    1  MOL    H220   220   0.0600000    1.0080
  221        HC    1  MOL    H221   221   0.0600000    1.0080
  222        HC    1  MOL    H222   222   0.0600000    1.0080
  223        HC    1  MOL    H223   223   0.0600000    1.0080
  224        HC    1  MOL    H224   224   0.0600000    1.0080
  225        HC    1  MOL    H225   225   0.0600000    1.0080
  226        HC    1  MOL    H226   226   0.0600000    1.0080
  227        HC    1  MOL    H227   227   0.0600000    1.0080
  228        HC    1  MOL    H228   228   0.0600000    1.0080
  229        HC    1  MOL    H229   229   0.0600000    1.0080
  230        HC    1  MOL    H230   230   0.0600000    1.0080
  231        HC    1  MOL    H231   231   0.0600000    1.0080
  232        HC    1  MOL    H232   232   0.0600000    1.0080
  233        HC    1  MOL    H233   233   0.0600000    1.0080
  234        HC    1  MOL    H234   234   0.0600000    1.0080
  235        HC    1  MOL    H235   235   0.0600000    1.0080
  236        HC    1  MOL    H236   236   0.0600000    1.0080
  237        HC    1  MOL    H237   237   0.0600000    1.0080
  238        HC    1  MOL    H238   238   0.0600000    1.0080
  239        HC    1  MOL    H239   239   0.0600000    1.0080
  240         N    1  MOL    N240   240  -0.5000000   14.0067
  241        CT    1  MOL    C241   241   0.0800000   12.0115
  242        CT    1  MOL    C242   242  -0.1200000   12.0115
  243        CT    1  MOL    C243   243  -0.1200000   12.0115
  244        CT    1  MOL    C244   244  -0.1200000   12.0115
  245        CT    1  MOL    C245   245  -0.1200000   12.0115
  246        CT    1  MOL    C246   246  -0.1200000   12.0115
  247        CT    1  MOL    C247   247  -0.1200000   12.0115
  248        CT    1  MOL    C248   248  -0.1200000   12.0115
  249        CT    1  MOL    C249   249  -0.1200000   12.0115
  250        CT    1  MOL    C250   250  -0.1200000   12.0115
  251         C    1  MOL    C251   251   0.5000000   12.0115
  252         O    1  MOL    O252   252  -0.5000000   15.9994
  253         H    1  MOL    H253   253   0.3000000    1.0080
  254        HC    1  MOL    H254   254   0.0600000    1.0080
  255        HC    1  MOL    H255   255   0.0600000    1.0080
  256        HC    1  MOL    H256   256   0.0600000    1.0080
  257        HC    1  MOL    H257   257   0.0600000    1.0080
  258        HC    1  MOL    H258   258   0.0600000    1.0080
  259        HC    1  MOL    H259   259   0.0600000    1.0080
  260        HC    1  MOL    H260   260   0.0600000    1.0080
  261        HC    1  MOL    H261   261   0.0600000    1.0080
  262        HC    1  MOL    H262   262   0.0600000    1.0080
  263        HC    1  MOL    H263   263   0.0600000    1.0080
  264        HC    1  MOL    H264   264   0.0600000    1.0080
  265        HC    1  MOL    H265   265   0.0600000    1.0080
  266        HC    1  MOL    H266   266   0.0600000    1.0080
  267        HC    1  MOL    H267   267   0.0600000    1.0080
  268        HC    1  MOL    H268   268   0.0600000    1.0080
  269        HC    1  MOL    H269   269   0.0600000    1.0080
  270        HC    1  MOL    H270   270   0.0600000    1.0080
  271        HC    1  MOL    H271   271   0.0600000    1.0080
  272        HC    1  MOL    H272   272   0.0600000    1.0080
  273        HC    1  MOL    H273   273   0.0600000    1.0080
  274         N    1  MOL    N274   274  -0.5000000   14.0067
  275        CT    1  MOL    C275   275   0.0800000   12.0115
  276        CT    1  MOL    C276   276  -0.1200000   12.0115
  277        CT    1  MOL    C277   277  -0.1200000   12.0115
  278        CT    1  MOL    C278   278  -0.1200000   12.0115
  279        CT    1  MOL    C279   279  -0.1200000   12.0115
  280        CT    1  MOL    C280   280  -0.1200000   12.0115
  281        CT    1  MOL    C281   281  -0.1200000   12.0115
  282        CT    1  MOL    C282   282  -0.1200000   12.0115
  283        CT    1  MOL    C283   283  -0.1200000   12.0115
  284        CT    1  MOL    C284   284  -0.1200000   12.0115
  285         C    1  MOL    C285   285   0.5000000   12.0115
  286         O    1  MOL    O286   286  -0.5000000   15.9994
  287         H    1  MOL    H287   287   0.3000000    1.0080
  288        HC    1  MOL    H288   288   0.0600000    1.0080
  289        HC    1  MOL    H289   289   0.0600000    1.0080
  290        HC    1  MOL    H290   290   0.0600000    1.0080
  291        HC    1  MOL    H291   291   0.0600000    1.0080
  292        HC    1  MOL    H292   292   0.0600000    1.0080
  293        HC    1  MOL    H293   293   0.0600000    1.0080
  294        HC    1  MOL    H294   294   0.0600000    1.0080
  295        HC    1  MOL    H295   295   0.0600000    1.0080
  296        HC    1  MOL    H296   296   0.0600000    1.0080
  297        HC    1  MOL    H297   297   0.0600000    1.0080
  298        HC    1  MOL    H298   298   0.0600000    1.0080
  299        HC    1  MOL    H299   299   0.0600000    1.0080
  300        HC    1  MOL    H300   300   0.0600000    1.0080
  301        HC    1  MOL    H301   301   0.0600000    1.0080
  302        HC    1  MOL    H302   302   0.0600000    1.0080
  303        HC    1  MOL    H303   303   0.0600000    1.0080
  304        HC    1  MOL    H304   304   0.0600000    1.0080
  305        HC    1  MOL    H305   305   0.0600000    1.0080
  306        HC    1  MOL    H306   306   0.0600000    1.0080
  307        HC    1  MOL    H307   307   0.0600000    1.0080
  308         N    1  MOL    N308   308  -0.5000000   14.0067
  309        CT    1  MOL    C309   309   0.0800000   12.0115
  310        CT    1  MOL    C310   310  -0.1200000   12.0115
  311        CT    1  MOL    C311   311  -0.1200000   12.0115
  312        CT    1  MOL    C312   312  -0.1200000   12.0115
  313        CT    1  MOL    C313   313  -0.1200000   12.0115
  314        CT    1  MOL    C314   314  -0.1200000   12.0115
  315        CT    1  MOL    C315   315  -0.1200000   12.0115
  316        CT    1  MOL    C316   316  -0.1200000   12.0115
  317        CT    1  MOL    C317   317  -0.1200000   12.0115
  318        CT    1  MOL    C318   318  -0.1200000   12.0115
  319         C    1  MOL    C319   319   0.5000000   12.0115
  320         O    1  MOL    O320   320  -0.5000000   15.9994
  321         H    1  MOL    H321   321   0.3000000    1.0080
  322        HC    1  MOL    H322   322   0.0600000    1.0080
  323        HC    1  MOL    H323   323   0.0600000    1.0080
  324        HC    1  MOL    H324   324   0.0600000    1.0080
  325        HC    1  MOL    H325   325   0.0600000    1.0080
  326        HC    1  MOL    H326   326   0.0600000    1.0080
  327        HC    1  MOL    H327   327   0.0600000    1.0080
  328        HC    1  MOL    H328   328   0.0600000    1.0080
  329        HC    1  MOL    H329   329   0.0600000    1.0080
  330        HC    1  MOL    H330   330   0.0600000    1.0080
  331        HC    1  MOL    H331   331   0.0600000    1.0080
  332        HC    1  MOL    H332   332   0.0600000    1.0080
  333        HC    1  MOL    H333   333   0.0600000    1.0080
  334        HC    1  MOL    H334   334   0.0600000    1.0080
  335        HC    1  MOL    H335   335   0.0600000    1.0080
  336        HC    1  MOL    H336   336   0.0600000    1.0080
  337        HC    1  MOL    H337   337   0.0600000    1.0080
  338        HC    1  MOL    H338   338   0.0600000    1.0080
  339        HC    1  MOL    H339   339   0.0600000    1.0080
  340        HC    1  MOL    H340   340   0.0600000    1.0080
  341        HC    1  MOL    H341   341   0.0600000    1.0080
  342         N    1  MOL    N342   342  -0.5000000   14.0067
  343        CT    1  MOL    C343   343   0.0800000   12.0115
  344        CT    1  MOL    C344   344  -0.1200000   12.0115
  345        CT    1  MOL    C345   345  -0.1200000   12.0115
  346        CT    1  MOL    C346   346  -0.1200000   12.0115
  347        CT    1  MOL    C347   347  -0.1200000   12.0115
  348        CT    1  MOL    C348   348  -0.1200000   12.0115
  349        CT    1  MOL    C349   349  -0.1200000   12.0115
  350        CT    1  MOL    C350   350  -0.1200000   12.0115
  351        CT    1  MOL    C351   351  -0.1200000   12.0115
  352        CT    1  MOL    C352   352  -0.1200000   12.0115
  353         C    1  MOL    C353   353   0.5000000   12.0115
  354         O    1  MOL    O354   354  -0.5000000   15.9994
  355         H    1  MOL    H355   355   0.3000000    1.0080
  356        HC    1  MOL    H356   356   0.0600000    1.0080
  357        HC    1  MOL    H357   357   0.0600000    1.0080
  358        HC    1  MOL    H358   358   0.0600000    1.0080
  359        HC    1  MOL    H359   359   0.0600000    1.0080
  360        HC    1  MOL    H360   360   0.0600000    1.0080
  361        HC    1  MOL    H361   361   0.0600000    1.0080
  362        HC    1  MOL    H362   362   0.0600000    1.0080
  363        HC    1  MOL    H363   363   0.0600000    1.0080
  364        HC    1  MOL    H364   364   0.0600000    1.0080
  365        HC    1  MOL    H365   365   0.0600000    1.0080
  366        HC    1  MOL    H366   366   0.0600000    1.0080
  367        HC    1  MOL    H367   367   0.0600000    1.0080
  368        HC    1  MOL    H368   368   0.0600000    1.0080
  369        HC    1  MOL    H369   369   0.0600000    1.0080
  370        HC    1  MOL    H370   370   0.0600000    1.0080
  371        HC    1  MOL    H371   371   0.0600000    1.0080
  372        HC    1  MOL    H372   372   0.0600000    1.0080
  373        HC    1  MOL    H373   373   0.0600000    1.0080
  374        HC    1  MOL    H374   374   0.0600000    1.0080
  375        HC    1  MOL    H375   375   0.0600000    1.0080
  376         N    1  MOL    N376   376  -0.5000000   14.0067
  377        CT    1  MOL    C377   377   0.0800000   12.0115
  378        CT    1  MOL    C378   378  -0.1200000   12.0115
  379        CT    1  MOL    C379   379  -0.1200000   12.0115
  380        CT    1  MOL    C380   380  -0.1200000   12.0115
  381        CT    1  MOL    C381   381  -0.1200000   12.0115
  382        CT    1  MOL    C382   382  -0.1200000   12.0115
  383        CT    1  MOL    C383   383  -0.1200000   12.0115
  384        CT    1  MOL    C384   384  -0.1200000   12.0115
  385        CT    1  MOL    C385   385  -0.1200000   12.0115
  386        CT    1  MOL    C386   386  -0.1200000   12.0115
  387         C    1  MOL    C387   387   0.5000000   12.0115
  388         O    1  MOL    O388   388  -0.5000000   15.9994
  389         H    1  MOL    H389   389   0.3000000    1.0080
  390        HC    1  MOL    H390   390   0.0600000    1.0080
  391        HC    1  MOL    H391   391   0.0600000    1.0080
  392        HC    1  MOL    H392   392   0.0600000    1.0080
  393        HC    1  MOL    H393   393   0.0600000    1.0080
  394        HC    1  MOL    H394   394   0.0600000    1.0080
  395        HC    1  MOL    H395   395   0.0600000    1.0080
  396        HC    1  MOL    H396   396   0.0600000    1.0080
  397        HC    1  MOL    H397   397   0.0600000    1.0080
  398        HC    1  MOL    H398   398   0.0600000    1.0080
  399        HC    1  MOL    H399   399   0.0600000    1.0080
  400        HC    1  MOL    H400   400   0.0600000    1.0080
  401        HC    1  MOL    H401   401   0.0600000    1.0080
  402        HC    1  MOL    H402   402   0.0600000    1.0080
  403        HC    1  MOL    H403   403   0.0600000    1.0080
  404        HC    1  MOL    H404   404   0.0600000    1.0080
  405        HC    1  MOL    H405   405   0.0600000    1.0080
  406        HC    1  MOL    H406   406   0.0600000    1.0080
  407        HC    1  MOL    H407   407   0.0600000    1.0080
  408        HC    1  MOL    H408   408   0.0600000    1.0080
  409        HC    1  MOL    H409   409   0.0600000    1.0080
  410         N    1  MOL    N410   410  -0.5000000   14.0067
  411        CT    1  MOL    C411   411   0.0800000   12.0115
  412        CT    1  MOL    C412   412  -0.1200000   12.0115
  413        CT    1  MOL    C413   413  -0.1200000   12.0115
  414        CT    1  MOL    C414   414  -0.1200000   12.0115
  415        CT    1  MOL    C415   415  -0.1200000   12.0115
  416        CT    1  MOL    C416   416  -0.1200000   12.0115
  417        CT    1  MOL    C417   417  -0.1200000   12.0115
  418        CT    1  MOL    C418   418  -0.1200000   12.0115
  419        CT    1  MOL    C419   419  -0.1200000   12.0115
  420        CT    1  MOL    C420   420  -0.1200000   12.0115
  421         C    1  MOL    C421   421   0.5000000   12.0115
  422         O    1  MOL    O422   422  -0.5000000   15.9994
  423         H    1  MOL    H423   423   0.3000000    1.0080
  424        HC    1  MOL    H424   424   0.0600000    1.0080
  425        HC    1  MOL    H425   425   0.0600000    1.0080
  426        HC    1  MOL    H426   426   0.0600000    1.0080
  427        HC    1  MOL    H427   427   0.0600000    1.0080
  428        HC    1  MOL    H428   428   0.0600000    1.0080
  429        HC    1  MOL    H429   429   0.0600000    1.0080
  430        HC    1  MOL    H430   430   0.0600000    1.0080
  431        HC    1  MOL    H431   431   0.0600000    1.0080
  432        HC    1  MOL    H432   432   0.0600000    1.0080
  433        HC    1  MOL    H433   433   0.0600000    1.0080
  434        HC    1  MOL    H434   434   0.0600000    1.0080
  435        HC    1  MOL    H435   435   0.0600000    1.0080
  436        HC    1  MOL    H436   436   0.0600000    1.0080
  437        HC    1  MOL    H437   437   0.0600000    1.0080
  438        HC    1  MOL    H438   438   0.0600000    1.0080
  439        HC    1  MOL    H439   439   0.0600000    1.0080
  440        HC    1  MOL    H440   440   0.0600000    1.0080
  441        HC    1  MOL    H441   441   0.0600000    1.0080
  442        HC    1  MOL    H442   442   0.0600000    1.0080
  443        HC    1  MOL    H443   443   0.0600000    1.0080
  444         N    1  MOL    N444   444  -0.5000000   14.0067
  445        CT    1  MOL    C445   445   0.0800000   12.0115
  446        CT    1  MOL    C446   446  -0.1200000   12.0115
  447        CT    1  MOL    C447   447  -0.1200000   12.0115
  448        CT    1  MOL    C448   448  -0.1200000   12.0115
  449        CT    1  MOL    C449   449  -0.1200000   12.0115
  450        CT    1  MOL    C450   450  -0.1200000   12.0115
  451        CT    1  MOL    C451   451  -0.1200000   12.0115
  452        CT    1  MOL    C452   452  -0.1200000   12.0115
  453        CT    1  MOL    C453   453  -0.1200000   12.0115
  454        CT    1  MOL    C454   454  -0.1200000   12.0115
  455         C    1  MOL    C455   455   0.5000000   12.0115
  456         O    1  MOL    O456   456  -0.5000000   15.9994
  457         H    1  MOL    H457   457   0.3000000    1.0080
  458        HC    1  MOL    H458   458   0.0600000    1.0080
  459        HC    1  MOL    H459   459   0.0600000    1.0080
  460        HC    1  MOL    H460   460   0.0600000    1.0080
  461        HC    1  MOL    H461   461   0.0600000    1.0080
  462        HC    1  MOL    H462   462   0.0600000    1.0080
  463        HC    1  MOL    H463   463   0.0600000    1.0080
  464        HC    1  MOL    H464   464   0.0600000    1.0080
  465        HC    1  MOL    H465   465   0.0600000    1.0080
  466        HC    1  MOL    H466   466   0.0600000    1.0080
  467        HC    1  MOL    H467   467   0.0600000    1.0080
  468        HC    1  MOL    H468   468   0.0600000    1.0080
  469        HC    1  MOL    H469   469   0.0600000    1.0080
  470        HC    1  MOL    H470   470   0.0600000    1.0080
  471        HC    1  MOL    H471   471   0.0600000    1.0080
  472        HC    1  MOL    H472   472   0.0600000    1.0080
  473        HC    1  MOL    H473   473   0.0600000    1.0080
  474        HC    1  MOL    H474   474   0.0600000    1.0080
  475        HC    1  MOL    H475   475   0.0600000    1.0080
  476        HC    1  MOL    H476   476   0.0600000    1.0080
  477        HC    1  MOL    H477   477   0.0600000    1.0080
  478         N    1  MOL    N478   478  -0.5000000   14.0067
  479        CT    1  MOL    C479   479   0.0800000   12.0115
  480        CT    1  MOL    C480   480  -0.1200000   12.0115
  481        CT    1  MOL    C481   481  -0.1200000   12.0115
  482        CT    1  MOL    C482   482  -0.1200000   12.0115
  483        CT    1  MOL    C483   483  -0.1200000   12.0115
  484        CT    1  MOL    C484   484  -0.1200000   12.0115
  485        CT    1  MOL    C485   485  -0.1200000   12.0115
  486        CT    1  MOL    C486   486  -0.1200000   12.0115
  487        CT    1  MOL    C487   487  -0.1200000   12.0115
  488        CT    1  MOL    C488   488  -0.1200000   12.0115
  489         C    1  MOL    C489   489   0.5000000   12.0115
  490         O    1  MOL    O490   490  -0.5000000   15.9994
  491         H    1  MOL    H491   491   0.3000000    1.0080
  492        HC    1  MOL    H492   492   0.0600000    1.0080
  493        HC    1  MOL    H493   493   0.0600000    1.0080
  494        HC    1  MOL    H494   494   0.0600000    1.0080
  495        HC    1  MOL    H495   495   0.0600000    1.0080
  496        HC    1  MOL    H496   496   0.0600000    1.0080
  497        HC    1  MOL    H497   497   0.0600000    1.0080
  498        HC    1  MOL    H498   498   0.0600000    1.0080
  499        HC    1  MOL    H499   499   0.0600000    1.0080
  500        HC    1  MOL    H500   500   0.0600000    1.0080
  501        HC    1  MOL    H501   501   0.0600000    1.0080
  502        HC    1  MOL    H502   502   0.0600000    1.0080
  503        HC    1  MOL    H503   503   0.0600000    1.0080
  504        HC    1  MOL    H504   504   0.0600000    1.0080
  505        HC    1  MOL    H505   505   0.0600000    1.0080
  506        HC    1  MOL    H506   506   0.0600000    1.0080
  507        HC    1  MOL    H507   507   0.0600000    1.0080
  508        HC    1  MOL    H508   508   0.0600000    1.0080
  509        HC    1  MOL    H509   509   0.0600000    1.0080
  510        HC    1  MOL    H510   510   0.0600000    1.0080
  511        HC    1  MOL    H511   511   0.0600000    1.0080
  512         N    1  MOL    N512   512  -0.5000000   14.0067
  513        CT    1  MOL    C513   513   0.0800000   12.0115
  514        CT    1  MOL    C514   514  -0.1200000   12.0115
  515        CT    1  MOL    C515   515  -0.1200000   12.0115
  516        CT    1  MOL    C516   516  -0.1200000   12.0115
  517        CT    1  MOL    C517   517  -0.1200000   12.0115
  518        CT    1  MOL    C518   518  -0.1200000   12.0115
  519        CT    1  MOL    C519   519  -0.1200000   12.0115
  520        CT    1  MOL    C520   520  -0.1200000   12.0115
  521        CT    1  MOL    C521   521  -0.1200000   12.0115
  522        CT    1  MOL    C522   522  -0.1200000   12.0115
  523         C    1  MOL    C523   523   0.5000000   12.0115
  524         O    1  MOL    O524   524  -0.5000000   15.9994
  525         H    1  MOL    H525   525   0.3000000    1.0080
  526        HC    1  MOL    H526   526   0.0600000    1.0080
  527        HC    1  MOL    H527   527   0.0600000    1.0080
  528        HC    1  MOL    H528   528   0.0600000    1.0080
  529        HC    1  MOL    H529   529   0.0600000    1.0080
  530        HC    1  MOL    H530   530   0.0600000    1.0080
  531        HC    1  MOL    H531   531   0.0600000    1.0080
  532        HC    1  MOL    H532   532   0.0600000    1.0080
  533        HC    1  MOL    H533   533   0.0600000    1.0080
  534        HC    1  MOL    H534   534   0.0600000    1.0080
  535        HC    1  MOL    H535   535   0.0600000    1.0080
  536        HC    1  MOL    H536   536   0.0600000    1.0080
  537        HC    1  MOL    H537   537   0.0600000    1.0080
  538        HC    1  MOL    H538   538   0.0600000    1.0080
  539        HC    1  MOL    H539   539   0.0600000    1.0080
  540        HC    1  MOL    H540   540   0.0600000    1.0080
  541        HC    1  MOL    H541   541   0.0600000    1.0080
  542        HC    1  MOL    H542   542   0.0600000    1.0080
  543        HC    1  MOL    H543   543   0.0600000    1.0080
  544        HC    1  MOL    H544   544   0.0600000    1.0080
  545        HC    1  MOL    H545   545   0.0600000    1.0080
  546         N    1  MOL    N546   546  -0.5000000   14.0067
  547        CT    1  MOL    C547   547   0.0800000   12.0115
  548        CT    1  MOL    C548   548  -0.1200000   12.0115
  549        CT    1  MOL    C549   549  -0.1200000   12.0115
  550        CT    1  MOL    C550   550  -0.1200000   12.0115
  551        CT    1  MOL    C551   551  -0.1200000   12.0115
  552        CT    1  MOL    C552   552  -0.1200000   12.0115
  553        CT    1  MOL    C553   553  -0.1200000   12.0115
  554        CT    1  MOL    C554   554  -0.1200000   12.0115
  555        CT    1  MOL    C555   555  -0.1200000   12.0115
  556        CT    1  MOL    C556   556  -0.1200000   12.0115
  557         C    1  MOL    C557   557   0.5000000   12.0115
  558         O    1  MOL    O558   558  -0.5000000   15.9994
  559         H    1  MOL    H559   559   0.3000000    1.0080
  560        HC    1  MOL    H560   560   0.0600000    1.0080
  561        HC    1  MOL    H561   561   0.0600000    1.0080
  562        HC    1  MOL    H562   562   0.0600000    1.0080
  563        HC    1  MOL    H563   563   0.0600000    1.0080
  564        HC    1  MOL    H564   564   0.0600000    1.0080
  565        HC    1  MOL    H565   565   0.0600000    1.0080
  566        HC    1  MOL    H566   566   0.0600000    1.0080
  567        HC    1  MOL    H567   567   0.0600000    1.0080
  568        HC    1  MOL    H568   568   0.0600000    1.0080
  569        HC    1  MOL    H569   569   0.0600000    1.0080
  570        HC    1  MOL    H570   570   0.0600000    1.0080
  571        HC    1  MOL    H571   571   0.0600000    1.0080
  572        HC    1  MOL    H572   572   0.0600000    1.0080
  573        HC    1  MOL    H573   573   0.0600000    1.0080
  574        HC    1  MOL    H574   574   0.0600000    1.0080
  575        HC    1  MOL    H575   575   0.0600000    1.0080
  576        HC    1  MOL    H576   576   0.0600000    1.0080
  577        HC    1  MOL    H577   577   0.0600000    1.0080
  578        HC    1  MOL    H578   578   0.0600000    1.0080
  579        HC    1  MOL    H579   579   0.0600000    1.0080
  580         N    1  MOL    N580   580  -0.5000000   14.0067
  581        CT    1  MOL    C581   581   0.0800000   12.0115
  582        CT    1  MOL    C582   582  -0.1200000   12.0115
  583        CT    1  MOL    C583   583  -0.1200000   12.0115
  584        CT    1  MOL    C584   584  -0.1200000   12.0115
  585        CT    1  MOL    C585   585  -0.1200000   12.0115
  586        CT    1  MOL    C586   586  -0.1200000   12.0115
  587        CT    1  MOL    C587   587  -0.1200000   12.0115
  588        CT    1  MOL    C588   588  -0.1200000   12.0115
  589        CT    1  MOL    C589   589  -0.1200000   12.0115
  590        CT    1  MOL    C590   590  -0.1200000   12.0115
  591         C    1  MOL    C591   591   0.5000000   12.0115
  592         O    1  MOL    O592   592  -0.5000000   15.9994
  593         H    1  MOL    H593   593   0.3000000    1.0080
  594        HC    1  MOL    H594   594   0.0600000    1.0080
  595        HC    1  MOL    H595   595   0.0600000    1.0080
  596        HC    1  MOL    H596   596   0.0600000    1.0080
  597        HC    1  MOL    H597   597   0.0600000    1.0080
  598        HC    1  MOL    H598   598   0.0600000    1.0080
  599        HC    1  MOL    H599   599   0.0600000    1.0080
  600        HC    1  MOL    H600   600   0.0600000    1.0080
  601        HC    1  MOL    H601   601   0.0600000    1.0080
  602        HC    1  MOL    H602   602   0.0600000    1.0080
  603        HC    1  MOL    H603   603   0.0600000    1.0080
  604        HC    1  MOL    H604   604   0.0600000    1.0080
  605        HC    1  MOL    H605   605   0.0600000    1.0080
  606        HC    1  MOL    H606   606   0.0600000    1.0080
  607        HC    1  MOL    H607   607   0.0600000    1.0080
  608        HC    1  MOL    H608   608   0.0600000    1.0080
  609        HC    1  MOL    H609   609   0.0600000    1.0080
  610        HC    1  MOL    H610   610   0.0600000    1.0080
  611        HC    1  MOL    H611   611   0.0600000    1.0080
  612        HC    1  MOL    H612   612   0.0600000    1.0080
  613        HC    1  MOL    H613   613   0.0600000    1.0080
  614         N    1  MOL    N614   614  -0.5000000   14.0067
  615        CT    1  MOL    C615   615   0.0800000   12.0115
  616        CT    1  MOL    C616   616  -0.1200000   12.0115
  617        CT    1  MOL    C617   617  -0.1200000   12.0115
  618        CT    1  MOL    C618   618  -0.1200000   12.0115
  619        CT    1  MOL    C619   619  -0.1200000   12.0115
  620        CT    1  MOL    C620   620  -0.1200000   12.0115
  621        CT    1  MOL    C621   621  -0.1200000   12.0115
  622        CT    1  MOL    C622   622  -0.1200000   12.0115
  623        CT    1  MOL    C623   623  -0.1200000   12.0115
  624        CT    1  MOL    C624   624  -0.1200000   12.0115
  625         C    1  MOL    C625   625   0.5000000   12.0115
  626         O    1  MOL    O626   626  -0.5000000   15.9994
  627         H    1  MOL    H627   627   0.3000000    1.0080
  628        HC    1  MOL    H628   628   0.0600000    1.0080
  629        HC    1  MOL    H629   629   0.0600000    1.0080
  630        HC    1  MOL    H630   630   0.0600000    1.0080
  631        HC    1  MOL    H631   631   0.0600000    1.0080
  632        HC    1  MOL    H632   632   0.0600000    1.0080
  633        HC    1  MOL    H633   633   0.0600000    1.0080
  634        HC    1  MOL    H634   634   0.0600000    1.0080
  635        HC    1  MOL    H635   635   0.0600000    1.0080
  636        HC    1  MOL    H636   636   0.0600000    1.0080
  637        HC    1  MOL    H637   637   0.0600000    1.0080
  638        HC    1  MOL    H638   638   0.0600000    1.0080
  639        HC    1  MOL    H639   639   0.0600000    1.0080
  640        HC    1  MOL    H640   640   0.0600000    1.0080
  641        HC    1  MOL    H641   641   0.0600000    1.0080
  642        HC    1  MOL    H642   642   0.0600000    1.0080
  643        HC    1  MOL    H643   643   0.0600000    1.0080
  644        HC    1  MOL    H644   644   0.0600000    1.0080
  645        HC    1  MOL    H645   645   0.0600000    1.0080
  646        HC    1  MOL    H646   646   0.0600000    1.0080
  647        HC    1  MOL    H647   647   0.0600000    1.0080
  648         N    1  MOL    N648   648  -0.5000000   14.0067
  649        CT    1  MOL    C649   649   0.0800000   12.0115
  650        CT    1  MOL    C650   650  -0.1200000   12.0115
  651        CT    1  MOL    C651   651  -0.1200000   12.0115
  652        CT    1  MOL    C652   652  -0.1200000   12.0115
  653        CT    1  MOL    C653   653  -0.1200000   12.0115
  654        CT    1  MOL    C654   654  -0.1200000   12.0115
  655        CT    1  MOL    C655   655  -0.1200000   12.0115
  656        CT    1  MOL    C656   656  -0.1200000   12.0115
  657        CT    1  MOL    C657   657  -0.1200000   12.0115
  658        CT    1  MOL    C658   658  -0.1200000   12.0115
  659       CO4    1  MOL    C659   659   0.4500000   12.0115
  660         O    1  MOL    O660   660  -0.4500000   15.9994
  661         H    1  MOL    H661   661   0.3000000    1.0080
  662        HC    1  MOL    H662   662   0.0600000    1.0080
  663        HC    1  MOL    H663   663   0.0600000    1.0080
  664        HC    1  MOL    H664   664   0.0600000    1.0080
  665        HC    1  MOL    H665   665   0.0600000    1.0080
  666        HC    1  MOL    H666   666   0.0600000    1.0080
  667        HC    1  MOL    H667   667   0.0600000    1.0080
  668        HC    1  MOL    H668   668   0.0600000    1.0080
  669        HC    1  MOL    H669   669   0.0600000    1.0080
  670        HC    1  MOL    H670   670   0.0600000    1.0080
  671        HC    1  MOL    H671   671   0.0600000    1.0080
  672        HC    1  MOL    H672   672   0.0600000    1.0080
  673        HC    1  MOL    H673   673   0.0600000    1.0080
  674        HC    1  MOL    H674   674   0.0600000    1.0080
  675        HC    1  MOL    H675   675   0.0600000    1.0080
  676        HC    1  MOL    H676   676   0.0600000    1.0080
  677        HC    1  MOL    H677   677   0.0600000    1.0080
  678        HC    1  MOL    H678   678   0.0600000    1.0080
  679        HC    1  MOL    H679   679   0.0600000    1.0080
  680       HAE    1  MOL    H680   680   0.0600000    1.0080
  681       HAE    1  MOL    H681   681   0.0600000    1.0080
  682       HAE    1  MOL    H682   682   0.0000000    1.0080

[ bonds ]
      1      2   1      0.1448 319657.6000
      1     14   1      0.1010 363171.2000
      1     35   1      0.1010 363171.2000
      2      3   1      0.1529 224262.4000
      2     15   1      0.1090 284512.0000
      2     16   1      0.1090 284512.0000
      3      4   1      0.1529 224262.4000
      3     17   1      0.1090 284512.0000
      3     18   1      0.1090 284512.0000
      4      5   1      0.1529 224262.4000
      4     19   1      0.1090 284512.0000
      4     20   1      0.1090 284512.0000
      5      6   1      0.1529 224262.4000
      5     21   1      0.1090 284512.0000
      5     22   1      0.1090 284512.0000
      6      7   1      0.1529 224262.4000
      6     23   1      0.1090 284512.0000
      6     24   1      0.1090 284512.0000
      7      8   1      0.1529 224262.4000
      7     25   1      0.1090 284512.0000
      7     26   1      0.1090 284512.0000
      8      9   1      0.1529 224262.4000
      8     27   1      0.1090 284512.0000
      8     28   1      0.1090 284512.0000
      9     10   1      0.1529 224262.4000
      9     29   1      0.1090 284512.0000
      9     30   1      0.1090 284512.0000
     10     11   1      0.1529 224262.4000
     10     31   1      0.1090 284512.0000
     10     32   1      0.1090 284512.0000
     11     12   1      0.1522 265265.6000
     11     33   1      0.1090 284512.0000
     11     34   1      0.1090 284512.0000
     12     13   1      0.1229 476976.0000
     12     36   1      0.1335 410032.0000
     36     37   1      0.1449 282001.6000
     36     49   1      0.1010 363171.2000
     37     38   1      0.1529 224262.4000
     37     50   1      0.1090 284512.0000
     37     51   1      0.1090 284512.0000
     38     39   1      0.1529 224262.4000
     38     52   1      0.1090 284512.0000
     38     53   1      0.1090 284512.0000
     39     40   1      0.1529 224262.4000
     39     54   1      0.1090 284512.0000
     39     55   1      0.1090 284512.0000
     40     41   1      0.1529 224262.4000
     40     56   1      0.1090 284512.0000
     40     57   1      0.1090 284512.0000
     41     42   1      0.1529 224262.4000
     41     58   1      0.1090 284512.0000
     41     59   1      0.1090 284512.0000
     42     43   1      0.1529 224262.4000
     42     60   1      0.1090 284512.0000
     42     61   1      0.1090 284512.0000
     43     44   1      0.1529 224262.4000
     43     62   1      0.1090 284512.0000
     43     63   1      0.1090 284512.0000
     44     45   1      0.1529 224262.4000
     44     64   1      0.1090 284512.0000
     44     65   1      0.1090 284512.0000
     45     46   1      0.1529 224262.4000
     45     66   1      0.1090 284512.0000
     45     67   1      0.1090 284512.0000
     46     47   1      0.1522 265265.6000
     46     68   1      0.1090 284512.0000
     46     69   1      0.1090 284512.0000
     47     48   1      0.1229 476976.0000
     47     70   1      0.1335 410032.0000
     70     71   1      0.1449 282001.6000
     70     83   1      0.1010 363171.2000
     71     72   1      0.1529 224262.4000
     71     84   1      0.1090 284512.0000
     71     85   1      0.1090 284512.0000
     72     73   1      0.1529 224262.4000
     72     86   1      0.1090 284512.0000
     72     87   1      0.1090 284512.0000
     73     74   1      0.1529 224262.4000
     73     88   1      0.1090 284512.0000
     73     89   1      0.1090 284512.0000
     74     75   1      0.1529 224262.4000
     74     90   1      0.1090 284512.0000
     74     91   1      0.1090 284512.0000
     75     76   1      0.1529 224262.4000
     75     92   1      0.1090 284512.0000
     75     93   1      0.1090 284512.0000
     76     77   1      0.1529 224262.4000
     76     94   1      0.1090 284512.0000
     76     95   1      0.1090 284512.0000
     77     78   1      0.1529 224262.4000
     77     96   1      0.1090 284512.0000
     77     97   1      0.1090 284512.0000
     78     79   1      0.1529 224262.4000
     78     98   1      0.1090 284512.0000
     78     99   1      0.1090 284512.0000
     79     80   1      0.1529 224262.4000
     79    100   1      0.1090 284512.0000
     79    101   1      0.1090 284512.0000
     80     81   1      0.1522 265265.6000
     80    102   1      0.1090 284512.0000
     80    103   1      0.1090 284512.0000
     81     82   1      0.1229 476976.0000
     81    104   1      0.1335 410032.0000
    104    105   1      0.1449 282001.6000
    104    117   1      0.1010 363171.2000
    105    106   1      0.1529 224262.4000
    105    118   1      0.1090 284512.0000
    105    119   1      0.1090 284512.0000
    106    107   1      0.1529 224262.4000
    106    120   1      0.1090 284512.0000
    106    121   1      0.1090 284512.0000
    107    108   1      0.1529 224262.4000
    107    122   1      0.1090 284512.0000
    107    123   1      0.1090 284512.0000
    108    109   1      0.1529 224262.4000
    108    124   1      0.1090 284512.0000
    108    125   1      0.1090 284512.0000
    109    110   1      0.1529 224262.4000
    109    126   1      0.1090 284512.0000
    109    127   1      0.1090 284512.0000
    110    111   1      0.1529 224262.4000
    110    128   1      0.1090 284512.0000
    110    129   1      0.1090 284512.0000
    111    112   1      0.1529 224262.4000
    111    130   1      0.1090 284512.0000
    111    131   1      0.1090 284512.0000
    112    113   1      0.1529 224262.4000
    112    132   1      0.1090 284512.0000
    112    133   1      0.1090 284512.0000
    113    114   1      0.1529 224262.4000
    113    134   1      0.1090 284512.0000
    113    135   1      0.1090 284512.0000
    114    115   1      0.1522 265265.6000
    114    136   1      0.1090 284512.0000
    114    137   1      0.1090 284512.0000
    115    116   1      0.1229 476976.0000
    115    138   1      0.1335 410032.0000
    138    139   1      0.1449 282001.6000
    138    151   1      0.1010 363171.2000
    139    140   1      0.1529 224262.4000
    139    152   1      0.1090 284512.0000
    139    153   1      0.1090 284512.0000
    140    141   1      0.1529 224262.4000
    140    154   1      0.1090 284512.0000
    140    155   1      0.1090 284512.0000
    141    142   1      0.1529 224262.4000
    141    156   1      0.1090 284512.0000
    141    157   1      0.1090 284512.0000
    142    143   1      0.1529 224262.4000
    142    158   1      0.1090 284512.0000
    142    159   1      0.1090 284512.0000
    143    144   1      0.1529 224262.4000
    143    160   1      0.1090 284512.0000
    143    161   1      0.1090 284512.0000
    144    145   1      0.1529 224262.4000
    144    162   1      0.1090 284512.0000
    144    163   1      0.1090 284512.0000
    145    146   1      0.1529 224262.4000
    145    164   1      0.1090 284512.0000
    145    165   1      0.1090 284512.0000
    146    147   1      0.1529 224262.4000
    146    166   1      0.1090 284512.0000
    146    167   1      0.1090 284512.0000
    147    148   1      0.1529 224262.4000
    147    168   1      0.1090 284512.0000
    147    169   1      0.1090 284512.0000
    148    149   1      0.1522 265265.6000
    148    170   1      0.1090 284512.0000
    148    171   1      0.1090 284512.0000
    149    150   1      0.1229 476976.0000
    149    172   1      0.1335 410032.0000
    172    173   1      0.1449 282001.6000
    172    185   1      0.1010 363171.2000
    173    174   1      0.1529 224262.4000
    173    186   1      0.1090 284512.0000
    173    187   1      0.1090 284512.0000
    174    175   1      0.1529 224262.4000
    174    188   1      0.1090 284512.0000
    174    189   1      0.1090 284512.0000
    175    176   1      0.1529 224262.4000
    175    190   1      0.1090 284512.0000
    175    191   1      0.1090 284512.0000
    176    177   1      0.1529 224262.4000
    176    192   1      0.1090 284512.0000
    176    193   1      0.1090 284512.0000
    177    178   1      0.1529 224262.4000
    177    194   1      0.1090 284512.0000
    177    195   1      0.1090 284512.0000
    178    179   1      0.1529 224262.4000
    178    196   1      0.1090 284512.0000
    178    197   1      0.1090 284512.0000
    179    180   1      0.1529 224262.4000
    179    198   1      0.1090 284512.0000
    179    199   1      0.1090 284512.0000
    180    181   1      0.1529 224262.4000
    180    200   1      0.1090 284512.0000
    180    201   1      0.1090 284512.0000
    181    182   1      0.1529 224262.4000
    181    202   1      0.1090 284512.0000
    181    203   1      0.1090 284512.0000
    182    183   1      0.1522 265265.6000
    182    204   1      0.1090 284512.0000
    182    205   1      0.1090 284512.0000
    183    184   1      0.1229 476976.0000
    183    206   1      0.1335 410032.0000
    206    207   1      0.1449 282001.6000
    206    219   1      0.1010 363171.2000
    207    208   1      0.1529 224262.4000
    207    220   1      0.1090 284512.0000
    207    221   1      0.1090 284512.0000
    208    209   1      0.1529 224262.4000
    208    222   1      0.1090 284512.0000
    208    223   1      0.1090 284512.0000
    209    210   1      0.1529 224262.4000
    209    224   1      0.1090 284512.0000
    209    225   1      0.1090 284512.0000
    210    211   1      0.1529 224262.4000
    210    226   1      0.1090 284512.0000
    210    227   1      0.1090 284512.0000
    211    212   1      0.1529 224262.4000
    211    228   1      0.1090 284512.0000
    211    229   1      0.1090 284512.0000
    212    213   1      0.1529 224262.4000
    212    230   1      0.1090 284512.0000
    212    231   1      0.1090 284512.0000
    213    214   1      0.1529 224262.4000
    213    232   1      0.1090 284512.0000
    213    233   1      0.1090 284512.0000
    214    215   1      0.1529 224262.4000
    214    234   1      0.1090 284512.0000
    214    235   1      0.1090 284512.0000
    215    216   1      0.1529 224262.4000
    215    236   1      0.1090 284512.0000
    215    237   1      0.1090 284512.0000
    216    217   1      0.1522 265265.6000
    216    238   1      0.1090 284512.0000
    216    239   1      0.1090 284512.0000
    217    218   1      0.1229 476976.0000
    217    240   1      0.1335 410032.0000
    240    241   1      0.1449 282001.6000
    240    253   1      0.1010 363171.2000
    241    242   1      0.1529 224262.4000
    241    254   1      0.1090 284512.0000
    241    255   1      0.1090 284512.0000
    242    243   1      0.1529 224262.4000
    242    256   1      0.1090 284512.0000
    242    257   1      0.1090 284512.0000
    243    244   1      0.1529 224262.4000
    243    258   1      0.1090 284512.0000
    243    259   1      0.1090 284512.0000
    244    245   1      0.1529 224262.4000
    244    260   1      0.1090 284512.0000
    244    261   1      0.1090 284512.0000
    245    246   1      0.1529 224262.4000
    245    262   1      0.1090 284512.0000
    245    263   1      0.1090 284512.0000
    246    247   1      0.1529 224262.4000
    246    264   1      0.1090 284512.0000
    246    265   1      0.1090 284512.0000
    247    248   1      0.1529 224262.4000
    247    266   1      0.1090 284512.0000
    247    267   1      0.1090 284512.0000
    248    249   1      0.1529 224262.4000
    248    268   1      0.1090 284512.0000
    248    269   1      0.1090 284512.0000
    249    250   1      0.1529 224262.4000
    249    270   1      0.1090 284512.0000
    249    271   1      0.1090 284512.0000
    250    251   1      0.1522 265265.6000
    250    272   1      0.1090 284512.0000
    250    273   1      0.1090 284512.0000
    251    252   1      0.1229 476976.0000
    251    274   1      0.1335 410032.0000
    274    275   1      0.1449 282001.6000
    274    287   1      0.1010 363171.2000
    275    276   1      0.1529 224262.4000
    275    288   1      0.1090 284512.0000
    275    289   1      0.1090 284512.0000
    276    277   1      0.1529 224262.4000
    276    290   1      0.1090 284512.0000
    276    291   1      0.1090 284512.0000
    277    278   1      0.1529 224262.4000
    277    292   1      0.1090 284512.0000
    277    293   1      0.1090 284512.0000
    278    279   1      0.1529 224262.4000
    278    294   1      0.1090 284512.0000
    278    295   1      0.1090 284512.0000
    279    280   1      0.1529 224262.4000
    279    296   1      0.1090 284512.0000
    279    297   1      0.1090 284512.0000
    280    281   1      0.1529 224262.4000
    280    298   1      0.1090 284512.0000
    280    299   1      0.1090 284512.0000
    281    282   1      0.1529 224262.4000
    281    300   1      0.1090 284512.0000
    281    301   1      0.1090 284512.0000
    282    283   1      0.1529 224262.4000
    282    302   1      0.1090 284512.0000
    282    303   1      0.1090 284512.0000
    283    284   1      0.1529 224262.4000
    283    304   1      0.1090 284512.0000
    283    305   1      0.1090 284512.0000
    284    285   1      0.1522 265265.6000
    284    306   1      0.1090 284512.0000
    284    307   1      0.1090 284512.0000
    285    286   1      0.1229 476976.0000
    285    308   1      0.1335 410032.0000
    308    309   1      0.1449 282001.6000
    308    321   1      0.1010 363171.2000
    309    310   1      0.1529 224262.4000
    309    322   1      0.1090 284512.0000
    309    323   1      0.1090 284512.0000
    310    311   1      0.1529 224262.4000
    310    324   1      0.1090 284512.0000
    310    325   1      0.1090 284512.0000
    311    312   1      0.1529 224262.4000
    311    326   1      0.1090 284512.0000
    311    327   1      0.1090 284512.0000
    312    313   1      0.1529 224262.4000
    312    328   1      0.1090 284512.0000
    312    329   1      0.1090 284512.0000
    313    314   1      0.1529 224262.4000
    313    330   1      0.1090 284512.0000
    313    331   1      0.1090 284512.0000
    314    315   1      0.1529 224262.4000
    314    332   1      0.1090 284512.0000
    314    333   1      0.1090 284512.0000
    315    316   1      0.1529 224262.4000
    315    334   1      0.1090 284512.0000
    315    335   1      0.1090 284512.0000
    316    317   1      0.1529 224262.4000
    316    336   1      0.1090 284512.0000
    316    337   1      0.1090 284512.0000
    317    318   1      0.1529 224262.4000
    317    338   1      0.1090 284512.0000
    317    339   1      0.1090 284512.0000
    318    319   1      0.1522 265265.6000
    318    340   1      0.1090 284512.0000
    318    341   1      0.1090 284512.0000
    319    320   1      0.1229 476976.0000
    319    342   1      0.1335 410032.0000
    342    343   1      0.1449 282001.6000
    342    355   1      0.1010 363171.2000
    343    344   1      0.1529 224262.4000
    343    356   1      0.1090 284512.0000
    343    357   1      0.1090 284512.0000
    344    345   1      0.1529 224262.4000
    344    358   1      0.1090 284512.0000
    344    359   1      0.1090 284512.0000
    345    346   1      0.1529 224262.4000
    345    360   1      0.1090 284512.0000
    345    361   1      0.1090 284512.0000
    346    347   1      0.1529 224262.4000
    346    362   1      0.1090 284512.0000
    346    363   1      0.1090 284512.0000
    347    348   1      0.1529 224262.4000
    347    364   1      0.1090 284512.0000
    347    365   1      0.1090 284512.0000
    348    349   1      0.1529 224262.4000
    348    366   1      0.1090 284512.0000
    348    367   1      0.1090 284512.0000
    349    350   1      0.1529 224262.4000
    349    368   1      0.1090 284512.0000
    349    369   1      0.1090 284512.0000
    350    351   1      0.1529 224262.4000
    350    370   1      0.1090 284512.0000
    350    371   1      0.1090 284512.0000
    351    352   1      0.1529 224262.4000
    351    372   1      0.1090 284512.0000
    351    373   1      0.1090 284512.0000
    352    353   1      0.1522 265265.6000
    352    374   1      0.1090 284512.0000
    352    375   1      0.1090 284512.0000
    353    354   1      0.1229 476976.0000
    353    376   1      0.1335 410032.0000
    376    377   1      0.1449 282001.6000
    376    389   1      0.1010 363171.2000
    377    378   1      0.1529 224262.4000
    377    390   1      0.1090 284512.0000
    377    391   1      0.1090 284512.0000
    378    379   1      0.1529 224262.4000
    378    392   1      0.1090 284512.0000
    378    393   1      0.1090 284512.0000
    379    380   1      0.1529 224262.4000
    379    394   1      0.1090 284512.0000
    379    395   1      0.1090 284512.0000
    380    381   1      0.1529 224262.4000
    380    396   1      0.1090 284512.0000
    380    397   1      0.1090 284512.0000
    381    382   1      0.1529 224262.4000
    381    398   1      0.1090 284512.0000
    381    399   1      0.1090 284512.0000
    382    383   1      0.1529 224262.4000
    382    400   1      0.1090 284512.0000
    382    401   1      0.1090 284512.0000
    383    384   1      0.1529 224262.4000
    383    402   1      0.1090 284512.0000
    383    403   1      0.1090 284512.0000
    384    385   1      0.1529 224262.4000
    384    404   1      0.1090 284512.0000
    384    405   1      0.1090 284512.0000
    385    386   1      0.1529 224262.4000
    385    406   1      0.1090 284512.0000
    385    407   1      0.1090 284512.0000
    386    387   1      0.1522 265265.6000
    386    408   1      0.1090 284512.0000
    386    409   1      0.1090 284512.0000
    387    388   1      0.1229 476976.0000
    387    410   1      0.1335 410032.0000
    410    411   1      0.1449 282001.6000
    410    423   1      0.1010 363171.2000
    411    412   1      0.1529 224262.4000
    411    424   1      0.1090 284512.0000
    411    425   1      0.1090 284512.0000
    412    413   1      0.1529 224262.4000
    412    426   1      0.1090 284512.0000
    412    427   1      0.1090 284512.0000
    413    414   1      0.1529 224262.4000
    413    428   1      0.1090 284512.0000
    413    429   1      0.1090 284512.0000
    414    415   1      0.1529 224262.4000
    414    430   1      0.1090 284512.0000
    414    431   1      0.1090 284512.0000
    415    416   1      0.1529 224262.4000
    415    432   1      0.1090 284512.0000
    415    433   1      0.1090 284512.0000
    416    417   1      0.1529 224262.4000
    416    434   1      0.1090 284512.0000
    416    435   1      0.1090 284512.0000
    417    418   1      0.1529 224262.4000
    417    436   1      0.1090 284512.0000
    417    437   1      0.1090 284512.0000
    418    419   1      0.1529 224262.4000
    418    438   1      0.1090 284512.0000
    418    439   1      0.1090 284512.0000
    419    420   1      0.1529 224262.4000
    419    440   1      0.1090 284512.0000
    419    441   1      0.1090 284512.0000
    420    421   1      0.1522 265265.6000
    420    442   1      0.1090 284512.0000
    420    443   1      0.1090 284512.0000
    421    422   1      0.1229 476976.0000
    421    444   1      0.1335 410032.0000
    444    445   1      0.1449 282001.6000
    444    457   1      0.1010 363171.2000
    445    446   1      0.1529 224262.4000
    445    458   1      0.1090 284512.0000
    445    459   1      0.1090 284512.0000
    446    447   1      0.1529 224262.4000
    446    460   1      0.1090 284512.0000
    446    461   1      0.1090 284512.0000
    447    448   1      0.1529 224262.4000
    447    462   1      0.1090 284512.0000
    447    463   1      0.1090 284512.0000
    448    449   1      0.1529 224262.4000
    448    464   1      0.1090 284512.0000
    448    465   1      0.1090 284512.0000
    449    450   1      0.1529 224262.4000
    449    466   1      0.1090 284512.0000
    449    467   1      0.1090 284512.0000
    450    451   1      0.1529 224262.4000
    450    468   1      0.1090 284512.0000
    450    469   1      0.1090 284512.0000
    451    452   1      0.1529 224262.4000
    451    470   1      0.1090 284512.0000
    451    471   1      0.1090 284512.0000
    452    453   1      0.1529 224262.4000
    452    472   1      0.1090 284512.0000
    452    473   1      0.1090 284512.0000
    453    454   1      0.1529 224262.4000
    453    474   1      0.1090 284512.0000
    453    475   1      0.1090 284512.0000
    454    455   1      0.1522 265265.6000
    454    476   1      0.1090 284512.0000
    454    477   1      0.1090 284512.0000
    455    456   1      0.1229 476976.0000
    455    478   1      0.1335 410032.0000
    478    479   1      0.1449 282001.6000
    478    491   1      0.1010 363171.2000
    479    480   1      0.1529 224262.4000
    479    492   1      0.1090 284512.0000
    479    493   1      0.1090 284512.0000
    480    481   1      0.1529 224262.4000
    480    494   1      0.1090 284512.0000
    480    495   1      0.1090 284512.0000
    481    482   1      0.1529 224262.4000
    481    496   1      0.1090 284512.0000
    481    497   1      0.1090 284512.0000
    482    483   1      0.1529 224262.4000
    482    498   1      0.1090 284512.0000
    482    499   1      0.1090 284512.0000
    483    484   1      0.1529 224262.4000
    483    500   1      0.1090 284512.0000
    483    501   1      0.1090 284512.0000
    484    485   1      0.1529 224262.4000
    484    502   1      0.1090 284512.0000
    484    503   1      0.1090 284512.0000
    485    486   1      0.1529 224262.4000
    485    504   1      0.1090 284512.0000
    485    505   1      0.1090 284512.0000
    486    487   1      0.1529 224262.4000
    486    506   1      0.1090 284512.0000
    486    507   1      0.1090 284512.0000
    487    488   1      0.1529 224262.4000
    487    508   1      0.1090 284512.0000
    487    509   1      0.1090 284512.0000
    488    489   1      0.1522 265265.6000
    488    510   1      0.1090 284512.0000
    488    511   1      0.1090 284512.0000
    489    490   1      0.1229 476976.0000
    489    512   1      0.1335 410032.0000
    512    513   1      0.1449 282001.6000
    512    525   1      0.1010 363171.2000
    513    514   1      0.1529 224262.4000
    513    526   1      0.1090 284512.0000
    513    527   1      0.1090 284512.0000
    514    515   1      0.1529 224262.4000
    514    528   1      0.1090 284512.0000
    514    529   1      0.1090 284512.0000
    515    516   1      0.1529 224262.4000
    515    530   1      0.1090 284512.0000
    515    531   1      0.1090 284512.0000
    516    517   1      0.1529 224262.4000
    516    532   1      0.1090 284512.0000
    516    533   1      0.1090 284512.0000
    517    518   1      0.1529 224262.4000
    517    534   1      0.1090 284512.0000
    517    535   1      0.1090 284512.0000
    518    519   1      0.1529 224262.4000
    518    536   1      0.1090 284512.0000
    518    537   1      0.1090 284512.0000
    519    520   1      0.1529 224262.4000
    519    538   1      0.1090 284512.0000
    519    539   1      0.1090 284512.0000
    520    521   1      0.1529 224262.4000
    520    540   1      0.1090 284512.0000
    520    541   1      0.1090 284512.0000
    521    522   1      0.1529 224262.4000
    521    542   1      0.1090 284512.0000
    521    543   1      0.1090 284512.0000
    522    523   1      0.1522 265265.6000
    522    544   1      0.1090 284512.0000
    522    545   1      0.1090 284512.0000
    523    524   1      0.1229 476976.0000
    523    546   1      0.1335 410032.0000
    546    547   1      0.1449 282001.6000
    546    559   1      0.1010 363171.2000
    547    548   1      0.1529 224262.4000
    547    560   1      0.1090 284512.0000
    547    561   1      0.1090 284512.0000
    548    549   1      0.1529 224262.4000
    548    562   1      0.1090 284512.0000
    548    563   1      0.1090 284512.0000
    549    550   1      0.1529 224262.4000
    549    564   1      0.1090 284512.0000
    549    565   1      0.1090 284512.0000
    550    551   1      0.1529 224262.4000
    550    566   1      0.1090 284512.0000
    550    567   1      0.1090 284512.0000
    551    552   1      0.1529 224262.4000
    551    568   1      0.1090 284512.0000
    551    569   1      0.1090 284512.0000
    552    553   1      0.1529 224262.4000
    552    570   1      0.1090 284512.0000
    552    571   1      0.1090 284512.0000
    553    554   1      0.1529 224262.4000
    553    572   1      0.1090 284512.0000
    553    573   1      0.1090 284512.0000
    554    555   1      0.1529 224262.4000
    554    574   1      0.1090 284512.0000
    554    575   1      0.1090 284512.0000
    555    556   1      0.1529 224262.4000
    555    576   1      0.1090 284512.0000
    555    577   1      0.1090 284512.0000
    556    557   1      0.1522 265265.6000
    556    578   1      0.1090 284512.0000
    556    579   1      0.1090 284512.0000
    557    558   1      0.1229 476976.0000
    557    580   1      0.1335 410032.0000
    580    581   1      0.1449 282001.6000
    580    593   1      0.1010 363171.2000
    581    582   1      0.1529 224262.4000
    581    594   1      0.1090 284512.0000
    581    595   1      0.1090 284512.0000
    582    583   1      0.1529 224262.4000
    582    596   1      0.1090 284512.0000
    582    597   1      0.1090 284512.0000
    583    584   1      0.1529 224262.4000
    583    598   1      0.1090 284512.0000
    583    599   1      0.1090 284512.0000
    584    585   1      0.1529 224262.4000
    584    600   1      0.1090 284512.0000
    584    601   1      0.1090 284512.0000
    585    586   1      0.1529 224262.4000
    585    602   1      0.1090 284512.0000
    585    603   1      0.1090 284512.0000
    586    587   1      0.1529 224262.4000
    586    604   1      0.1090 284512.0000
    586    605   1      0.1090 284512.0000
    587    588   1      0.1529 224262.4000
    587    606   1      0.1090 284512.0000
    587    607   1      0.1090 284512.0000
    588    589   1      0.1529 224262.4000
    588    608   1      0.1090 284512.0000
    588    609   1      0.1090 284512.0000
    589    590   1      0.1529 224262.4000
    589    610   1      0.1090 284512.0000
    589    611   1      0.1090 284512.0000
    590    591   1      0.1522 265265.6000
    590    612   1      0.1090 284512.0000
    590    613   1      0.1090 284512.0000
    591    592   1      0.1229 476976.0000
    591    614   1      0.1335 410032.0000
    614    615   1      0.1449 282001.6000
    614    627   1      0.1010 363171.2000
    615    616   1      0.1529 224262.4000
    615    628   1      0.1090 284512.0000
    615    629   1      0.1090 284512.0000
    616    617   1      0.1529 224262.4000
    616    630   1      0.1090 284512.0000
    616    631   1      0.1090 284512.0000
    617    618   1      0.1529 224262.4000
    617    632   1      0.1090 284512.0000
    617    633   1      0.1090 284512.0000
    618    619   1      0.1529 224262.4000
    618    634   1      0.1090 284512.0000
    618    635   1      0.1090 284512.0000
    619    620   1      0.1529 224262.4000
    619    636   1      0.1090 284512.0000
    619    637   1      0.1090 284512.0000
    620    621   1      0.1529 224262.4000
    620    638   1      0.1090 284512.0000
    620    639   1      0.1090 284512.0000
    621    622   1      0.1529 224262.4000
    621    640   1      0.1090 284512.0000
    621    641   1      0.1090 284512.0000
    622    623   1      0.1529 224262.4000
    622    642   1      0.1090 284512.0000
    622    643   1      0.1090 284512.0000
    623    624   1      0.1529 224262.4000
    623    644   1      0.1090 284512.0000
    623    645   1      0.1090 284512.0000
    624    625   1      0.1522 265265.6000
    624    646   1      0.1090 284512.0000
    624    647   1      0.1090 284512.0000
    625    626   1      0.1229 476976.0000
    625    648   1      0.1335 410032.0000
    648    649   1      0.1449 282001.6000
    648    661   1      0.1010 363171.2000
    649    650   1      0.1529 224262.4000
    649    662   1      0.1090 284512.0000
    649    663   1      0.1090 284512.0000
    650    651   1      0.1529 224262.4000
    650    664   1      0.1090 284512.0000
    650    665   1      0.1090 284512.0000
    651    652   1      0.1529 224262.4000
    651    666   1      0.1090 284512.0000
    651    667   1      0.1090 284512.0000
    652    653   1      0.1529 224262.4000
    652    668   1      0.1090 284512.0000
    652    669   1      0.1090 284512.0000
    653    654   1      0.1529 224262.4000
    653    670   1      0.1090 284512.0000
    653    671   1      0.1090 284512.0000
    654    655   1      0.1529 224262.4000
    654    672   1      0.1090 284512.0000
    654    673   1      0.1090 284512.0000
    655    656   1      0.1529 224262.4000
    655    674   1      0.1090 284512.0000
    655    675   1      0.1090 284512.0000
    656    657   1      0.1529 224262.4000
    656    676   1      0.1090 284512.0000
    656    677   1      0.1090 284512.0000
    657    658   1      0.1529 224262.4000
    657    678   1      0.1090 284512.0000
    657    679   1      0.1090 284512.0000
    658    659   1      0.1522 265265.6000
    658    680   1      0.1090 284512.0000
    658    681   1      0.1090 284512.0000
    659    660   1      0.1229 476976.0000
    659    682   1      0.1090 284512.0000

[ pairs ]
; ai   aj   funct   fudge_QQ  charge_i   charge_j   c6    c12
     14      3   2   0.50000     0.3600000   -0.1200000   1.995577e-06  1.069504e-11
     14     15   2   0.50000     0.3600000    0.0600000   3.467033e-07  6.771549e-13
     14     16   2   0.50000     0.3600000    0.0600000   3.467033e-07  6.771549e-13
     35      3   2   0.50000     0.3600000   -0.1200000   1.995577e-06  1.069504e-11
     35     15   2   0.50000     0.3600000    0.0600000   3.467033e-07  6.771549e-13
     35     16   2   0.50000     0.3600000    0.0600000   3.467033e-07  6.771549e-13
      1      4   2   0.50000    -0.9000000   -0.1200000   1.365727e-03  2.104311e-06
      1     17   2   0.50000    -0.9000000    0.0600000   3.355588e-04  1.884215e-07
      1     18   2   0.50000    -0.9000000    0.0600000   3.355588e-04  1.884215e-07
     15      4   2   0.50000     0.0600000   -0.1200000   1.763857e-04  1.181647e-07
     15     17   2   0.50000     0.0600000    0.0600000   4.333791e-05  1.058054e-08
     15     18   2   0.50000     0.0600000    0.0600000   4.333791e-05  1.058054e-08
     16      4   2   0.50000     0.0600000   -0.1200000   1.763857e-04  1.181647e-07
     16     17   2   0.50000     0.0600000    0.0600000   4.333791e-05  1.058054e-08
     16     18   2   0.50000     0.0600000    0.0600000   4.333791e-05  1.058054e-08
      2      5   2   0.50000     0.0600000   -0.1200000   1.015252e-03  1.866303e-06
      2     19   2   0.50000     0.0600000    0.0600000   2.494471e-04  1.671101e-07
      2     20   2   0.50000     0.0600000    0.0600000   2.494471e-04  1.671101e-07
     17      5   2   0.50000     0.0600000   -0.1200000   2.494471e-04  1.671101e-07
     17     19   2   0.50000     0.0600000    0.0600000   6.128906e-05  1.496315e-08
     17     20   2   0.50000     0.0600000    0.0600000   6.128906e-05  1.496315e-08
     18      5   2   0.50000     0.0600000   -0.1200000   2.494471e-04  1.671101e-07
     18     19   2   0.50000     0.0600000    0.0600000   6.128906e-05  1.496315e-08
     18     20   2   0.50000     0.0600000    0.0600000   6.128906e-05  1.496315e-08
      3      6   2   0.50000    -0.1200000   -0.1200000   1.015252e-03  1.866303e-06
      3     21   2   0.50000    -0.1200000    0.0600000   2.494471e-04  1.671101e-07
      3     22   2   0.50000    -0.1200000    0.0600000   2.494471e-04  1.671101e-07
     19      6   2   0.50000     0.0600000   -0.1200000   2.494471e-04  1.671101e-07
     19     21   2   0.50000     0.0600000    0.0600000   6.128906e-05  1.496315e-08
     19     22   2   0.50000     0.0600000    0.0600000   6.128906e-05  1.496315e-08
     20      6   2   0.50000     0.0600000   -0.1200000   2.494471e-04  1.671101e-07
     20     21   2   0.50000     0.0600000    0.0600000   6.128906e-05  1.496315e-08
     20     22   2   0.50000     0.0600000    0.0600000   6.128906e-05  1.496315e-08
      4      7   2   0.50000    -0.1200000   -0.1200000   1.015252e-03  1.866303e-06
      4     23   2   0.50000    -0.1200000    0.0600000   2.494471e-04  1.671101e-07
      4     24   2   0.50000    -0.1200000    0.0600000   2.494471e-04  1.671101e-07
     21      7   2   0.50000     0.0600000   -0.1200000   2.494471e-04  1.671101e-07
     21     23   2   0.50000     0.0600000    0.0600000   6.128906e-05  1.496315e-08
     21     24   2   0.50000     0.0600000    0.0600000   6.128906e-05  1.496315e-08
     22      7   2   0.50000     0.0600000   -0.1200000   2.494471e-04  1.671101e-07
     22     23   2   0.50000     0.0600000    0.0600000   6.128906e-05  1.496315e-08
     22     24   2   0.50000     0.0600000    0.0600000   6.128906e-05  1.496315e-08
      5      8   2   0.50000    -0.1200000   -0.1200000   1.015252e-03  1.866303e-06
      5     25   2   0.50000    -0.1200000    0.0600000   2.494471e-04  1.671101e-07
      5     26   2   0.50000    -0.1200000    0.0600000   2.494471e-04  1.671101e-07
     23      8   2   0.50000     0.0600000   -0.1200000   2.494471e-04  1.671101e-07
     23     25   2   0.50000     0.0600000    0.0600000   6.128906e-05  1.496315e-08
     23     26   2   0.50000     0.0600000    0.0600000   6.128906e-05  1.496315e-08
     24      8   2   0.50000     0.0600000   -0.1200000   2.494471e-04  1.671101e-07
     24     25   2   0.50000     0.0600000    0.0600000   6.128906e-05  1.496315e-08
     24     26   2   0.50000     0.0600000    0.0600000   6.128906e-05  1.496315e-08
      6      9   2   0.50000    -0.1200000   -0.1200000   1.015252e-03  1.866303e-06
      6     27   2   0.50000    -0.1200000    0.0600000   2.494471e-04  1.671101e-07
      6     28   2   0.50000    -0.1200000    0.0600000   2.494471e-04  1.671101e-07
     25      9   2   0.50000     0.0600000   -0.1200000   2.494471e-04  1.671101e-07
     25     27   2   0.50000     0.0600000    0.0600000   6.128906e-05  1.496315e-08
     25     28   2   0.50000     0.0600000    0.0600000   6.128906e-05  1.496315e-08
     26      9   2   0.50000     0.0600000   -0.1200000   2.494471e-04  1.671101e-07
     26     27   2   0.50000     0.0600000    0.0600000   6.128906e-05  1.496315e-08
     26     28   2   0.50000     0.0600000    0.0600000   6.128906e-05  1.496315e-08
      7     10   2   0.50000    -0.1200000   -0.1200000   1.015252e-03  1.866303e-06
      7     29   2   0.50000    -0.1200000    0.0600000   2.494471e-04  1.671101e-07
      7     30   2   0.50000    -0.1200000    0.0600000   2.494471e-04  1.671101e-07
     27     10   2   0.50000     0.0600000   -0.1200000   2.494471e-04  1.671101e-07
     27     29   2   0.50000     0.0600000    0.0600000   6.128906e-05  1.496315e-08
     27     30   2   0.50000     0.0600000    0.0600000   6.128906e-05  1.496315e-08
     28     10   2   0.50000     0.0600000   -0.1200000   2.494471e-04  1.671101e-07
     28     29   2   0.50000     0.0600000    0.0600000   6.128906e-05  1.496315e-08
     28     30   2   0.50000     0.0600000    0.0600000   6.128906e-05  1.496315e-08
      8     11   2   0.50000    -0.1200000   -0.1200000   1.015252e-03  1.866303e-06
      8     31   2   0.50000    -0.1200000    0.0600000   2.494471e-04  1.671101e-07
      8     32   2   0.50000    -0.1200000    0.0600000   2.494471e-04  1.671101e-07
     29     11   2   0.50000     0.0600000   -0.1200000   2.494471e-04  1.671101e-07
     29     31   2   0.50000     0.0600000    0.0600000   6.128906e-05  1.496315e-08
     29     32   2   0.50000     0.0600000    0.0600000   6.128906e-05  1.496315e-08
     30     11   2   0.50000     0.0600000   -0.1200000   2.494471e-04  1.671101e-07
     30     31   2   0.50000     0.0600000    0.0600000   6.128906e-05  1.496315e-08
     30     32   2   0.50000     0.0600000    0.0600000   6.128906e-05  1.496315e-08
      9     12   2   0.50000    -0.1200000    0.5000000   1.575021e-03  3.561100e-06
      9     33   2   0.50000    -0.1200000    0.0600000   2.494471e-04  1.671101e-07
      9     34   2   0.50000    -0.1200000    0.0600000   2.494471e-04  1.671101e-07
     31     12   2   0.50000     0.0600000    0.5000000   3.869820e-04  3.188634e-07
     31     33   2   0.50000     0.0600000    0.0600000   6.128906e-05  1.496315e-08
     31     34   2   0.50000     0.0600000    0.0600000   6.128906e-05  1.496315e-08
     32     12   2   0.50000     0.0600000    0.5000000   3.869820e-04  3.188634e-07
     32     33   2   0.50000     0.0600000    0.0600000   6.128906e-05  1.496315e-08
     32     34   2   0.50000     0.0600000    0.0600000   6.128906e-05  1.496315e-08
     10     13   2   0.50000    -0.1200000   -0.5000000   1.095425e-03  1.218041e-06
     10     36   2   0.50000    -0.1200000   -0.5000000   1.304585e-03  1.920112e-06
     33     13   2   0.50000     0.0600000   -0.5000000   2.691455e-04  1.090642e-07
     33     36   2   0.50000     0.0600000   -0.5000000   3.205360e-04  1.719281e-07
     34     13   2   0.50000     0.0600000   -0.5000000   2.691455e-04  1.090642e-07
     34     36   2   0.50000     0.0600000   -0.5000000   3.205360e-04  1.719281e-07
     11     37   2   0.50000    -0.1200000    0.0800000   1.015252e-03  1.866303e-06
     11     49   2   0.50000    -0.1200000    0.3000000   1.995577e-06  1.069504e-11
     13     37   2   0.50000    -0.5000000    0.0800000   1.095425e-03  1.218041e-06
     13     49   2   0.50000    -0.5000000    0.3000000   2.153164e-06  6.980110e-12
     12     38   2   0.50000     0.5000000   -0.1200000   1.575021e-03  3.561100e-06
     12     50   2   0.50000     0.5000000    0.0600000   3.869820e-04  3.188634e-07
     12     51   2   0.50000     0.5000000    0.0600000   3.869820e-04  3.188634e-07
     49     38   2   0.50000     0.3000000   -0.1200000   1.995577e-06  1.069504e-11
     49     50   2   0.50000     0.3000000    0.0600000   4.903125e-07  9.576416e-13
     49     51   2   0.50000     0.3000000    0.0600000   4.903125e-07  9.576416e-13
     36     39   2   0.50000    -0.5000000   -0.1200000   1.304585e-03  1.920112e-06
     36     52   2   0.50000    -0.5000000    0.0600000   3.205360e-04  1.719281e-07
     36     53   2   0.50000    -0.5000000    0.0600000   3.205360e-04  1.719281e-07
     50     39   2   0.50000     0.0600000   -0.1200000   2.494471e-04  1.671101e-07
     50     52   2   0.50000     0.0600000    0.0600000   6.128906e-05  1.496315e-08
     50     53   2   0.50000     0.0600000    0.0600000   6.128906e-05  1.496315e-08
     51     39   2   0.50000     0.0600000   -0.1200000   2.494471e-04  1.671101e-07
     51     52   2   0.50000     0.0600000    0.0600000   6.128906e-05  1.496315e-08
     51     53   2   0.50000     0.0600000    0.0600000   6.128906e-05  1.496315e-08
     37     40   2   0.50000     0.0800000   -0.1200000   1.015252e-03  1.866303e-06
     37     54   2   0.50000     0.0800000    0.0600000   2.494471e-04  1.671101e-07
     37     55   2   0.50000     0.0800000    0.0600000   2.494471e-04  1.671101e-07
     52     40   2   0.50000     0.0600000   -0.1200000   2.494471e-04  1.671101e-07
     52     54   2   0.50000     0.0600000    0.0600000   6.128906e-05  1.496315e-08
     52     55   2   0.50000     0.0600000    0.0600000   6.128906e-05  1.496315e-08
     53     40   2   0.50000     0.0600000   -0.1200000   2.494471e-04  1.671101e-07
     53     54   2   0.50000     0.0600000    0.0600000   6.128906e-05  1.496315e-08
     53     55   2   0.50000     0.0600000    0.0600000   6.128906e-05  1.496315e-08
     38     41   2   0.50000    -0.1200000   -0.1200000   1.015252e-03  1.866303e-06
     38     56   2   0.50000    -0.1200000    0.0600000   2.494471e-04  1.671101e-07
     38     57   2   0.50000    -0.1200000    0.0600000   2.494471e-04  1.671101e-07
     54     41   2   0.50000     0.0600000   -0.1200000   2.494471e-04  1.671101e-07
     54     56   2   0.50000     0.0600000    0.0600000   6.128906e-05  1.496315e-08
     54     57   2   0.50000     0.0600000    0.0600000   6.128906e-05  1.496315e-08
     55     41   2   0.50000     0.0600000   -0.1200000   2.494471e-04  1.671101e-07
     55     56   2   0.50000     0.0600000    0.0600000   6.128906e-05  1.496315e-08
     55     57   2   0.50000     0.0600000    0.0600000   6.128906e-05  1.496315e-08
     39     42   2   0.50000    -0.1200000   -0.1200000   1.015252e-03  1.866303e-06
     39     58   2   0.50000    -0.1200000    0.0600000   2.494471e-04  1.671101e-07
     39     59   2   0.50000    -0.1200000    0.0600000   2.494471e-04  1.671101e-07
     56     42   2   0.50000     0.0600000   -0.1200000   2.494471e-04  1.671101e-07
     56     58   2   0.50000     0.0600000    0.0600000   6.128906e-05  1.496315e-08
     56     59   2   0.50000     0.0600000    0.0600000   6.128906e-05  1.496315e-08
     57     42   2   0.50000     0.0600000   -0.1200000   2.494471e-04  1.671101e-07
     57     58   2   0.50000     0.0600000    0.0600000   6.128906e-05  1.496315e-08
     57     59   2   0.50000     0.0600000    0.0600000   6.128906e-05  1.496315e-08
     40     43   2   0.50000    -0.1200000   -0.1200000   1.015252e-03  1.866303e-06
     40     60   2   0.50000    -0.1200000    0.0600000   2.494471e-04  1.671101e-07
     40     61   2   0.50000    -0.1200000    0.0600000   2.494471e-04  1.671101e-07
     58     43   2   0.50000     0.0600000   -0.1200000   2.494471e-04  1.671101e-07
     58     60   2   0.50000     0.0600000    0.0600000   6.128906e-05  1.496315e-08
     58     61   2   0.50000     0.0600000    0.0600000   6.128906e-05  1.496315e-08
     59     43   2   0.50000     0.0600000   -0.1200000   2.494471e-04  1.671101e-07
     59     60   2   0.50000     0.0600000    0.0600000   6.128906e-05  1.496315e-08
     59     61   2   0.50000     0.0600000    0.0600000   6.128906e-05  1.496315e-08
     41     44   2   0.50000    -0.1200000   -0.1200000   1.015252e-03  1.866303e-06
     41     62   2   0.50000    -0.1200000    0.0600000   2.494471e-04  1.671101e-07
     41     63   2   0.50000    -0.1200000    0.0600000   2.494471e-04  1.671101e-07
     60     44   2   0.50000     0.0600000   -0.1200000   2.494471e-04  1.671101e-07
     60     62   2   0.50000     0.0600000    0.0600000   6.128906e-05  1.496315e-08
     60     63   2   0.50000     0.0600000    0.0600000   6.128906e-05  1.496315e-08
     61     44   2   0.50000     0.0600000   -0.1200000   2.494471e-04  1.671101e-07
     61     62   2   0.50000     0.0600000    0.0600000   6.128906e-05  1.496315e-08
     61     63   2   0.50000     0.0600000    0.0600000   6.128906e-05  1.496315e-08
     42     45   2   0.50000    -0.1200000   -0.1200000   1.015252e-03  1.866303e-06
     42     64   2   0.50000    -0.1200000    0.0600000   2.494471e-04  1.671101e-07
     42     65   2   0.50000    -0.1200000    0.0600000   2.494471e-04  1.671101e-07
     62     45   2   0.50000     0.0600000   -0.1200000   2.494471e-04  1.671101e-07
     62     64   2   0.50000     0.0600000    0.0600000   6.128906e-05  1.496315e-08
     62     65   2   0.50000     0.0600000    0.0600000   6.128906e-05  1.496315e-08
     63     45   2   0.50000     0.0600000   -0.1200000   2.494471e-04  1.671101e-07
     63     64   2   0.50000     0.0600000    0.0600000   6.128906e-05  1.496315e-08
     63     65   2   0.50000     0.0600000    0.0600000   6.128906e-05  1.496315e-08
     43     46   2   0.50000    -0.1200000   -0.1200000   1.015252e-03  1.866303e-06
     43     66   2   0.50000    -0.1200000    0.0600000   2.494471e-04  1.671101e-07
     43     67   2   0.50000    -0.1200000    0.0600000   2.494471e-04  1.671101e-07
     64     46   2   0.50000     0.0600000   -0.1200000   2.494471e-04  1.671101e-07
     64     66   2   0.50000     0.0600000    0.0600000   6.128906e-05  1.496315e-08
     64     67   2   0.50000     0.0600000    0.0600000   6.128906e-05  1.496315e-08
     65     46   2   0.50000     0.0600000   -0.1200000   2.494471e-04  1.671101e-07
     65     66   2   0.50000     0.0600000    0.0600000   6.128906e-05  1.496315e-08
     65     67   2   0.50000     0.0600000    0.0600000   6.128906e-05  1.496315e-08
     44     47   2   0.50000    -0.1200000    0.5000000   1.575021e-03  3.561100e-06
     44     68   2   0.50000    -0.1200000    0.0600000   2.494471e-04  1.671101e-07
     44     69   2   0.50000    -0.1200000    0.0600000   2.494471e-04  1.671101e-07
     66     47   2   0.50000     0.0600000    0.5000000   3.869820e-04  3.188634e-07
     66     68   2   0.50000     0.0600000    0.0600000   6.128906e-05  1.496315e-08
     66     69   2   0.50000     0.0600000    0.0600000   6.128906e-05  1.496315e-08
     67     47   2   0.50000     0.0600000    0.5000000   3.869820e-04  3.188634e-07
     67     68   2   0.50000     0.0600000    0.0600000   6.128906e-05  1.496315e-08
     67     69   2   0.50000     0.0600000    0.0600000   6.128906e-05  1.496315e-08
     45     48   2   0.50000    -0.1200000   -0.5000000   1.095425e-03  1.218041e-06
     45     70   2   0.50000    -0.1200000   -0.5000000   1.304585e-03  1.920112e-06
     68     48   2   0.50000     0.0600000   -0.5000000   2.691455e-04  1.090642e-07
     68     70   2   0.50000     0.0600000   -0.5000000   3.205360e-04  1.719281e-07
     69     48   2   0.50000     0.0600000   -0.5000000   2.691455e-04  1.090642e-07
     69     70   2   0.50000     0.0600000   -0.5000000   3.205360e-04  1.719281e-07
     46     71   2   0.50000    -0.1200000    0.0800000   1.015252e-03  1.866303e-06
     46     83   2   0.50000    -0.1200000    0.3000000   1.995577e-06  1.069504e-11
     48     71   2   0.50000    -0.5000000    0.0800000   1.095425e-03  1.218041e-06
     48     83   2   0.50000    -0.5000000    0.3000000   2.153164e-06  6.980110e-12
     47     72   2   0.50000     0.5000000   -0.1200000   1.575021e-03  3.561100e-06
     47     84   2   0.50000     0.5000000    0.0600000   3.869820e-04  3.188634e-07
     47     85   2   0.50000     0.5000000    0.0600000   3.869820e-04  3.188634e-07
     83     72   2   0.50000     0.3000000   -0.1200000   1.995577e-06  1.069504e-11
     83     84   2   0.50000     0.3000000    0.0600000   4.903125e-07  9.576416e-13
     83     85   2   0.50000     0.3000000    0.0600000   4.903125e-07  9.576416e-13
     70     73   2   0.50000    -0.5000000   -0.1200000   1.304585e-03  1.920112e-06
     70     86   2   0.50000    -0.5000000    0.0600000   3.205360e-04  1.719281e-07
     70     87   2   0.50000    -0.5000000    0.0600000   3.205360e-04  1.719281e-07
     84     73   2   0.50000     0.0600000   -0.1200000   2.494471e-04  1.671101e-07
     84     86   2   0.50000     0.0600000    0.0600000   6.128906e-05  1.496315e-08
     84     87   2   0.50000     0.0600000    0.0600000   6.128906e-05  1.496315e-08
     85     73   2   0.50000     0.0600000   -0.1200000   2.494471e-04  1.671101e-07
     85     86   2   0.50000     0.0600000    0.0600000   6.128906e-05  1.496315e-08
     85     87   2   0.50000     0.0600000    0.0600000   6.128906e-05  1.496315e-08
     71     74   2   0.50000     0.0800000   -0.1200000   1.015252e-03  1.866303e-06
     71     88   2   0.50000     0.0800000    0.0600000   2.494471e-04  1.671101e-07
     71     89   2   0.50000     0.0800000    0.0600000   2.494471e-04  1.671101e-07
     86     74   2   0.50000     0.0600000   -0.1200000   2.494471e-04  1.671101e-07
     86     88   2   0.50000     0.0600000    0.0600000   6.128906e-05  1.496315e-08
     86     89   2   0.50000     0.0600000    0.0600000   6.128906e-05  1.496315e-08
     87     74   2   0.50000     0.0600000   -0.1200000   2.494471e-04  1.671101e-07
     87     88   2   0.50000     0.0600000    0.0600000   6.128906e-05  1.496315e-08
     87     89   2   0.50000     0.0600000    0.0600000   6.128906e-05  1.496315e-08
     72     75   2   0.50000    -0.1200000   -0.1200000   1.015252e-03  1.866303e-06
     72     90   2   0.50000    -0.1200000    0.0600000   2.494471e-04  1.671101e-07
     72     91   2   0.50000    -0.1200000    0.0600000   2.494471e-04  1.671101e-07
     88     75   2   0.50000     0.0600000   -0.1200000   2.494471e-04  1.671101e-07
     88     90   2   0.50000     0.0600000    0.0600000   6.128906e-05  1.496315e-08
     88     91   2   0.50000     0.0600000    0.0600000   6.128906e-05  1.496315e-08
     89     75   2   0.50000     0.0600000   -0.1200000   2.494471e-04  1.671101e-07
     89     90   2   0.50000     0.0600000    0.0600000   6.128906e-05  1.496315e-08
     89     91   2   0.50000     0.0600000    0.0600000   6.128906e-05  1.496315e-08
     73     76   2   0.50000    -0.1200000   -0.1200000   1.015252e-03  1.866303e-06
     73     92   2   0.50000    -0.1200000    0.0600000   2.494471e-04  1.671101e-07
     73     93   2   0.50000    -0.1200000    0.0600000   2.494471e-04  1.671101e-07
     90     76   2   0.50000     0.0600000   -0.1200000   2.494471e-04  1.671101e-07
     90     92   2   0.50000     0.0600000    0.0600000   6.128906e-05  1.496315e-08
     90     93   2   0.50000     0.0600000    0.0600000   6.128906e-05  1.496315e-08
     91     76   2   0.50000     0.0600000   -0.1200000   2.494471e-04  1.671101e-07
     91     92   2   0.50000     0.0600000    0.0600000   6.128906e-05  1.496315e-08
     91     93   2   0.50000     0.0600000    0.0600000   6.128906e-05  1.496315e-08
     74     77   2   0.50000    -0.1200000   -0.1200000   1.015252e-03  1.866303e-06
     74     94   2   0.50000    -0.1200000    0.0600000   2.494471e-04  1.671101e-07
     74     95   2   0.50000    -0.1200000    0.0600000   2.494471e-04  1.671101e-07
     92     77   2   0.50000     0.0600000   -0.1200000   2.494471e-04  1.671101e-07
     92     94   2   0.50000     0.0600000    0.0600000   6.128906e-05  1.496315e-08
     92     95   2   0.50000     0.0600000    0.0600000   6.128906e-05  1.496315e-08
     93     77   2   0.50000     0.0600000   -0.1200000   2.494471e-04  1.671101e-07
     93     94   2   0.50000     0.0600000    0.0600000   6.128906e-05  1.496315e-08
     93     95   2   0.50000     0.0600000    0.0600000   6.128906e-05  1.496315e-08
     75     78   2   0.50000    -0.1200000   -0.1200000   1.015252e-03  1.866303e-06
     75     96   2   0.50000    -0.1200000    0.0600000   2.494471e-04  1.671101e-07
     75     97   2   0.50000    -0.1200000    0.0600000   2.494471e-04  1.671101e-07
     94     78   2   0.50000     0.0600000   -0.1200000   2.494471e-04  1.671101e-07
     94     96   2   0.50000     0.0600000    0.0600000   6.128906e-05  1.496315e-08
     94     97   2   0.50000     0.0600000    0.0600000   6.128906e-05  1.496315e-08
     95     78   2   0.50000     0.0600000   -0.1200000   2.494471e-04  1.671101e-07
     95     96   2   0.50000     0.0600000    0.0600000   6.128906e-05  1.496315e-08
     95     97   2   0.50000     0.0600000    0.0600000   6.128906e-05  1.496315e-08
     76     79   2   0.50000    -0.1200000   -0.1200000   1.015252e-03  1.866303e-06
     76     98   2   0.50000    -0.1200000    0.0600000   2.494471e-04  1.671101e-07
     76     99   2   0.50000    -0.1200000    0.0600000   2.494471e-04  1.671101e-07
     96     79   2   0.50000     0.0600000   -0.1200000   2.494471e-04  1.671101e-07
     96     98   2   0.50000     0.0600000    0.0600000   6.128906e-05  1.496315e-08
     96     99   2   0.50000     0.0600000    0.0600000   6.128906e-05  1.496315e-08
     97     79   2   0.50000     0.0600000   -0.1200000   2.494471e-04  1.671101e-07
     97     98   2   0.50000     0.0600000    0.0600000   6.128906e-05  1.496315e-08
     97     99   2   0.50000     0.0600000    0.0600000   6.128906e-05  1.496315e-08
     77     80   2   0.50000    -0.1200000   -0.1200000   1.015252e-03  1.866303e-06
     77    100   2   0.50000    -0.1200000    0.0600000   2.494471e-04  1.671101e-07
     77    101   2   0.50000    -0.1200000    0.0600000   2.494471e-04  1.671101e-07
     98     80   2   0.50000     0.0600000   -0.1200000   2.494471e-04  1.671101e-07
     98    100   2   0.50000     0.0600000    0.0600000   6.128906e-05  1.496315e-08
     98    101   2   0.50000     0.0600000    0.0600000   6.128906e-05  1.496315e-08
     99     80   2   0.50000     0.0600000   -0.1200000   2.494471e-04  1.671101e-07
     99    100   2   0.50000     0.0600000    0.0600000   6.128906e-05  1.496315e-08
     99    101   2   0.50000     0.0600000    0.0600000   6.128906e-05  1.496315e-08
     78     81   2   0.50000    -0.1200000    0.5000000   1.575021e-03  3.561100e-06
     78    102   2   0.50000    -0.1200000    0.0600000   2.494471e-04  1.671101e-07
     78    103   2   0.50000    -0.1200000    0.0600000   2.494471e-04  1.671101e-07
    100     81   2   0.50000     0.0600000    0.5000000   3.869820e-04  3.188634e-07
    100    102   2   0.50000     0.0600000    0.0600000   6.128906e-05  1.496315e-08
    100    103   2   0.50000     0.0600000    0.0600000   6.128906e-05  1.496315e-08
    101     81   2   0.50000     0.0600000    0.5000000   3.869820e-04  3.188634e-07
    101    102   2   0.50000     0.0600000    0.0600000   6.128906e-05  1.496315e-08
    101    103   2   0.50000     0.0600000    0.0600000   6.128906e-05  1.496315e-08
     79     82   2   0.50000    -0.1200000   -0.5000000   1.095425e-03  1.218041e-06
     79    104   2   0.50000    -0.1200000   -0.5000000   1.304585e-03  1.920112e-06
    102     82   2   0.50000     0.0600000   -0.5000000   2.691455e-04  1.090642e-07
    102    104   2   0.50000     0.0600000   -0.5000000   3.205360e-04  1.719281e-07
    103     82   2   0.50000     0.0600000   -0.5000000   2.691455e-04  1.090642e-07
    103    104   2   0.50000     0.0600000   -0.5000000   3.205360e-04  1.719281e-07
     80    105   2   0.50000    -0.1200000    0.0800000   1.015252e-03  1.866303e-06
     80    117   2   0.50000    -0.1200000    0.3000000   1.995577e-06  1.069504e-11
     82    105   2   0.50000    -0.5000000    0.0800000   1.095425e-03  1.218041e-06
     82    117   2   0.50000    -0.5000000    0.3000000   2.153164e-06  6.980110e-12
     81    106   2   0.50000     0.5000000   -0.1200000   1.575021e-03  3.561100e-06
     81    118   2   0.50000     0.5000000    0.0600000   3.869820e-04  3.188634e-07
     81    119   2   0.50000     0.5000000    0.0600000   3.869820e-04  3.188634e-07
    117    106   2   0.50000     0.3000000   -0.1200000   1.995577e-06  1.069504e-11
    117    118   2   0.50000     0.3000000    0.0600000   4.903125e-07  9.576416e-13
    117    119   2   0.50000     0.3000000    0.0600000   4.903125e-07  9.576416e-13
    104    107   2   0.50000    -0.5000000   -0.1200000   1.304585e-03  1.920112e-06
    104    120   2   0.50000    -0.5000000    0.0600000   3.205360e-04  1.719281e-07
    104    121   2   0.50000    -0.5000000    0.0600000   3.205360e-04  1.719281e-07
    118    107   2   0.50000     0.0600000   -0.1200000   2.494471e-04  1.671101e-07
    118    120   2   0.50000     0.0600000    0.0600000   6.128906e-05  1.496315e-08
    118    121   2   0.50000     0.0600000    0.0600000   6.128906e-05  1.496315e-08
    119    107   2   0.50000     0.0600000   -0.1200000   2.494471e-04  1.671101e-07
    119    120   2   0.50000     0.0600000    0.0600000   6.128906e-05  1.496315e-08
    119    121   2   0.50000     0.0600000    0.0600000   6.128906e-05  1.496315e-08
    105    108   2   0.50000     0.0800000   -0.1200000   1.015252e-03  1.866303e-06
    105    122   2   0.50000     0.0800000    0.0600000   2.494471e-04  1.671101e-07
    105    123   2   0.50000     0.0800000    0.0600000   2.494471e-04  1.671101e-07
    120    108   2   0.50000     0.0600000   -0.1200000   2.494471e-04  1.671101e-07
    120    122   2   0.50000     0.0600000    0.0600000   6.128906e-05  1.496315e-08
    120    123   2   0.50000     0.0600000    0.0600000   6.128906e-05  1.496315e-08
    121    108   2   0.50000     0.0600000   -0.1200000   2.494471e-04  1.671101e-07
    121    122   2   0.50000     0.0600000    0.0600000   6.128906e-05  1.496315e-08
    121    123   2   0.50000     0.0600000    0.0600000   6.128906e-05  1.496315e-08
    106    109   2   0.50000    -0.1200000   -0.1200000   1.015252e-03  1.866303e-06
    106    124   2   0.50000    -0.1200000    0.0600000   2.494471e-04  1.671101e-07
    106    125   2   0.50000    -0.1200000    0.0600000   2.494471e-04  1.671101e-07
    122    109   2   0.50000     0.0600000   -0.1200000   2.494471e-04  1.671101e-07
    122    124   2   0.50000     0.0600000    0.0600000   6.128906e-05  1.496315e-08
    122    125   2   0.50000     0.0600000    0.0600000   6.128906e-05  1.496315e-08
    123    109   2   0.50000     0.0600000   -0.1200000   2.494471e-04  1.671101e-07
    123    124   2   0.50000     0.0600000    0.0600000   6.128906e-05  1.496315e-08
    123    125   2   0.50000     0.0600000    0.0600000   6.128906e-05  1.496315e-08
    107    110   2   0.50000    -0.1200000   -0.1200000   1.015252e-03  1.866303e-06
    107    126   2   0.50000    -0.1200000    0.0600000   2.494471e-04  1.671101e-07
    107    127   2   0.50000    -0.1200000    0.0600000   2.494471e-04  1.671101e-07
    124    110   2   0.50000     0.0600000   -0.1200000   2.494471e-04  1.671101e-07
    124    126   2   0.50000     0.0600000    0.0600000   6.128906e-05  1.496315e-08
    124    127   2   0.50000     0.0600000    0.0600000   6.128906e-05  1.496315e-08
    125    110   2   0.50000     0.0600000   -0.1200000   2.494471e-04  1.671101e-07
    125    126   2   0.50000     0.0600000    0.0600000   6.128906e-05  1.496315e-08
    125    127   2   0.50000     0.0600000    0.0600000   6.128906e-05  1.496315e-08
    108    111   2   0.50000    -0.1200000   -0.1200000   1.015252e-03  1.866303e-06
    108    128   2   0.50000    -0.1200000    0.0600000   2.494471e-04  1.671101e-07
    108    129   2   0.50000    -0.1200000    0.0600000   2.494471e-04  1.671101e-07
    126    111   2   0.50000     0.0600000   -0.1200000   2.494471e-04  1.671101e-07
    126    128   2   0.50000     0.0600000    0.0600000   6.128906e-05  1.496315e-08
    126    129   2   0.50000     0.0600000    0.0600000   6.128906e-05  1.496315e-08
    127    111   2   0.50000     0.0600000   -0.1200000   2.494471e-04  1.671101e-07
    127    128   2   0.50000     0.0600000    0.0600000   6.128906e-05  1.496315e-08
    127    129   2   0.50000     0.0600000    0.0600000   6.128906e-05  1.496315e-08
    109    112   2   0.50000    -0.1200000   -0.1200000   1.015252e-03  1.866303e-06
    109    130   2   0.50000    -0.1200000    0.0600000   2.494471e-04  1.671101e-07
    109    131   2   0.50000    -0.1200000    0.0600000   2.494471e-04  1.671101e-07
    128    112   2   0.50000     0.0600000   -0.1200000   2.494471e-04  1.671101e-07
    128    130   2   0.50000     0.0600000    0.0600000   6.128906e-05  1.496315e-08
    128    131   2   0.50000     0.0600000    0.0600000   6.128906e-05  1.496315e-08
    129    112   2   0.50000     0.0600000   -0.1200000   2.494471e-04  1.671101e-07
    129    130   2   0.50000     0.0600000    0.0600000   6.128906e-05  1.496315e-08
    129    131   2   0.50000     0.0600000    0.0600000   6.128906e-05  1.496315e-08
    110    113   2   0.50000    -0.1200000   -0.1200000   1.015252e-03  1.866303e-06
    110    132   2   0.50000    -0.1200000    0.0600000   2.494471e-04  1.671101e-07
    110    133   2   0.50000    -0.1200000    0.0600000   2.494471e-04  1.671101e-07
    130    113   2   0.50000     0.0600000   -0.1200000   2.494471e-04  1.671101e-07
    130    132   2   0.50000     0.0600000    0.0600000   6.128906e-05  1.496315e-08
    130    133   2   0.50000     0.0600000    0.0600000   6.128906e-05  1.496315e-08
    131    113   2   0.50000     0.0600000   -0.1200000   2.494471e-04  1.671101e-07
    131    132   2   0.50000     0.0600000    0.0600000   6.128906e-05  1.496315e-08
    131    133   2   0.50000     0.0600000    0.0600000   6.128906e-05  1.496315e-08
    111    114   2   0.50000    -0.1200000   -0.1200000   1.015252e-03  1.866303e-06
    111    134   2   0.50000    -0.1200000    0.0600000   2.494471e-04  1.671101e-07
    111    135   2   0.50000    -0.1200000    0.0600000   2.494471e-04  1.671101e-07
    132    114   2   0.50000     0.0600000   -0.1200000   2.494471e-04  1.671101e-07
    132    134   2   0.50000     0.0600000    0.0600000   6.128906e-05  1.496315e-08
    132    135   2   0.50000     0.0600000    0.0600000   6.128906e-05  1.496315e-08
    133    114   2   0.50000     0.0600000   -0.1200000   2.494471e-04  1.671101e-07
    133    134   2   0.50000     0.0600000    0.0600000   6.128906e-05  1.496315e-08
    133    135   2   0.50000     0.0600000    0.0600000   6.128906e-05  1.496315e-08
    112    115   2   0.50000    -0.1200000    0.5000000   1.575021e-03  3.561100e-06
    112    136   2   0.50000    -0.1200000    0.0600000   2.494471e-04  1.671101e-07
    112    137   2   0.50000    -0.1200000    0.0600000   2.494471e-04  1.671101e-07
    134    115   2   0.50000     0.0600000    0.5000000   3.869820e-04  3.188634e-07
    134    136   2   0.50000     0.0600000    0.0600000   6.128906e-05  1.496315e-08
    134    137   2   0.50000     0.0600000    0.0600000   6.128906e-05  1.496315e-08
    135    115   2   0.50000     0.0600000    0.5000000   3.869820e-04  3.188634e-07
    135    136   2   0.50000     0.0600000    0.0600000   6.128906e-05  1.496315e-08
    135    137   2   0.50000     0.0600000    0.0600000   6.128906e-05  1.496315e-08
    113    116   2   0.50000    -0.1200000   -0.5000000   1.095425e-03  1.218041e-06
    113    138   2   0.50000    -0.1200000   -0.5000000   1.304585e-03  1.920112e-06
    136    116   2   0.50000     0.0600000   -0.5000000   2.691455e-04  1.090642e-07
    136    138   2   0.50000     0.0600000   -0.5000000   3.205360e-04  1.719281e-07
    137    116   2   0.50000     0.0600000   -0.5000000   2.691455e-04  1.090642e-07
    137    138   2   0.50000     0.0600000   -0.5000000   3.205360e-04  1.719281e-07
    114    139   2   0.50000    -0.1200000    0.0800000   1.015252e-03  1.866303e-06
    114    151   2   0.50000    -0.1200000    0.3000000   1.995577e-06  1.069504e-11
    116    139   2   0.50000    -0.5000000    0.0800000   1.095425e-03  1.218041e-06
    116    151   2   0.50000    -0.5000000    0.3000000   2.153164e-06  6.980110e-12
    115    140   2   0.50000     0.5000000   -0.1200000   1.575021e-03  3.561100e-06
    115    152   2   0.50000     0.5000000    0.0600000   3.869820e-04  3.188634e-07
    115    153   2   0.50000     0.5000000    0.0600000   3.869820e-04  3.188634e-07
    151    140   2   0.50000     0.3000000   -0.1200000   1.995577e-06  1.069504e-11
    151    152   2   0.50000     0.3000000    0.0600000   4.903125e-07  9.576416e-13
    151    153   2   0.50000     0.3000000    0.0600000   4.903125e-07  9.576416e-13
    138    141   2   0.50000    -0.5000000   -0.1200000   1.304585e-03  1.920112e-06
    138    154   2   0.50000    -0.5000000    0.0600000   3.205360e-04  1.719281e-07
    138    155   2   0.50000    -0.5000000    0.0600000   3.205360e-04  1.719281e-07
    152    141   2   0.50000     0.0600000   -0.1200000   2.494471e-04  1.671101e-07
    152    154   2   0.50000     0.0600000    0.0600000   6.128906e-05  1.496315e-08
    152    155   2   0.50000     0.0600000    0.0600000   6.128906e-05  1.496315e-08
    153    141   2   0.50000     0.0600000   -0.1200000   2.494471e-04  1.671101e-07
    153    154   2   0.50000     0.0600000    0.0600000   6.128906e-05  1.496315e-08
    153    155   2   0.50000     0.0600000    0.0600000   6.128906e-05  1.496315e-08
    139    142   2   0.50000     0.0800000   -0.1200000   1.015252e-03  1.866303e-06
    139    156   2   0.50000     0.0800000    0.0600000   2.494471e-04  1.671101e-07
    139    157   2   0.50000     0.0800000    0.0600000   2.494471e-04  1.671101e-07
    154    142   2   0.50000     0.0600000   -0.1200000   2.494471e-04  1.671101e-07
    154    156   2   0.50000     0.0600000    0.0600000   6.128906e-05  1.496315e-08
    154    157   2   0.50000     0.0600000    0.0600000   6.128906e-05  1.496315e-08
    155    142   2   0.50000     0.0600000   -0.1200000   2.494471e-04  1.671101e-07
    155    156   2   0.50000     0.0600000    0.0600000   6.128906e-05  1.496315e-08
    155    157   2   0.50000     0.0600000    0.0600000   6.128906e-05  1.496315e-08
    140    143   2   0.50000    -0.1200000   -0.1200000   1.015252e-03  1.866303e-06
    140    158   2   0.50000    -0.1200000    0.0600000   2.494471e-04  1.671101e-07
    140    159   2   0.50000    -0.1200000    0.0600000   2.494471e-04  1.671101e-07
    156    143   2   0.50000     0.0600000   -0.1200000   2.494471e-04  1.671101e-07
    156    158   2   0.50000     0.0600000    0.0600000   6.128906e-05  1.496315e-08
    156    159   2   0.50000     0.0600000    0.0600000   6.128906e-05  1.496315e-08
    157    143   2   0.50000     0.0600000   -0.1200000   2.494471e-04  1.671101e-07
    157    158   2   0.50000     0.0600000    0.0600000   6.128906e-05  1.496315e-08
    157    159   2   0.50000     0.0600000    0.0600000   6.128906e-05  1.496315e-08
    141    144   2   0.50000    -0.1200000   -0.1200000   1.015252e-03  1.866303e-06
    141    160   2   0.50000    -0.1200000    0.0600000   2.494471e-04  1.671101e-07
    141    161   2   0.50000    -0.1200000    0.0600000   2.494471e-04  1.671101e-07
    158    144   2   0.50000     0.0600000   -0.1200000   2.494471e-04  1.671101e-07
    158    160   2   0.50000     0.0600000    0.0600000   6.128906e-05  1.496315e-08
    158    161   2   0.50000     0.0600000    0.0600000   6.128906e-05  1.496315e-08
    159    144   2   0.50000     0.0600000   -0.1200000   2.494471e-04  1.671101e-07
    159    160   2   0.50000     0.0600000    0.0600000   6.128906e-05  1.496315e-08
    159    161   2   0.50000     0.0600000    0.0600000   6.128906e-05  1.496315e-08
    142    145   2   0.50000    -0.1200000   -0.1200000   1.015252e-03  1.866303e-06
    142    162   2   0.50000    -0.1200000    0.0600000   2.494471e-04  1.671101e-07
    142    163   2   0.50000    -0.1200000    0.0600000   2.494471e-04  1.671101e-07
    160    145   2   0.50000     0.0600000   -0.1200000   2.494471e-04  1.671101e-07
    160    162   2   0.50000     0.0600000    0.0600000   6.128906e-05  1.496315e-08
    160    163   2   0.50000     0.0600000    0.0600000   6.128906e-05  1.496315e-08
    161    145   2   0.50000     0.0600000   -0.1200000   2.494471e-04  1.671101e-07
    161    162   2   0.50000     0.0600000    0.0600000   6.128906e-05  1.496315e-08
    161    163   2   0.50000     0.0600000    0.0600000   6.128906e-05  1.496315e-08
    143    146   2   0.50000    -0.1200000   -0.1200000   1.015252e-03  1.866303e-06
    143    164   2   0.50000    -0.1200000    0.0600000   2.494471e-04  1.671101e-07
    143    165   2   0.50000    -0.1200000    0.0600000   2.494471e-04  1.671101e-07
    162    146   2   0.50000     0.0600000   -0.1200000   2.494471e-04  1.671101e-07
    162    164   2   0.50000     0.0600000    0.0600000   6.128906e-05  1.496315e-08
    162    165   2   0.50000     0.0600000    0.0600000   6.128906e-05  1.496315e-08
    163    146   2   0.50000     0.0600000   -0.1200000   2.494471e-04  1.671101e-07
    163    164   2   0.50000     0.0600000    0.0600000   6.128906e-05  1.496315e-08
    163    165   2   0.50000     0.0600000    0.0600000   6.128906e-05  1.496315e-08
    144    147   2   0.50000    -0.1200000   -0.1200000   1.015252e-03  1.866303e-06
    144    166   2   0.50000    -0.1200000    0.0600000   2.494471e-04  1.671101e-07
    144    167   2   0.50000    -0.1200000    0.0600000   2.494471e-04  1.671101e-07
    164    147   2   0.50000     0.0600000   -0.1200000   2.494471e-04  1.671101e-07
    164    166   2   0.50000     0.0600000    0.0600000   6.128906e-05  1.496315e-08
    164    167   2   0.50000     0.0600000    0.0600000   6.128906e-05  1.496315e-08
    165    147   2   0.50000     0.0600000   -0.1200000   2.494471e-04  1.671101e-07
    165    166   2   0.50000     0.0600000    0.0600000   6.128906e-05  1.496315e-08
    165    167   2   0.50000     0.0600000    0.0600000   6.128906e-05  1.496315e-08
    145    148   2   0.50000    -0.1200000   -0.1200000   1.015252e-03  1.866303e-06
    145    168   2   0.50000    -0.1200000    0.0600000   2.494471e-04  1.671101e-07
    145    169   2   0.50000    -0.1200000    0.0600000   2.494471e-04  1.671101e-07
    166    148   2   0.50000     0.0600000   -0.1200000   2.494471e-04  1.671101e-07
    166    168   2   0.50000     0.0600000    0.0600000   6.128906e-05  1.496315e-08
    166    169   2   0.50000     0.0600000    0.0600000   6.128906e-05  1.496315e-08
    167    148   2   0.50000     0.0600000   -0.1200000   2.494471e-04  1.671101e-07
    167    168   2   0.50000     0.0600000    0.0600000   6.128906e-05  1.496315e-08
    167    169   2   0.50000     0.0600000    0.0600000   6.128906e-05  1.496315e-08
    146    149   2   0.50000    -0.1200000    0.5000000   1.575021e-03  3.561100e-06
    146    170   2   0.50000    -0.1200000    0.0600000   2.494471e-04  1.671101e-07
    146    171   2   0.50000    -0.1200000    0.0600000   2.494471e-04  1.671101e-07
    168    149   2   0.50000     0.0600000    0.5000000   3.869820e-04  3.188634e-07
    168    170   2   0.50000     0.0600000    0.0600000   6.128906e-05  1.496315e-08
    168    171   2   0.50000     0.0600000    0.0600000   6.128906e-05  1.496315e-08
    169    149   2   0.50000     0.0600000    0.5000000   3.869820e-04  3.188634e-07
    169    170   2   0.50000     0.0600000    0.0600000   6.128906e-05  1.496315e-08
    169    171   2   0.50000     0.0600000    0.0600000   6.128906e-05  1.496315e-08
    147    150   2   0.50000    -0.1200000   -0.5000000   1.095425e-03  1.218041e-06
    147    172   2   0.50000    -0.1200000   -0.5000000   1.304585e-03  1.920112e-06
    170    150   2   0.50000     0.0600000   -0.5000000   2.691455e-04  1.090642e-07
    170    172   2   0.50000     0.0600000   -0.5000000   3.205360e-04  1.719281e-07
    171    150   2   0.50000     0.0600000   -0.5000000   2.691455e-04  1.090642e-07
    171    172   2   0.50000     0.0600000   -0.5000000   3.205360e-04  1.719281e-07
    148    173   2   0.50000    -0.1200000    0.0800000   1.015252e-03  1.866303e-06
    148    185   2   0.50000    -0.1200000    0.3000000   1.995577e-06  1.069504e-11
    150    173   2   0.50000    -0.5000000    0.0800000   1.095425e-03  1.218041e-06
    150    185   2   0.50000    -0.5000000    0.3000000   2.153164e-06  6.980110e-12
    149    174   2   0.50000     0.5000000   -0.1200000   1.575021e-03  3.561100e-06
    149    186   2   0.50000     0.5000000    0.0600000   3.869820e-04  3.188634e-07
    149    187   2   0.50000     0.5000000    0.0600000   3.869820e-04  3.188634e-07
    185    174   2   0.50000     0.3000000   -0.1200000   1.995577e-06  1.069504e-11
    185    186   2   0.50000     0.3000000    0.0600000   4.903125e-07  9.576416e-13
    185    187   2   0.50000     0.3000000    0.0600000   4.903125e-07  9.576416e-13
    172    175   2   0.50000    -0.5000000   -0.1200000   1.304585e-03  1.920112e-06
    172    188   2   0.50000    -0.5000000    0.0600000   3.205360e-04  1.719281e-07
    172    189   2   0.50000    -0.5000000    0.0600000   3.205360e-04  1.719281e-07
    186    175   2   0.50000     0.0600000   -0.1200000   2.494471e-04  1.671101e-07
    186    188   2   0.50000     0.0600000    0.0600000   6.128906e-05  1.496315e-08
    186    189   2   0.50000     0.0600000    0.0600000   6.128906e-05  1.496315e-08
    187    175   2   0.50000     0.0600000   -0.1200000   2.494471e-04  1.671101e-07
    187    188   2   0.50000     0.0600000    0.0600000   6.128906e-05  1.496315e-08
    187    189   2   0.50000     0.0600000    0.0600000   6.128906e-05  1.496315e-08
    173    176   2   0.50000     0.0800000   -0.1200000   1.015252e-03  1.866303e-06
    173    190   2   0.50000     0.0800000    0.0600000   2.494471e-04  1.671101e-07
    173    191   2   0.50000     0.0800000    0.0600000   2.494471e-04  1.671101e-07
    188    176   2   0.50000     0.0600000   -0.1200000   2.494471e-04  1.671101e-07
    188    190   2   0.50000     0.0600000    0.0600000   6.128906e-05  1.496315e-08
    188    191   2   0.50000     0.0600000    0.0600000   6.128906e-05  1.496315e-08
    189    176   2   0.50000     0.0600000   -0.1200000   2.494471e-04  1.671101e-07
    189    190   2   0.50000     0.0600000    0.0600000   6.128906e-05  1.496315e-08
    189    191   2   0.50000     0.0600000    0.0600000   6.128906e-05  1.496315e-08
    174    177   2   0.50000    -0.1200000   -0.1200000   1.015252e-03  1.866303e-06
    174    192   2   0.50000    -0.1200000    0.0600000   2.494471e-04  1.671101e-07
    174    193   2   0.50000    -0.1200000    0.0600000   2.494471e-04  1.671101e-07
    190    177   2   0.50000     0.0600000   -0.1200000   2.494471e-04  1.671101e-07
    190    192   2   0.50000     0.0600000    0.0600000   6.128906e-05  1.496315e-08
    190    193   2   0.50000     0.0600000    0.0600000   6.128906e-05  1.496315e-08
    191    177   2   0.50000     0.0600000   -0.1200000   2.494471e-04  1.671101e-07
    191    192   2   0.50000     0.0600000    0.0600000   6.128906e-05  1.496315e-08
    191    193   2   0.50000     0.0600000    0.0600000   6.128906e-05  1.496315e-08
    175    178   2   0.50000    -0.1200000   -0.1200000   1.015252e-03  1.866303e-06
    175    194   2   0.50000    -0.1200000    0.0600000   2.494471e-04  1.671101e-07
    175    195   2   0.50000    -0.1200000    0.0600000   2.494471e-04  1.671101e-07
    192    178   2   0.50000     0.0600000   -0.1200000   2.494471e-04  1.671101e-07
    192    194   2   0.50000     0.0600000    0.0600000   6.128906e-05  1.496315e-08
    192    195   2   0.50000     0.0600000    0.0600000   6.128906e-05  1.496315e-08
    193    178   2   0.50000     0.0600000   -0.1200000   2.494471e-04  1.671101e-07
    193    194   2   0.50000     0.0600000    0.0600000   6.128906e-05  1.496315e-08
    193    195   2   0.50000     0.0600000    0.0600000   6.128906e-05  1.496315e-08
    176    179   2   0.50000    -0.1200000   -0.1200000   1.015252e-03  1.866303e-06
    176    196   2   0.50000    -0.1200000    0.0600000   2.494471e-04  1.671101e-07
    176    197   2   0.50000    -0.1200000    0.0600000   2.494471e-04  1.671101e-07
    194    179   2   0.50000     0.0600000   -0.1200000   2.494471e-04  1.671101e-07
    194    196   2   0.50000     0.0600000    0.0600000   6.128906e-05  1.496315e-08
    194    197   2   0.50000     0.0600000    0.0600000   6.128906e-05  1.496315e-08
    195    179   2   0.50000     0.0600000   -0.1200000   2.494471e-04  1.671101e-07
    195    196   2   0.50000     0.0600000    0.0600000   6.128906e-05  1.496315e-08
    195    197   2   0.50000     0.0600000    0.0600000   6.128906e-05  1.496315e-08
    177    180   2   0.50000    -0.1200000   -0.1200000   1.015252e-03  1.866303e-06
    177    198   2   0.50000    -0.1200000    0.0600000   2.494471e-04  1.671101e-07
    177    199   2   0.50000    -0.1200000    0.0600000   2.494471e-04  1.671101e-07
    196    180   2   0.50000     0.0600000   -0.1200000   2.494471e-04  1.671101e-07
    196    198   2   0.50000     0.0600000    0.0600000   6.128906e-05  1.496315e-08
    196    199   2   0.50000     0.0600000    0.0600000   6.128906e-05  1.496315e-08
    197    180   2   0.50000     0.0600000   -0.1200000   2.494471e-04  1.671101e-07
    197    198   2   0.50000     0.0600000    0.0600000   6.128906e-05  1.496315e-08
    197    199   2   0.50000     0.0600000    0.0600000   6.128906e-05  1.496315e-08
    178    181   2   0.50000    -0.1200000   -0.1200000   1.015252e-03  1.866303e-06
    178    200   2   0.50000    -0.1200000    0.0600000   2.494471e-04  1.671101e-07
    178    201   2   0.50000    -0.1200000    0.0600000   2.494471e-04  1.671101e-07
    198    181   2   0.50000     0.0600000   -0.1200000   2.494471e-04  1.671101e-07
    198    200   2   0.50000     0.0600000    0.0600000   6.128906e-05  1.496315e-08
    198    201   2   0.50000     0.0600000    0.0600000   6.128906e-05  1.496315e-08
    199    181   2   0.50000     0.0600000   -0.1200000   2.494471e-04  1.671101e-07
    199    200   2   0.50000     0.0600000    0.0600000   6.128906e-05  1.496315e-08
    199    201   2   0.50000     0.0600000    0.0600000   6.128906e-05  1.496315e-08
    179    182   2   0.50000    -0.1200000   -0.1200000   1.015252e-03  1.866303e-06
    179    202   2   0.50000    -0.1200000    0.0600000   2.494471e-04  1.671101e-07
    179    203   2   0.50000    -0.1200000    0.0600000   2.494471e-04  1.671101e-07
    200    182   2   0.50000     0.0600000   -0.1200000   2.494471e-04  1.671101e-07
    200    202   2   0.50000     0.0600000    0.0600000   6.128906e-05  1.496315e-08
    200    203   2   0.50000     0.0600000    0.0600000   6.128906e-05  1.496315e-08
    201    182   2   0.50000     0.0600000   -0.1200000   2.494471e-04  1.671101e-07
    201    202   2   0.50000     0.0600000    0.0600000   6.128906e-05  1.496315e-08
    201    203   2   0.50000     0.0600000    0.0600000   6.128906e-05  1.496315e-08
    180    183   2   0.50000    -0.1200000    0.5000000   1.575021e-03  3.561100e-06
    180    204   2   0.50000    -0.1200000    0.0600000   2.494471e-04  1.671101e-07
    180    205   2   0.50000    -0.1200000    0.0600000   2.494471e-04  1.671101e-07
    202    183   2   0.50000     0.0600000    0.5000000   3.869820e-04  3.188634e-07
    202    204   2   0.50000     0.0600000    0.0600000   6.128906e-05  1.496315e-08
    202    205   2   0.50000     0.0600000    0.0600000   6.128906e-05  1.496315e-08
    203    183   2   0.50000     0.0600000    0.5000000   3.869820e-04  3.188634e-07
    203    204   2   0.50000     0.0600000    0.0600000   6.128906e-05  1.496315e-08
    203    205   2   0.50000     0.0600000    0.0600000   6.128906e-05  1.496315e-08
    181    184   2   0.50000    -0.1200000   -0.5000000   1.095425e-03  1.218041e-06
    181    206   2   0.50000    -0.1200000   -0.5000000   1.304585e-03  1.920112e-06
    204    184   2   0.50000     0.0600000   -0.5000000   2.691455e-04  1.090642e-07
    204    206   2   0.50000     0.0600000   -0.5000000   3.205360e-04  1.719281e-07
    205    184   2   0.50000     0.0600000   -0.5000000   2.691455e-04  1.090642e-07
    205    206   2   0.50000     0.0600000   -0.5000000   3.205360e-04  1.719281e-07
    182    207   2   0.50000    -0.1200000    0.0800000   1.015252e-03  1.866303e-06
    182    219   2   0.50000    -0.1200000    0.3000000   1.995577e-06  1.069504e-11
    184    207   2   0.50000    -0.5000000    0.0800000   1.095425e-03  1.218041e-06
    184    219   2   0.50000    -0.5000000    0.3000000   2.153164e-06  6.980110e-12
    183    208   2   0.50000     0.5000000   -0.1200000   1.575021e-03  3.561100e-06
    183    220   2   0.50000     0.5000000    0.0600000   3.869820e-04  3.188634e-07
    183    221   2   0.50000     0.5000000    0.0600000   3.869820e-04  3.188634e-07
    219    208   2   0.50000     0.3000000   -0.1200000   1.995577e-06  1.069504e-11
    219    220   2   0.50000     0.3000000    0.0600000   4.903125e-07  9.576416e-13
    219    221   2   0.50000     0.3000000    0.0600000   4.903125e-07  9.576416e-13
    206    209   2   0.50000    -0.5000000   -0.1200000   1.304585e-03  1.920112e-06
    206    222   2   0.50000    -0.5000000    0.0600000   3.205360e-04  1.719281e-07
    206    223   2   0.50000    -0.5000000    0.0600000   3.205360e-04  1.719281e-07
    220    209   2   0.50000     0.0600000   -0.1200000   2.494471e-04  1.671101e-07
    220    222   2   0.50000     0.0600000    0.0600000   6.128906e-05  1.496315e-08
    220    223   2   0.50000     0.0600000    0.0600000   6.128906e-05  1.496315e-08
    221    209   2   0.50000     0.0600000   -0.1200000   2.494471e-04  1.671101e-07
    221    222   2   0.50000     0.0600000    0.0600000   6.128906e-05  1.496315e-08
    221    223   2   0.50000     0.0600000    0.0600000   6.128906e-05  1.496315e-08
    207    210   2   0.50000     0.0800000   -0.1200000   1.015252e-03  1.866303e-06
    207    224   2   0.50000     0.0800000    0.0600000   2.494471e-04  1.671101e-07
    207    225   2   0.50000     0.0800000    0.0600000   2.494471e-04  1.671101e-07
    222    210   2   0.50000     0.0600000   -0.1200000   2.494471e-04  1.671101e-07
    222    224   2   0.50000     0.0600000    0.0600000   6.128906e-05  1.496315e-08
    222    225   2   0.50000     0.0600000    0.0600000   6.128906e-05  1.496315e-08
    223    210   2   0.50000     0.0600000   -0.1200000   2.494471e-04  1.671101e-07
    223    224   2   0.50000     0.0600000    0.0600000   6.128906e-05  1.496315e-08
    223    225   2   0.50000     0.0600000    0.0600000   6.128906e-05  1.496315e-08
    208    211   2   0.50000    -0.1200000   -0.1200000   1.015252e-03  1.866303e-06
    208    226   2   0.50000    -0.1200000    0.0600000   2.494471e-04  1.671101e-07
    208    227   2   0.50000    -0.1200000    0.0600000   2.494471e-04  1.671101e-07
    224    211   2   0.50000     0.0600000   -0.1200000   2.494471e-04  1.671101e-07
    224    226   2   0.50000     0.0600000    0.0600000   6.128906e-05  1.496315e-08
    224    227   2   0.50000     0.0600000    0.0600000   6.128906e-05  1.496315e-08
    225    211   2   0.50000     0.0600000   -0.1200000   2.494471e-04  1.671101e-07
    225    226   2   0.50000     0.0600000    0.0600000   6.128906e-05  1.496315e-08
    225    227   2   0.50000     0.0600000    0.0600000   6.128906e-05  1.496315e-08
    209    212   2   0.50000    -0.1200000   -0.1200000   1.015252e-03  1.866303e-06
    209    228   2   0.50000    -0.1200000    0.0600000   2.494471e-04  1.671101e-07
    209    229   2   0.50000    -0.1200000    0.0600000   2.494471e-04  1.671101e-07
    226    212   2   0.50000     0.0600000   -0.1200000   2.494471e-04  1.671101e-07
    226    228   2   0.50000     0.0600000    0.0600000   6.128906e-05  1.496315e-08
    226    229   2   0.50000     0.0600000    0.0600000   6.128906e-05  1.496315e-08
    227    212   2   0.50000     0.0600000   -0.1200000   2.494471e-04  1.671101e-07
    227    228   2   0.50000     0.0600000    0.0600000   6.128906e-05  1.496315e-08
    227    229   2   0.50000     0.0600000    0.0600000   6.128906e-05  1.496315e-08
    210    213   2   0.50000    -0.1200000   -0.1200000   1.015252e-03  1.866303e-06
    210    230   2   0.50000    -0.1200000    0.0600000   2.494471e-04  1.671101e-07
    210    231   2   0.50000    -0.1200000    0.0600000   2.494471e-04  1.671101e-07
    228    213   2   0.50000     0.0600000   -0.1200000   2.494471e-04  1.671101e-07
    228    230   2   0.50000     0.0600000    0.0600000   6.128906e-05  1.496315e-08
    228    231   2   0.50000     0.0600000    0.0600000   6.128906e-05  1.496315e-08
    229    213   2   0.50000     0.0600000   -0.1200000   2.494471e-04  1.671101e-07
    229    230   2   0.50000     0.0600000    0.0600000   6.128906e-05  1.496315e-08
    229    231   2   0.50000     0.0600000    0.0600000   6.128906e-05  1.496315e-08
    211    214   2   0.50000    -0.1200000   -0.1200000   1.015252e-03  1.866303e-06
    211    232   2   0.50000    -0.1200000    0.0600000   2.494471e-04  1.671101e-07
    211    233   2   0.50000    -0.1200000    0.0600000   2.494471e-04  1.671101e-07
    230    214   2   0.50000     0.0600000   -0.1200000   2.494471e-04  1.671101e-07
    230    232   2   0.50000     0.0600000    0.0600000   6.128906e-05  1.496315e-08
    230    233   2   0.50000     0.0600000    0.0600000   6.128906e-05  1.496315e-08
    231    214   2   0.50000     0.0600000   -0.1200000   2.494471e-04  1.671101e-07
    231    232   2   0.50000     0.0600000    0.0600000   6.128906e-05  1.496315e-08
    231    233   2   0.50000     0.0600000    0.0600000   6.128906e-05  1.496315e-08
    212    215   2   0.50000    -0.1200000   -0.1200000   1.015252e-03  1.866303e-06
    212    234   2   0.50000    -0.1200000    0.0600000   2.494471e-04  1.671101e-07
    212    235   2   0.50000    -0.1200000    0.0600000   2.494471e-04  1.671101e-07
    232    215   2   0.50000     0.0600000   -0.1200000   2.494471e-04  1.671101e-07
    232    234   2   0.50000     0.0600000    0.0600000   6.128906e-05  1.496315e-08
    232    235   2   0.50000     0.0600000    0.0600000   6.128906e-05  1.496315e-08
    233    215   2   0.50000     0.0600000   -0.1200000   2.494471e-04  1.671101e-07
    233    234   2   0.50000     0.0600000    0.0600000   6.128906e-05  1.496315e-08
    233    235   2   0.50000     0.0600000    0.0600000   6.128906e-05  1.496315e-08
    213    216   2   0.50000    -0.1200000   -0.1200000   1.015252e-03  1.866303e-06
    213    236   2   0.50000    -0.1200000    0.0600000   2.494471e-04  1.671101e-07
    213    237   2   0.50000    -0.1200000    0.0600000   2.494471e-04  1.671101e-07
    234    216   2   0.50000     0.0600000   -0.1200000   2.494471e-04  1.671101e-07
    234    236   2   0.50000     0.0600000    0.0600000   6.128906e-05  1.496315e-08
    234    237   2   0.50000     0.0600000    0.0600000   6.128906e-05  1.496315e-08
    235    216   2   0.50000     0.0600000   -0.1200000   2.494471e-04  1.671101e-07
    235    236   2   0.50000     0.0600000    0.0600000   6.128906e-05  1.496315e-08
    235    237   2   0.50000     0.0600000    0.0600000   6.128906e-05  1.496315e-08
    214    217   2   0.50000    -0.1200000    0.5000000   1.575021e-03  3.561100e-06
    214    238   2   0.50000    -0.1200000    0.0600000   2.494471e-04  1.671101e-07
    214    239   2   0.50000    -0.1200000    0.0600000   2.494471e-04  1.671101e-07
    236    217   2   0.50000     0.0600000    0.5000000   3.869820e-04  3.188634e-07
    236    238   2   0.50000     0.0600000    0.0600000   6.128906e-05  1.496315e-08
    236    239   2   0.50000     0.0600000    0.0600000   6.128906e-05  1.496315e-08
    237    217   2   0.50000     0.0600000    0.5000000   3.869820e-04  3.188634e-07
    237    238   2   0.50000     0.0600000    0.0600000   6.128906e-05  1.496315e-08
    237    239   2   0.50000     0.0600000    0.0600000   6.128906e-05  1.496315e-08
    215    218   2   0.50000    -0.1200000   -0.5000000   1.095425e-03  1.218041e-06
    215    240   2   0.50000    -0.1200000   -0.5000000   1.304585e-03  1.920112e-06
    238    218   2   0.50000     0.0600000   -0.5000000   2.691455e-04  1.090642e-07
    238    240   2   0.50000     0.0600000   -0.5000000   3.205360e-04  1.719281e-07
    239    218   2   0.50000     0.0600000   -0.5000000   2.691455e-04  1.090642e-07
    239    240   2   0.50000     0.0600000   -0.5000000   3.205360e-04  1.719281e-07
    216    241   2   0.50000    -0.1200000    0.0800000   1.015252e-03  1.866303e-06
    216    253   2   0.50000    -0.1200000    0.3000000   1.995577e-06  1.069504e-11
    218    241   2   0.50000    -0.5000000    0.0800000   1.095425e-03  1.218041e-06
    218    253   2   0.50000    -0.5000000    0.3000000   2.153164e-06  6.980110e-12
    217    242   2   0.50000     0.5000000   -0.1200000   1.575021e-03  3.561100e-06
    217    254   2   0.50000     0.5000000    0.0600000   3.869820e-04  3.188634e-07
    217    255   2   0.50000     0.5000000    0.0600000   3.869820e-04  3.188634e-07
    253    242   2   0.50000     0.3000000   -0.1200000   1.995577e-06  1.069504e-11
    253    254   2   0.50000     0.3000000    0.0600000   4.903125e-07  9.576416e-13
    253    255   2   0.50000     0.3000000    0.0600000   4.903125e-07  9.576416e-13
    240    243   2   0.50000    -0.5000000   -0.1200000   1.304585e-03  1.920112e-06
    240    256   2   0.50000    -0.5000000    0.0600000   3.205360e-04  1.719281e-07
    240    257   2   0.50000    -0.5000000    0.0600000   3.205360e-04  1.719281e-07
    254    243   2   0.50000     0.0600000   -0.1200000   2.494471e-04  1.671101e-07
    254    256   2   0.50000     0.0600000    0.0600000   6.128906e-05  1.496315e-08
    254    257   2   0.50000     0.0600000    0.0600000   6.128906e-05  1.496315e-08
    255    243   2   0.50000     0.0600000   -0.1200000   2.494471e-04  1.671101e-07
    255    256   2   0.50000     0.0600000    0.0600000   6.128906e-05  1.496315e-08
    255    257   2   0.50000     0.0600000    0.0600000   6.128906e-05  1.496315e-08
    241    244   2   0.50000     0.0800000   -0.1200000   1.015252e-03  1.866303e-06
    241    258   2   0.50000     0.0800000    0.0600000   2.494471e-04  1.671101e-07
    241    259   2   0.50000     0.0800000    0.0600000   2.494471e-04  1.671101e-07
    256    244   2   0.50000     0.0600000   -0.1200000   2.494471e-04  1.671101e-07
    256    258   2   0.50000     0.0600000    0.0600000   6.128906e-05  1.496315e-08
    256    259   2   0.50000     0.0600000    0.0600000   6.128906e-05  1.496315e-08
    257    244   2   0.50000     0.0600000   -0.1200000   2.494471e-04  1.671101e-07
    257    258   2   0.50000     0.0600000    0.0600000   6.128906e-05  1.496315e-08
    257    259   2   0.50000     0.0600000    0.0600000   6.128906e-05  1.496315e-08
    242    245   2   0.50000    -0.1200000   -0.1200000   1.015252e-03  1.866303e-06
    242    260   2   0.50000    -0.1200000    0.0600000   2.494471e-04  1.671101e-07
    242    261   2   0.50000    -0.1200000    0.0600000   2.494471e-04  1.671101e-07
    258    245   2   0.50000     0.0600000   -0.1200000   2.494471e-04  1.671101e-07
    258    260   2   0.50000     0.0600000    0.0600000   6.128906e-05  1.496315e-08
    258    261   2   0.50000     0.0600000    0.0600000   6.128906e-05  1.496315e-08
    259    245   2   0.50000     0.0600000   -0.1200000   2.494471e-04  1.671101e-07
    259    260   2   0.50000     0.0600000    0.0600000   6.128906e-05  1.496315e-08
    259    261   2   0.50000     0.0600000    0.0600000   6.128906e-05  1.496315e-08
    243    246   2   0.50000    -0.1200000   -0.1200000   1.015252e-03  1.866303e-06
    243    262   2   0.50000    -0.1200000    0.0600000   2.494471e-04  1.671101e-07
    243    263   2   0.50000    -0.1200000    0.0600000   2.494471e-04  1.671101e-07
    260    246   2   0.50000     0.0600000   -0.1200000   2.494471e-04  1.671101e-07
    260    262   2   0.50000     0.0600000    0.0600000   6.128906e-05  1.496315e-08
    260    263   2   0.50000     0.0600000    0.0600000   6.128906e-05  1.496315e-08
    261    246   2   0.50000     0.0600000   -0.1200000   2.494471e-04  1.671101e-07
    261    262   2   0.50000     0.0600000    0.0600000   6.128906e-05  1.496315e-08
    261    263   2   0.50000     0.0600000    0.0600000   6.128906e-05  1.496315e-08
    244    247   2   0.50000    -0.1200000   -0.1200000   1.015252e-03  1.866303e-06
    244    264   2   0.50000    -0.1200000    0.0600000   2.494471e-04  1.671101e-07
    244    265   2   0.50000    -0.1200000    0.0600000   2.494471e-04  1.671101e-07
    262    247   2   0.50000     0.0600000   -0.1200000   2.494471e-04  1.671101e-07
    262    264   2   0.50000     0.0600000    0.0600000   6.128906e-05  1.496315e-08
    262    265   2   0.50000     0.0600000    0.0600000   6.128906e-05  1.496315e-08
    263    247   2   0.50000     0.0600000   -0.1200000   2.494471e-04  1.671101e-07
    263    264   2   0.50000     0.0600000    0.0600000   6.128906e-05  1.496315e-08
    263    265   2   0.50000     0.0600000    0.0600000   6.128906e-05  1.496315e-08
    245    248   2   0.50000    -0.1200000   -0.1200000   1.015252e-03  1.866303e-06
    245    266   2   0.50000    -0.1200000    0.0600000   2.494471e-04  1.671101e-07
    245    267   2   0.50000    -0.1200000    0.0600000   2.494471e-04  1.671101e-07
    264    248   2   0.50000     0.0600000   -0.1200000   2.494471e-04  1.671101e-07
    264    266   2   0.50000     0.0600000    0.0600000   6.128906e-05  1.496315e-08
    264    267   2   0.50000     0.0600000    0.0600000   6.128906e-05  1.496315e-08
    265    248   2   0.50000     0.0600000   -0.1200000   2.494471e-04  1.671101e-07
    265    266   2   0.50000     0.0600000    0.0600000   6.128906e-05  1.496315e-08
    265    267   2   0.50000     0.0600000    0.0600000   6.128906e-05  1.496315e-08
    246    249   2   0.50000    -0.1200000   -0.1200000   1.015252e-03  1.866303e-06
    246    268   2   0.50000    -0.1200000    0.0600000   2.494471e-04  1.671101e-07
    246    269   2   0.50000    -0.1200000    0.0600000   2.494471e-04  1.671101e-07
    266    249   2   0.50000     0.0600000   -0.1200000   2.494471e-04  1.671101e-07
    266    268   2   0.50000     0.0600000    0.0600000   6.128906e-05  1.496315e-08
    266    269   2   0.50000     0.0600000    0.0600000   6.128906e-05  1.496315e-08
    267    249   2   0.50000     0.0600000   -0.1200000   2.494471e-04  1.671101e-07
    267    268   2   0.50000     0.0600000    0.0600000   6.128906e-05  1.496315e-08
    267    269   2   0.50000     0.0600000    0.0600000   6.128906e-05  1.496315e-08
    247    250   2   0.50000    -0.1200000   -0.1200000   1.015252e-03  1.866303e-06
    247    270   2   0.50000    -0.1200000    0.0600000   2.494471e-04  1.671101e-07
    247    271   2   0.50000    -0.1200000    0.0600000   2.494471e-04  1.671101e-07
    268    250   2   0.50000     0.0600000   -0.1200000   2.494471e-04  1.671101e-07
    268    270   2   0.50000     0.0600000    0.0600000   6.128906e-05  1.496315e-08
    268    271   2   0.50000     0.0600000    0.0600000   6.128906e-05  1.496315e-08
    269    250   2   0.50000     0.0600000   -0.1200000   2.494471e-04  1.671101e-07
    269    270   2   0.50000     0.0600000    0.0600000   6.128906e-05  1.496315e-08
    269    271   2   0.50000     0.0600000    0.0600000   6.128906e-05  1.496315e-08
    248    251   2   0.50000    -0.1200000    0.5000000   1.575021e-03  3.561100e-06
    248    272   2   0.50000    -0.1200000    0.0600000   2.494471e-04  1.671101e-07
    248    273   2   0.50000    -0.1200000    0.0600000   2.494471e-04  1.671101e-07
    270    251   2   0.50000     0.0600000    0.5000000   3.869820e-04  3.188634e-07
    270    272   2   0.50000     0.0600000    0.0600000   6.128906e-05  1.496315e-08
    270    273   2   0.50000     0.0600000    0.0600000   6.128906e-05  1.496315e-08
    271    251   2   0.50000     0.0600000    0.5000000   3.869820e-04  3.188634e-07
    271    272   2   0.50000     0.0600000    0.0600000   6.128906e-05  1.496315e-08
    271    273   2   0.50000     0.0600000    0.0600000   6.128906e-05  1.496315e-08
    249    252   2   0.50000    -0.1200000   -0.5000000   1.095425e-03  1.218041e-06
    249    274   2   0.50000    -0.1200000   -0.5000000   1.304585e-03  1.920112e-06
    272    252   2   0.50000     0.0600000   -0.5000000   2.691455e-04  1.090642e-07
    272    274   2   0.50000     0.0600000   -0.5000000   3.205360e-04  1.719281e-07
    273    252   2   0.50000     0.0600000   -0.5000000   2.691455e-04  1.090642e-07
    273    274   2   0.50000     0.0600000   -0.5000000   3.205360e-04  1.719281e-07
    250    275   2   0.50000    -0.1200000    0.0800000   1.015252e-03  1.866303e-06
    250    287   2   0.50000    -0.1200000    0.3000000   1.995577e-06  1.069504e-11
    252    275   2   0.50000    -0.5000000    0.0800000   1.095425e-03  1.218041e-06
    252    287   2   0.50000    -0.5000000    0.3000000   2.153164e-06  6.980110e-12
    251    276   2   0.50000     0.5000000   -0.1200000   1.575021e-03  3.561100e-06
    251    288   2   0.50000     0.5000000    0.0600000   3.869820e-04  3.188634e-07
    251    289   2   0.50000     0.5000000    0.0600000   3.869820e-04  3.188634e-07
    287    276   2   0.50000     0.3000000   -0.1200000   1.995577e-06  1.069504e-11
    287    288   2   0.50000     0.3000000    0.0600000   4.903125e-07  9.576416e-13
    287    289   2   0.50000     0.3000000    0.0600000   4.903125e-07  9.576416e-13
    274    277   2   0.50000    -0.5000000   -0.1200000   1.304585e-03  1.920112e-06
    274    290   2   0.50000    -0.5000000    0.0600000   3.205360e-04  1.719281e-07
    274    291   2   0.50000    -0.5000000    0.0600000   3.205360e-04  1.719281e-07
    288    277   2   0.50000     0.0600000   -0.1200000   2.494471e-04  1.671101e-07
    288    290   2   0.50000     0.0600000    0.0600000   6.128906e-05  1.496315e-08
    288    291   2   0.50000     0.0600000    0.0600000   6.128906e-05  1.496315e-08
    289    277   2   0.50000     0.0600000   -0.1200000   2.494471e-04  1.671101e-07
    289    290   2   0.50000     0.0600000    0.0600000   6.128906e-05  1.496315e-08
    289    291   2   0.50000     0.0600000    0.0600000   6.128906e-05  1.496315e-08
    275    278   2   0.50000     0.0800000   -0.1200000   1.015252e-03  1.866303e-06
    275    292   2   0.50000     0.0800000    0.0600000   2.494471e-04  1.671101e-07
    275    293   2   0.50000     0.0800000    0.0600000   2.494471e-04  1.671101e-07
    290    278   2   0.50000     0.0600000   -0.1200000   2.494471e-04  1.671101e-07
    290    292   2   0.50000     0.0600000    0.0600000   6.128906e-05  1.496315e-08
    290    293   2   0.50000     0.0600000    0.0600000   6.128906e-05  1.496315e-08
    291    278   2   0.50000     0.0600000   -0.1200000   2.494471e-04  1.671101e-07
    291    292   2   0.50000     0.0600000    0.0600000   6.128906e-05  1.496315e-08
    291    293   2   0.50000     0.0600000    0.0600000   6.128906e-05  1.496315e-08
    276    279   2   0.50000    -0.1200000   -0.1200000   1.015252e-03  1.866303e-06
    276    294   2   0.50000    -0.1200000    0.0600000   2.494471e-04  1.671101e-07
    276    295   2   0.50000    -0.1200000    0.0600000   2.494471e-04  1.671101e-07
    292    279   2   0.50000     0.0600000   -0.1200000   2.494471e-04  1.671101e-07
    292    294   2   0.50000     0.0600000    0.0600000   6.128906e-05  1.496315e-08
    292    295   2   0.50000     0.0600000    0.0600000   6.128906e-05  1.496315e-08
    293    279   2   0.50000     0.0600000   -0.1200000   2.494471e-04  1.671101e-07
    293    294   2   0.50000     0.0600000    0.0600000   6.128906e-05  1.496315e-08
    293    295   2   0.50000     0.0600000    0.0600000   6.128906e-05  1.496315e-08
    277    280   2   0.50000    -0.1200000   -0.1200000   1.015252e-03  1.866303e-06
    277    296   2   0.50000    -0.1200000    0.0600000   2.494471e-04  1.671101e-07
    277    297   2   0.50000    -0.1200000    0.0600000   2.494471e-04  1.671101e-07
    294    280   2   0.50000     0.0600000   -0.1200000   2.494471e-04  1.671101e-07
    294    296   2   0.50000     0.0600000    0.0600000   6.128906e-05  1.496315e-08
    294    297   2   0.50000     0.0600000    0.0600000   6.128906e-05  1.496315e-08
    295    280   2   0.50000     0.0600000   -0.1200000   2.494471e-04  1.671101e-07
    295    296   2   0.50000     0.0600000    0.0600000   6.128906e-05  1.496315e-08
    295    297   2   0.50000     0.0600000    0.0600000   6.128906e-05  1.496315e-08
    278    281   2   0.50000    -0.1200000   -0.1200000   1.015252e-03  1.866303e-06
    278    298   2   0.50000    -0.1200000    0.0600000   2.494471e-04  1.671101e-07
    278    299   2   0.50000    -0.1200000    0.0600000   2.494471e-04  1.671101e-07
    296    281   2   0.50000     0.0600000   -0.1200000   2.494471e-04  1.671101e-07
    296    298   2   0.50000     0.0600000    0.0600000   6.128906e-05  1.496315e-08
    296    299   2   0.50000     0.0600000    0.0600000   6.128906e-05  1.496315e-08
    297    281   2   0.50000     0.0600000   -0.1200000   2.494471e-04  1.671101e-07
    297    298   2   0.50000     0.0600000    0.0600000   6.128906e-05  1.496315e-08
    297    299   2   0.50000     0.0600000    0.0600000   6.128906e-05  1.496315e-08
    279    282   2   0.50000    -0.1200000   -0.1200000   1.015252e-03  1.866303e-06
    279    300   2   0.50000    -0.1200000    0.0600000   2.494471e-04  1.671101e-07
    279    301   2   0.50000    -0.1200000    0.0600000   2.494471e-04  1.671101e-07
    298    282   2   0.50000     0.0600000   -0.1200000   2.494471e-04  1.671101e-07
    298    300   2   0.50000     0.0600000    0.0600000   6.128906e-05  1.496315e-08
    298    301   2   0.50000     0.0600000    0.0600000   6.128906e-05  1.496315e-08
    299    282   2   0.50000     0.0600000   -0.1200000   2.494471e-04  1.671101e-07
    299    300   2   0.50000     0.0600000    0.0600000   6.128906e-05  1.496315e-08
    299    301   2   0.50000     0.0600000    0.0600000   6.128906e-05  1.496315e-08
    280    283   2   0.50000    -0.1200000   -0.1200000   1.015252e-03  1.866303e-06
    280    302   2   0.50000    -0.1200000    0.0600000   2.494471e-04  1.671101e-07
    280    303   2   0.50000    -0.1200000    0.0600000   2.494471e-04  1.671101e-07
    300    283   2   0.50000     0.0600000   -0.1200000   2.494471e-04  1.671101e-07
    300    302   2   0.50000     0.0600000    0.0600000   6.128906e-05  1.496315e-08
    300    303   2   0.50000     0.0600000    0.0600000   6.128906e-05  1.496315e-08
    301    283   2   0.50000     0.0600000   -0.1200000   2.494471e-04  1.671101e-07
    301    302   2   0.50000     0.0600000    0.0600000   6.128906e-05  1.496315e-08
    301    303   2   0.50000     0.0600000    0.0600000   6.128906e-05  1.496315e-08
    281    284   2   0.50000    -0.1200000   -0.1200000   1.015252e-03  1.866303e-06
    281    304   2   0.50000    -0.1200000    0.0600000   2.494471e-04  1.671101e-07
    281    305   2   0.50000    -0.1200000    0.0600000   2.494471e-04  1.671101e-07
    302    284   2   0.50000     0.0600000   -0.1200000   2.494471e-04  1.671101e-07
    302    304   2   0.50000     0.0600000    0.0600000   6.128906e-05  1.496315e-08
    302    305   2   0.50000     0.0600000    0.0600000   6.128906e-05  1.496315e-08
    303    284   2   0.50000     0.0600000   -0.1200000   2.494471e-04  1.671101e-07
    303    304   2   0.50000     0.0600000    0.0600000   6.128906e-05  1.496315e-08
    303    305   2   0.50000     0.0600000    0.0600000   6.128906e-05  1.496315e-08
    282    285   2   0.50000    -0.1200000    0.5000000   1.575021e-03  3.561100e-06
    282    306   2   0.50000    -0.1200000    0.0600000   2.494471e-04  1.671101e-07
    282    307   2   0.50000    -0.1200000    0.0600000   2.494471e-04  1.671101e-07
    304    285   2   0.50000     0.0600000    0.5000000   3.869820e-04  3.188634e-07
    304    306   2   0.50000     0.0600000    0.0600000   6.128906e-05  1.496315e-08
    304    307   2   0.50000     0.0600000    0.0600000   6.128906e-05  1.496315e-08
    305    285   2   0.50000     0.0600000    0.5000000   3.869820e-04  3.188634e-07
    305    306   2   0.50000     0.0600000    0.0600000   6.128906e-05  1.496315e-08
    305    307   2   0.50000     0.0600000    0.0600000   6.128906e-05  1.496315e-08
    283    286   2   0.50000    -0.1200000   -0.5000000   1.095425e-03  1.218041e-06
    283    308   2   0.50000    -0.1200000   -0.5000000   1.304585e-03  1.920112e-06
    306    286   2   0.50000     0.0600000   -0.5000000   2.691455e-04  1.090642e-07
    306    308   2   0.50000     0.0600000   -0.5000000   3.205360e-04  1.719281e-07
    307    286   2   0.50000     0.0600000   -0.5000000   2.691455e-04  1.090642e-07
    307    308   2   0.50000     0.0600000   -0.5000000   3.205360e-04  1.719281e-07
    284    309   2   0.50000    -0.1200000    0.0800000   1.015252e-03  1.866303e-06
    284    321   2   0.50000    -0.1200000    0.3000000   1.995577e-06  1.069504e-11
    286    309   2   0.50000    -0.5000000    0.0800000   1.095425e-03  1.218041e-06
    286    321   2   0.50000    -0.5000000    0.3000000   2.153164e-06  6.980110e-12
    285    310   2   0.50000     0.5000000   -0.1200000   1.575021e-03  3.561100e-06
    285    322   2   0.50000     0.5000000    0.0600000   3.869820e-04  3.188634e-07
    285    323   2   0.50000     0.5000000    0.0600000   3.869820e-04  3.188634e-07
    321    310   2   0.50000     0.3000000   -0.1200000   1.995577e-06  1.069504e-11
    321    322   2   0.50000     0.3000000    0.0600000   4.903125e-07  9.576416e-13
    321    323   2   0.50000     0.3000000    0.0600000   4.903125e-07  9.576416e-13
    308    311   2   0.50000    -0.5000000   -0.1200000   1.304585e-03  1.920112e-06
    308    324   2   0.50000    -0.5000000    0.0600000   3.205360e-04  1.719281e-07
    308    325   2   0.50000    -0.5000000    0.0600000   3.205360e-04  1.719281e-07
    322    311   2   0.50000     0.0600000   -0.1200000   2.494471e-04  1.671101e-07
    322    324   2   0.50000     0.0600000    0.0600000   6.128906e-05  1.496315e-08
    322    325   2   0.50000     0.0600000    0.0600000   6.128906e-05  1.496315e-08
    323    311   2   0.50000     0.0600000   -0.1200000   2.494471e-04  1.671101e-07
    323    324   2   0.50000     0.0600000    0.0600000   6.128906e-05  1.496315e-08
    323    325   2   0.50000     0.0600000    0.0600000   6.128906e-05  1.496315e-08
    309    312   2   0.50000     0.0800000   -0.1200000   1.015252e-03  1.866303e-06
    309    326   2   0.50000     0.0800000    0.0600000   2.494471e-04  1.671101e-07
    309    327   2   0.50000     0.0800000    0.0600000   2.494471e-04  1.671101e-07
    324    312   2   0.50000     0.0600000   -0.1200000   2.494471e-04  1.671101e-07
    324    326   2   0.50000     0.0600000    0.0600000   6.128906e-05  1.496315e-08
    324    327   2   0.50000     0.0600000    0.0600000   6.128906e-05  1.496315e-08
    325    312   2   0.50000     0.0600000   -0.1200000   2.494471e-04  1.671101e-07
    325    326   2   0.50000     0.0600000    0.0600000   6.128906e-05  1.496315e-08
    325    327   2   0.50000     0.0600000    0.0600000   6.128906e-05  1.496315e-08
    310    313   2   0.50000    -0.1200000   -0.1200000   1.015252e-03  1.866303e-06
    310    328   2   0.50000    -0.1200000    0.0600000   2.494471e-04  1.671101e-07
    310    329   2   0.50000    -0.1200000    0.0600000   2.494471e-04  1.671101e-07
    326    313   2   0.50000     0.0600000   -0.1200000   2.494471e-04  1.671101e-07
    326    328   2   0.50000     0.0600000    0.0600000   6.128906e-05  1.496315e-08
    326    329   2   0.50000     0.0600000    0.0600000   6.128906e-05  1.496315e-08
    327    313   2   0.50000     0.0600000   -0.1200000   2.494471e-04  1.671101e-07
    327    328   2   0.50000     0.0600000    0.0600000   6.128906e-05  1.496315e-08
    327    329   2   0.50000     0.0600000    0.0600000   6.128906e-05  1.496315e-08
    311    314   2   0.50000    -0.1200000   -0.1200000   1.015252e-03  1.866303e-06
    311    330   2   0.50000    -0.1200000    0.0600000   2.494471e-04  1.671101e-07
    311    331   2   0.50000    -0.1200000    0.0600000   2.494471e-04  1.671101e-07
    328    314   2   0.50000     0.0600000   -0.1200000   2.494471e-04  1.671101e-07
    328    330   2   0.50000     0.0600000    0.0600000   6.128906e-05  1.496315e-08
    328    331   2   0.50000     0.0600000    0.0600000   6.128906e-05  1.496315e-08
    329    314   2   0.50000     0.0600000   -0.1200000   2.494471e-04  1.671101e-07
    329    330   2   0.50000     0.0600000    0.0600000   6.128906e-05  1.496315e-08
    329    331   2   0.50000     0.0600000    0.0600000   6.128906e-05  1.496315e-08
    312    315   2   0.50000    -0.1200000   -0.1200000   1.015252e-03  1.866303e-06
    312    332   2   0.50000    -0.1200000    0.0600000   2.494471e-04  1.671101e-07
    312    333   2   0.50000    -0.1200000    0.0600000   2.494471e-04  1.671101e-07
    330    315   2   0.50000     0.0600000   -0.1200000   2.494471e-04  1.671101e-07
    330    332   2   0.50000     0.0600000    0.0600000   6.128906e-05  1.496315e-08
    330    333   2   0.50000     0.0600000    0.0600000   6.128906e-05  1.496315e-08
    331    315   2   0.50000     0.0600000   -0.1200000   2.494471e-04  1.671101e-07
    331    332   2   0.50000     0.0600000    0.0600000   6.128906e-05  1.496315e-08
    331    333   2   0.50000     0.0600000    0.0600000   6.128906e-05  1.496315e-08
    313    316   2   0.50000    -0.1200000   -0.1200000   1.015252e-03  1.866303e-06
    313    334   2   0.50000    -0.1200000    0.0600000   2.494471e-04  1.671101e-07
    313    335   2   0.50000    -0.1200000    0.0600000   2.494471e-04  1.671101e-07
    332    316   2   0.50000     0.0600000   -0.1200000   2.494471e-04  1.671101e-07
    332    334   2   0.50000     0.0600000    0.0600000   6.128906e-05  1.496315e-08
    332    335   2   0.50000     0.0600000    0.0600000   6.128906e-05  1.496315e-08
    333    316   2   0.50000     0.0600000   -0.1200000   2.494471e-04  1.671101e-07
    333    334   2   0.50000     0.0600000    0.0600000   6.128906e-05  1.496315e-08
    333    335   2   0.50000     0.0600000    0.0600000   6.128906e-05  1.496315e-08
    314    317   2   0.50000    -0.1200000   -0.1200000   1.015252e-03  1.866303e-06
    314    336   2   0.50000    -0.1200000    0.0600000   2.494471e-04  1.671101e-07
    314    337   2   0.50000    -0.1200000    0.0600000   2.494471e-04  1.671101e-07
    334    317   2   0.50000     0.0600000   -0.1200000   2.494471e-04  1.671101e-07
    334    336   2   0.50000     0.0600000    0.0600000   6.128906e-05  1.496315e-08
    334    337   2   0.50000     0.0600000    0.0600000   6.128906e-05  1.496315e-08
    335    317   2   0.50000     0.0600000   -0.1200000   2.494471e-04  1.671101e-07
    335    336   2   0.50000     0.0600000    0.0600000   6.128906e-05  1.496315e-08
    335    337   2   0.50000     0.0600000    0.0600000   6.128906e-05  1.496315e-08
    315    318   2   0.50000    -0.1200000   -0.1200000   1.015252e-03  1.866303e-06
    315    338   2   0.50000    -0.1200000    0.0600000   2.494471e-04  1.671101e-07
    315    339   2   0.50000    -0.1200000    0.0600000   2.494471e-04  1.671101e-07
    336    318   2   0.50000     0.0600000   -0.1200000   2.494471e-04  1.671101e-07
    336    338   2   0.50000     0.0600000    0.0600000   6.128906e-05  1.496315e-08
    336    339   2   0.50000     0.0600000    0.0600000   6.128906e-05  1.496315e-08
    337    318   2   0.50000     0.0600000   -0.1200000   2.494471e-04  1.671101e-07
    337    338   2   0.50000     0.0600000    0.0600000   6.128906e-05  1.496315e-08
    337    339   2   0.50000     0.0600000    0.0600000   6.128906e-05  1.496315e-08
    316    319   2   0.50000    -0.1200000    0.5000000   1.575021e-03  3.561100e-06
    316    340   2   0.50000    -0.1200000    0.0600000   2.494471e-04  1.671101e-07
    316    341   2   0.50000    -0.1200000    0.0600000   2.494471e-04  1.671101e-07
    338    319   2   0.50000     0.0600000    0.5000000   3.869820e-04  3.188634e-07
    338    340   2   0.50000     0.0600000    0.0600000   6.128906e-05  1.496315e-08
    338    341   2   0.50000     0.0600000    0.0600000   6.128906e-05  1.496315e-08
    339    319   2   0.50000     0.0600000    0.5000000   3.869820e-04  3.188634e-07
    339    340   2   0.50000     0.0600000    0.0600000   6.128906e-05  1.496315e-08
    339    341   2   0.50000     0.0600000    0.0600000   6.128906e-05  1.496315e-08
    317    320   2   0.50000    -0.1200000   -0.5000000   1.095425e-03  1.218041e-06
    317    342   2   0.50000    -0.1200000   -0.5000000   1.304585e-03  1.920112e-06
    340    320   2   0.50000     0.0600000   -0.5000000   2.691455e-04  1.090642e-07
    340    342   2   0.50000     0.0600000   -0.5000000   3.205360e-04  1.719281e-07
    341    320   2   0.50000     0.0600000   -0.5000000   2.691455e-04  1.090642e-07
    341    342   2   0.50000     0.0600000   -0.5000000   3.205360e-04  1.719281e-07
    318    343   2   0.50000    -0.1200000    0.0800000   1.015252e-03  1.866303e-06
    318    355   2   0.50000    -0.1200000    0.3000000   1.995577e-06  1.069504e-11
    320    343   2   0.50000    -0.5000000    0.0800000   1.095425e-03  1.218041e-06
    320    355   2   0.50000    -0.5000000    0.3000000   2.153164e-06  6.980110e-12
    319    344   2   0.50000     0.5000000   -0.1200000   1.575021e-03  3.561100e-06
    319    356   2   0.50000     0.5000000    0.0600000   3.869820e-04  3.188634e-07
    319    357   2   0.50000     0.5000000    0.0600000   3.869820e-04  3.188634e-07
    355    344   2   0.50000     0.3000000   -0.1200000   1.995577e-06  1.069504e-11
    355    356   2   0.50000     0.3000000    0.0600000   4.903125e-07  9.576416e-13
    355    357   2   0.50000     0.3000000    0.0600000   4.903125e-07  9.576416e-13
    342    345   2   0.50000    -0.5000000   -0.1200000   1.304585e-03  1.920112e-06
    342    358   2   0.50000    -0.5000000    0.0600000   3.205360e-04  1.719281e-07
    342    359   2   0.50000    -0.5000000    0.0600000   3.205360e-04  1.719281e-07
    356    345   2   0.50000     0.0600000   -0.1200000   2.494471e-04  1.671101e-07
    356    358   2   0.50000     0.0600000    0.0600000   6.128906e-05  1.496315e-08
    356    359   2   0.50000     0.0600000    0.0600000   6.128906e-05  1.496315e-08
    357    345   2   0.50000     0.0600000   -0.1200000   2.494471e-04  1.671101e-07
    357    358   2   0.50000     0.0600000    0.0600000   6.128906e-05  1.496315e-08
    357    359   2   0.50000     0.0600000    0.0600000   6.128906e-05  1.496315e-08
    343    346   2   0.50000     0.0800000   -0.1200000   1.015252e-03  1.866303e-06
    343    360   2   0.50000     0.0800000    0.0600000   2.494471e-04  1.671101e-07
    343    361   2   0.50000     0.0800000    0.0600000   2.494471e-04  1.671101e-07
    358    346   2   0.50000     0.0600000   -0.1200000   2.494471e-04  1.671101e-07
    358    360   2   0.50000     0.0600000    0.0600000   6.128906e-05  1.496315e-08
    358    361   2   0.50000     0.0600000    0.0600000   6.128906e-05  1.496315e-08
    359    346   2   0.50000     0.0600000   -0.1200000   2.494471e-04  1.671101e-07
    359    360   2   0.50000     0.0600000    0.0600000   6.128906e-05  1.496315e-08
    359    361   2   0.50000     0.0600000    0.0600000   6.128906e-05  1.496315e-08
    344    347   2   0.50000    -0.1200000   -0.1200000   1.015252e-03  1.866303e-06
    344    362   2   0.50000    -0.1200000    0.0600000   2.494471e-04  1.671101e-07
    344    363   2   0.50000    -0.1200000    0.0600000   2.494471e-04  1.671101e-07
    360    347   2   0.50000     0.0600000   -0.1200000   2.494471e-04  1.671101e-07
    360    362   2   0.50000     0.0600000    0.0600000   6.128906e-05  1.496315e-08
    360    363   2   0.50000     0.0600000    0.0600000   6.128906e-05  1.496315e-08
    361    347   2   0.50000     0.0600000   -0.1200000   2.494471e-04  1.671101e-07
    361    362   2   0.50000     0.0600000    0.0600000   6.128906e-05  1.496315e-08
    361    363   2   0.50000     0.0600000    0.0600000   6.128906e-05  1.496315e-08
    345    348   2   0.50000    -0.1200000   -0.1200000   1.015252e-03  1.866303e-06
    345    364   2   0.50000    -0.1200000    0.0600000   2.494471e-04  1.671101e-07
    345    365   2   0.50000    -0.1200000    0.0600000   2.494471e-04  1.671101e-07
    362    348   2   0.50000     0.0600000   -0.1200000   2.494471e-04  1.671101e-07
    362    364   2   0.50000     0.0600000    0.0600000   6.128906e-05  1.496315e-08
    362    365   2   0.50000     0.0600000    0.0600000   6.128906e-05  1.496315e-08
    363    348   2   0.50000     0.0600000   -0.1200000   2.494471e-04  1.671101e-07
    363    364   2   0.50000     0.0600000    0.0600000   6.128906e-05  1.496315e-08
    363    365   2   0.50000     0.0600000    0.0600000   6.128906e-05  1.496315e-08
    346    349   2   0.50000    -0.1200000   -0.1200000   1.015252e-03  1.866303e-06
    346    366   2   0.50000    -0.1200000    0.0600000   2.494471e-04  1.671101e-07
    346    367   2   0.50000    -0.1200000    0.0600000   2.494471e-04  1.671101e-07
    364    349   2   0.50000     0.0600000   -0.1200000   2.494471e-04  1.671101e-07
    364    366   2   0.50000     0.0600000    0.0600000   6.128906e-05  1.496315e-08
    364    367   2   0.50000     0.0600000    0.0600000   6.128906e-05  1.496315e-08
    365    349   2   0.50000     0.0600000   -0.1200000   2.494471e-04  1.671101e-07
    365    366   2   0.50000     0.0600000    0.0600000   6.128906e-05  1.496315e-08
    365    367   2   0.50000     0.0600000    0.0600000   6.128906e-05  1.496315e-08
    347    350   2   0.50000    -0.1200000   -0.1200000   1.015252e-03  1.866303e-06
    347    368   2   0.50000    -0.1200000    0.0600000   2.494471e-04  1.671101e-07
    347    369   2   0.50000    -0.1200000    0.0600000   2.494471e-04  1.671101e-07
    366    350   2   0.50000     0.0600000   -0.1200000   2.494471e-04  1.671101e-07
    366    368   2   0.50000     0.0600000    0.0600000   6.128906e-05  1.496315e-08
    366    369   2   0.50000     0.0600000    0.0600000   6.128906e-05  1.496315e-08
    367    350   2   0.50000     0.0600000   -0.1200000   2.494471e-04  1.671101e-07
    367    368   2   0.50000     0.0600000    0.0600000   6.128906e-05  1.496315e-08
    367    369   2   0.50000     0.0600000    0.0600000   6.128906e-05  1.496315e-08
    348    351   2   0.50000    -0.1200000   -0.1200000   1.015252e-03  1.866303e-06
    348    370   2   0.50000    -0.1200000    0.0600000   2.494471e-04  1.671101e-07
    348    371   2   0.50000    -0.1200000    0.0600000   2.494471e-04  1.671101e-07
    368    351   2   0.50000     0.0600000   -0.1200000   2.494471e-04  1.671101e-07
    368    370   2   0.50000     0.0600000    0.0600000   6.128906e-05  1.496315e-08
    368    371   2   0.50000     0.0600000    0.0600000   6.128906e-05  1.496315e-08
    369    351   2   0.50000     0.0600000   -0.1200000   2.494471e-04  1.671101e-07
    369    370   2   0.50000     0.0600000    0.0600000   6.128906e-05  1.496315e-08
    369    371   2   0.50000     0.0600000    0.0600000   6.128906e-05  1.496315e-08
    349    352   2   0.50000    -0.1200000   -0.1200000   1.015252e-03  1.866303e-06
    349    372   2   0.50000    -0.1200000    0.0600000   2.494471e-04  1.671101e-07
    349    373   2   0.50000    -0.1200000    0.0600000   2.494471e-04  1.671101e-07
    370    352   2   0.50000     0.0600000   -0.1200000   2.494471e-04  1.671101e-07
    370    372   2   0.50000     0.0600000    0.0600000   6.128906e-05  1.496315e-08
    370    373   2   0.50000     0.0600000    0.0600000   6.128906e-05  1.496315e-08
    371    352   2   0.50000     0.0600000   -0.1200000   2.494471e-04  1.671101e-07
    371    372   2   0.50000     0.0600000    0.0600000   6.128906e-05  1.496315e-08
    371    373   2   0.50000     0.0600000    0.0600000   6.128906e-05  1.496315e-08
    350    353   2   0.50000    -0.1200000    0.5000000   1.575021e-03  3.561100e-06
    350    374   2   0.50000    -0.1200000    0.0600000   2.494471e-04  1.671101e-07
    350    375   2   0.50000    -0.1200000    0.0600000   2.494471e-04  1.671101e-07
    372    353   2   0.50000     0.0600000    0.5000000   3.869820e-04  3.188634e-07
    372    374   2   0.50000     0.0600000    0.0600000   6.128906e-05  1.496315e-08
    372    375   2   0.50000     0.0600000    0.0600000   6.128906e-05  1.496315e-08
    373    353   2   0.50000     0.0600000    0.5000000   3.869820e-04  3.188634e-07
    373    374   2   0.50000     0.0600000    0.0600000   6.128906e-05  1.496315e-08
    373    375   2   0.50000     0.0600000    0.0600000   6.128906e-05  1.496315e-08
    351    354   2   0.50000    -0.1200000   -0.5000000   1.095425e-03  1.218041e-06
    351    376   2   0.50000    -0.1200000   -0.5000000   1.304585e-03  1.920112e-06
    374    354   2   0.50000     0.0600000   -0.5000000   2.691455e-04  1.090642e-07
    374    376   2   0.50000     0.0600000   -0.5000000   3.205360e-04  1.719281e-07
    375    354   2   0.50000     0.0600000   -0.5000000   2.691455e-04  1.090642e-07
    375    376   2   0.50000     0.0600000   -0.5000000   3.205360e-04  1.719281e-07
    352    377   2   0.50000    -0.1200000    0.0800000   1.015252e-03  1.866303e-06
    352    389   2   0.50000    -0.1200000    0.3000000   1.995577e-06  1.069504e-11
    354    377   2   0.50000    -0.5000000    0.0800000   1.095425e-03  1.218041e-06
    354    389   2   0.50000    -0.5000000    0.3000000   2.153164e-06  6.980110e-12
    353    378   2   0.50000     0.5000000   -0.1200000   1.575021e-03  3.561100e-06
    353    390   2   0.50000     0.5000000    0.0600000   3.869820e-04  3.188634e-07
    353    391   2   0.50000     0.5000000    0.0600000   3.869820e-04  3.188634e-07
    389    378   2   0.50000     0.3000000   -0.1200000   1.995577e-06  1.069504e-11
    389    390   2   0.50000     0.3000000    0.0600000   4.903125e-07  9.576416e-13
    389    391   2   0.50000     0.3000000    0.0600000   4.903125e-07  9.576416e-13
    376    379   2   0.50000    -0.5000000   -0.1200000   1.304585e-03  1.920112e-06
    376    392   2   0.50000    -0.5000000    0.0600000   3.205360e-04  1.719281e-07
    376    393   2   0.50000    -0.5000000    0.0600000   3.205360e-04  1.719281e-07
    390    379   2   0.50000     0.0600000   -0.1200000   2.494471e-04  1.671101e-07
    390    392   2   0.50000     0.0600000    0.0600000   6.128906e-05  1.496315e-08
    390    393   2   0.50000     0.0600000    0.0600000   6.128906e-05  1.496315e-08
    391    379   2   0.50000     0.0600000   -0.1200000   2.494471e-04  1.671101e-07
    391    392   2   0.50000     0.0600000    0.0600000   6.128906e-05  1.496315e-08
    391    393   2   0.50000     0.0600000    0.0600000   6.128906e-05  1.496315e-08
    377    380   2   0.50000     0.0800000   -0.1200000   1.015252e-03  1.866303e-06
    377    394   2   0.50000     0.0800000    0.0600000   2.494471e-04  1.671101e-07
    377    395   2   0.50000     0.0800000    0.0600000   2.494471e-04  1.671101e-07
    392    380   2   0.50000     0.0600000   -0.1200000   2.494471e-04  1.671101e-07
    392    394   2   0.50000     0.0600000    0.0600000   6.128906e-05  1.496315e-08
    392    395   2   0.50000     0.0600000    0.0600000   6.128906e-05  1.496315e-08
    393    380   2   0.50000     0.0600000   -0.1200000   2.494471e-04  1.671101e-07
    393    394   2   0.50000     0.0600000    0.0600000   6.128906e-05  1.496315e-08
    393    395   2   0.50000     0.0600000    0.0600000   6.128906e-05  1.496315e-08
    378    381   2   0.50000    -0.1200000   -0.1200000   1.015252e-03  1.866303e-06
    378    396   2   0.50000    -0.1200000    0.0600000   2.494471e-04  1.671101e-07
    378    397   2   0.50000    -0.1200000    0.0600000   2.494471e-04  1.671101e-07
    394    381   2   0.50000     0.0600000   -0.1200000   2.494471e-04  1.671101e-07
    394    396   2   0.50000     0.0600000    0.0600000   6.128906e-05  1.496315e-08
    394    397   2   0.50000     0.0600000    0.0600000   6.128906e-05  1.496315e-08
    395    381   2   0.50000     0.0600000   -0.1200000   2.494471e-04  1.671101e-07
    395    396   2   0.50000     0.0600000    0.0600000   6.128906e-05  1.496315e-08
    395    397   2   0.50000     0.0600000    0.0600000   6.128906e-05  1.496315e-08
    379    382   2   0.50000    -0.1200000   -0.1200000   1.015252e-03  1.866303e-06
    379    398   2   0.50000    -0.1200000    0.0600000   2.494471e-04  1.671101e-07
    379    399   2   0.50000    -0.1200000    0.0600000   2.494471e-04  1.671101e-07
    396    382   2   0.50000     0.0600000   -0.1200000   2.494471e-04  1.671101e-07
    396    398   2   0.50000     0.0600000    0.0600000   6.128906e-05  1.496315e-08
    396    399   2   0.50000     0.0600000    0.0600000   6.128906e-05  1.496315e-08
    397    382   2   0.50000     0.0600000   -0.1200000   2.494471e-04  1.671101e-07
    397    398   2   0.50000     0.0600000    0.0600000   6.128906e-05  1.496315e-08
    397    399   2   0.50000     0.0600000    0.0600000   6.128906e-05  1.496315e-08
    380    383   2   0.50000    -0.1200000   -0.1200000   1.015252e-03  1.866303e-06
    380    400   2   0.50000    -0.1200000    0.0600000   2.494471e-04  1.671101e-07
    380    401   2   0.50000    -0.1200000    0.0600000   2.494471e-04  1.671101e-07
    398    383   2   0.50000     0.0600000   -0.1200000   2.494471e-04  1.671101e-07
    398    400   2   0.50000     0.0600000    0.0600000   6.128906e-05  1.496315e-08
    398    401   2   0.50000     0.0600000    0.0600000   6.128906e-05  1.496315e-08
    399    383   2   0.50000     0.0600000   -0.1200000   2.494471e-04  1.671101e-07
    399    400   2   0.50000     0.0600000    0.0600000   6.128906e-05  1.496315e-08
    399    401   2   0.50000     0.0600000    0.0600000   6.128906e-05  1.496315e-08
    381    384   2   0.50000    -0.1200000   -0.1200000   1.015252e-03  1.866303e-06
    381    402   2   0.50000    -0.1200000    0.0600000   2.494471e-04  1.671101e-07
    381    403   2   0.50000    -0.1200000    0.0600000   2.494471e-04  1.671101e-07
    400    384   2   0.50000     0.0600000   -0.1200000   2.494471e-04  1.671101e-07
    400    402   2   0.50000     0.0600000    0.0600000   6.128906e-05  1.496315e-08
    400    403   2   0.50000     0.0600000    0.0600000   6.128906e-05  1.496315e-08
    401    384   2   0.50000     0.0600000   -0.1200000   2.494471e-04  1.671101e-07
    401    402   2   0.50000     0.0600000    0.0600000   6.128906e-05  1.496315e-08
    401    403   2   0.50000     0.0600000    0.0600000   6.128906e-05  1.496315e-08
    382    385   2   0.50000    -0.1200000   -0.1200000   1.015252e-03  1.866303e-06
    382    404   2   0.50000    -0.1200000    0.0600000   2.494471e-04  1.671101e-07
    382    405   2   0.50000    -0.1200000    0.0600000   2.494471e-04  1.671101e-07
    402    385   2   0.50000     0.0600000   -0.1200000   2.494471e-04  1.671101e-07
    402    404   2   0.50000     0.0600000    0.0600000   6.128906e-05  1.496315e-08
    402    405   2   0.50000     0.0600000    0.0600000   6.128906e-05  1.496315e-08
    403    385   2   0.50000     0.0600000   -0.1200000   2.494471e-04  1.671101e-07
    403    404   2   0.50000     0.0600000    0.0600000   6.128906e-05  1.496315e-08
    403    405   2   0.50000     0.0600000    0.0600000   6.128906e-05  1.496315e-08
    383    386   2   0.50000    -0.1200000   -0.1200000   1.015252e-03  1.866303e-06
    383    406   2   0.50000    -0.1200000    0.0600000   2.494471e-04  1.671101e-07
    383    407   2   0.50000    -0.1200000    0.0600000   2.494471e-04  1.671101e-07
    404    386   2   0.50000     0.0600000   -0.1200000   2.494471e-04  1.671101e-07
    404    406   2   0.50000     0.0600000    0.0600000   6.128906e-05  1.496315e-08
    404    407   2   0.50000     0.0600000    0.0600000   6.128906e-05  1.496315e-08
    405    386   2   0.50000     0.0600000   -0.1200000   2.494471e-04  1.671101e-07
    405    406   2   0.50000     0.0600000    0.0600000   6.128906e-05  1.496315e-08
    405    407   2   0.50000     0.0600000    0.0600000   6.128906e-05  1.496315e-08
    384    387   2   0.50000    -0.1200000    0.5000000   1.575021e-03  3.561100e-06
    384    408   2   0.50000    -0.1200000    0.0600000   2.494471e-04  1.671101e-07
    384    409   2   0.50000    -0.1200000    0.0600000   2.494471e-04  1.671101e-07
    406    387   2   0.50000     0.0600000    0.5000000   3.869820e-04  3.188634e-07
    406    408   2   0.50000     0.0600000    0.0600000   6.128906e-05  1.496315e-08
    406    409   2   0.50000     0.0600000    0.0600000   6.128906e-05  1.496315e-08
    407    387   2   0.50000     0.0600000    0.5000000   3.869820e-04  3.188634e-07
    407    408   2   0.50000     0.0600000    0.0600000   6.128906e-05  1.496315e-08
    407    409   2   0.50000     0.0600000    0.0600000   6.128906e-05  1.496315e-08
    385    388   2   0.50000    -0.1200000   -0.5000000   1.095425e-03  1.218041e-06
    385    410   2   0.50000    -0.1200000   -0.5000000   1.304585e-03  1.920112e-06
    408    388   2   0.50000     0.0600000   -0.5000000   2.691455e-04  1.090642e-07
    408    410   2   0.50000     0.0600000   -0.5000000   3.205360e-04  1.719281e-07
    409    388   2   0.50000     0.0600000   -0.5000000   2.691455e-04  1.090642e-07
    409    410   2   0.50000     0.0600000   -0.5000000   3.205360e-04  1.719281e-07
    386    411   2   0.50000    -0.1200000    0.0800000   1.015252e-03  1.866303e-06
    386    423   2   0.50000    -0.1200000    0.3000000   1.995577e-06  1.069504e-11
    388    411   2   0.50000    -0.5000000    0.0800000   1.095425e-03  1.218041e-06
    388    423   2   0.50000    -0.5000000    0.3000000   2.153164e-06  6.980110e-12
    387    412   2   0.50000     0.5000000   -0.1200000   1.575021e-03  3.561100e-06
    387    424   2   0.50000     0.5000000    0.0600000   3.869820e-04  3.188634e-07
    387    425   2   0.50000     0.5000000    0.0600000   3.869820e-04  3.188634e-07
    423    412   2   0.50000     0.3000000   -0.1200000   1.995577e-06  1.069504e-11
    423    424   2   0.50000     0.3000000    0.0600000   4.903125e-07  9.576416e-13
    423    425   2   0.50000     0.3000000    0.0600000   4.903125e-07  9.576416e-13
    410    413   2   0.50000    -0.5000000   -0.1200000   1.304585e-03  1.920112e-06
    410    426   2   0.50000    -0.5000000    0.0600000   3.205360e-04  1.719281e-07
    410    427   2   0.50000    -0.5000000    0.0600000   3.205360e-04  1.719281e-07
    424    413   2   0.50000     0.0600000   -0.1200000   2.494471e-04  1.671101e-07
    424    426   2   0.50000     0.0600000    0.0600000   6.128906e-05  1.496315e-08
    424    427   2   0.50000     0.0600000    0.0600000   6.128906e-05  1.496315e-08
    425    413   2   0.50000     0.0600000   -0.1200000   2.494471e-04  1.671101e-07
    425    426   2   0.50000     0.0600000    0.0600000   6.128906e-05  1.496315e-08
    425    427   2   0.50000     0.0600000    0.0600000   6.128906e-05  1.496315e-08
    411    414   2   0.50000     0.0800000   -0.1200000   1.015252e-03  1.866303e-06
    411    428   2   0.50000     0.0800000    0.0600000   2.494471e-04  1.671101e-07
    411    429   2   0.50000     0.0800000    0.0600000   2.494471e-04  1.671101e-07
    426    414   2   0.50000     0.0600000   -0.1200000   2.494471e-04  1.671101e-07
    426    428   2   0.50000     0.0600000    0.0600000   6.128906e-05  1.496315e-08
    426    429   2   0.50000     0.0600000    0.0600000   6.128906e-05  1.496315e-08
    427    414   2   0.50000     0.0600000   -0.1200000   2.494471e-04  1.671101e-07
    427    428   2   0.50000     0.0600000    0.0600000   6.128906e-05  1.496315e-08
    427    429   2   0.50000     0.0600000    0.0600000   6.128906e-05  1.496315e-08
    412    415   2   0.50000    -0.1200000   -0.1200000   1.015252e-03  1.866303e-06
    412    430   2   0.50000    -0.1200000    0.0600000   2.494471e-04  1.671101e-07
    412    431   2   0.50000    -0.1200000    0.0600000   2.494471e-04  1.671101e-07
    428    415   2   0.50000     0.0600000   -0.1200000   2.494471e-04  1.671101e-07
    428    430   2   0.50000     0.0600000    0.0600000   6.128906e-05  1.496315e-08
    428    431   2   0.50000     0.0600000    0.0600000   6.128906e-05  1.496315e-08
    429    415   2   0.50000     0.0600000   -0.1200000   2.494471e-04  1.671101e-07
    429    430   2   0.50000     0.0600000    0.0600000   6.128906e-05  1.496315e-08
    429    431   2   0.50000     0.0600000    0.0600000   6.128906e-05  1.496315e-08
    413    416   2   0.50000    -0.1200000   -0.1200000   1.015252e-03  1.866303e-06
    413    432   2   0.50000    -0.1200000    0.0600000   2.494471e-04  1.671101e-07
    413    433   2   0.50000    -0.1200000    0.0600000   2.494471e-04  1.671101e-07
    430    416   2   0.50000     0.0600000   -0.1200000   2.494471e-04  1.671101e-07
    430    432   2   0.50000     0.0600000    0.0600000   6.128906e-05  1.496315e-08
    430    433   2   0.50000     0.0600000    0.0600000   6.128906e-05  1.496315e-08
    431    416   2   0.50000     0.0600000   -0.1200000   2.494471e-04  1.671101e-07
    431    432   2   0.50000     0.0600000    0.0600000   6.128906e-05  1.496315e-08
    431    433   2   0.50000     0.0600000    0.0600000   6.128906e-05  1.496315e-08
    414    417   2   0.50000    -0.1200000   -0.1200000   1.015252e-03  1.866303e-06
    414    434   2   0.50000    -0.1200000    0.0600000   2.494471e-04  1.671101e-07
    414    435   2   0.50000    -0.1200000    0.0600000   2.494471e-04  1.671101e-07
    432    417   2   0.50000     0.0600000   -0.1200000   2.494471e-04  1.671101e-07
    432    434   2   0.50000     0.0600000    0.0600000   6.128906e-05  1.496315e-08
    432    435   2   0.50000     0.0600000    0.0600000   6.128906e-05  1.496315e-08
    433    417   2   0.50000     0.0600000   -0.1200000   2.494471e-04  1.671101e-07
    433    434   2   0.50000     0.0600000    0.0600000   6.128906e-05  1.496315e-08
    433    435   2   0.50000     0.0600000    0.0600000   6.128906e-05  1.496315e-08
    415    418   2   0.50000    -0.1200000   -0.1200000   1.015252e-03  1.866303e-06
    415    436   2   0.50000    -0.1200000    0.0600000   2.494471e-04  1.671101e-07
    415    437   2   0.50000    -0.1200000    0.0600000   2.494471e-04  1.671101e-07
    434    418   2   0.50000     0.0600000   -0.1200000   2.494471e-04  1.671101e-07
    434    436   2   0.50000     0.0600000    0.0600000   6.128906e-05  1.496315e-08
    434    437   2   0.50000     0.0600000    0.0600000   6.128906e-05  1.496315e-08
    435    418   2   0.50000     0.0600000   -0.1200000   2.494471e-04  1.671101e-07
    435    436   2   0.50000     0.0600000    0.0600000   6.128906e-05  1.496315e-08
    435    437   2   0.50000     0.0600000    0.0600000   6.128906e-05  1.496315e-08
    416    419   2   0.50000    -0.1200000   -0.1200000   1.015252e-03  1.866303e-06
    416    438   2   0.50000    -0.1200000    0.0600000   2.494471e-04  1.671101e-07
    416    439   2   0.50000    -0.1200000    0.0600000   2.494471e-04  1.671101e-07
    436    419   2   0.50000     0.0600000   -0.1200000   2.494471e-04  1.671101e-07
    436    438   2   0.50000     0.0600000    0.0600000   6.128906e-05  1.496315e-08
    436    439   2   0.50000     0.0600000    0.0600000   6.128906e-05  1.496315e-08
    437    419   2   0.50000     0.0600000   -0.1200000   2.494471e-04  1.671101e-07
    437    438   2   0.50000     0.0600000    0.0600000   6.128906e-05  1.496315e-08
    437    439   2   0.50000     0.0600000    0.0600000   6.128906e-05  1.496315e-08
    417    420   2   0.50000    -0.1200000   -0.1200000   1.015252e-03  1.866303e-06
    417    440   2   0.50000    -0.1200000    0.0600000   2.494471e-04  1.671101e-07
    417    441   2   0.50000    -0.1200000    0.0600000   2.494471e-04  1.671101e-07
    438    420   2   0.50000     0.0600000   -0.1200000   2.494471e-04  1.671101e-07
    438    440   2   0.50000     0.0600000    0.0600000   6.128906e-05  1.496315e-08
    438    441   2   0.50000     0.0600000    0.0600000   6.128906e-05  1.496315e-08
    439    420   2   0.50000     0.0600000   -0.1200000   2.494471e-04  1.671101e-07
    439    440   2   0.50000     0.0600000    0.0600000   6.128906e-05  1.496315e-08
    439    441   2   0.50000     0.0600000    0.0600000   6.128906e-05  1.496315e-08
    418    421   2   0.50000    -0.1200000    0.5000000   1.575021e-03  3.561100e-06
    418    442   2   0.50000    -0.1200000    0.0600000   2.494471e-04  1.671101e-07
    418    443   2   0.50000    -0.1200000    0.0600000   2.494471e-04  1.671101e-07
    440    421   2   0.50000     0.0600000    0.5000000   3.869820e-04  3.188634e-07
    440    442   2   0.50000     0.0600000    0.0600000   6.128906e-05  1.496315e-08
    440    443   2   0.50000     0.0600000    0.0600000   6.128906e-05  1.496315e-08
    441    421   2   0.50000     0.0600000    0.5000000   3.869820e-04  3.188634e-07
    441    442   2   0.50000     0.0600000    0.0600000   6.128906e-05  1.496315e-08
    441    443   2   0.50000     0.0600000    0.0600000   6.128906e-05  1.496315e-08
    419    422   2   0.50000    -0.1200000   -0.5000000   1.095425e-03  1.218041e-06
    419    444   2   0.50000    -0.1200000   -0.5000000   1.304585e-03  1.920112e-06
    442    422   2   0.50000     0.0600000   -0.5000000   2.691455e-04  1.090642e-07
    442    444   2   0.50000     0.0600000   -0.5000000   3.205360e-04  1.719281e-07
    443    422   2   0.50000     0.0600000   -0.5000000   2.691455e-04  1.090642e-07
    443    444   2   0.50000     0.0600000   -0.5000000   3.205360e-04  1.719281e-07
    420    445   2   0.50000    -0.1200000    0.0800000   1.015252e-03  1.866303e-06
    420    457   2   0.50000    -0.1200000    0.3000000   1.995577e-06  1.069504e-11
    422    445   2   0.50000    -0.5000000    0.0800000   1.095425e-03  1.218041e-06
    422    457   2   0.50000    -0.5000000    0.3000000   2.153164e-06  6.980110e-12
    421    446   2   0.50000     0.5000000   -0.1200000   1.575021e-03  3.561100e-06
    421    458   2   0.50000     0.5000000    0.0600000   3.869820e-04  3.188634e-07
    421    459   2   0.50000     0.5000000    0.0600000   3.869820e-04  3.188634e-07
    457    446   2   0.50000     0.3000000   -0.1200000   1.995577e-06  1.069504e-11
    457    458   2   0.50000     0.3000000    0.0600000   4.903125e-07  9.576416e-13
    457    459   2   0.50000     0.3000000    0.0600000   4.903125e-07  9.576416e-13
    444    447   2   0.50000    -0.5000000   -0.1200000   1.304585e-03  1.920112e-06
    444    460   2   0.50000    -0.5000000    0.0600000   3.205360e-04  1.719281e-07
    444    461   2   0.50000    -0.5000000    0.0600000   3.205360e-04  1.719281e-07
    458    447   2   0.50000     0.0600000   -0.1200000   2.494471e-04  1.671101e-07
    458    460   2   0.50000     0.0600000    0.0600000   6.128906e-05  1.496315e-08
    458    461   2   0.50000     0.0600000    0.0600000   6.128906e-05  1.496315e-08
    459    447   2   0.50000     0.0600000   -0.1200000   2.494471e-04  1.671101e-07
    459    460   2   0.50000     0.0600000    0.0600000   6.128906e-05  1.496315e-08
    459    461   2   0.50000     0.0600000    0.0600000   6.128906e-05  1.496315e-08
    445    448   2   0.50000     0.0800000   -0.1200000   1.015252e-03  1.866303e-06
    445    462   2   0.50000     0.0800000    0.0600000   2.494471e-04  1.671101e-07
    445    463   2   0.50000     0.0800000    0.0600000   2.494471e-04  1.671101e-07
    460    448   2   0.50000     0.0600000   -0.1200000   2.494471e-04  1.671101e-07
    460    462   2   0.50000     0.0600000    0.0600000   6.128906e-05  1.496315e-08
    460    463   2   0.50000     0.0600000    0.0600000   6.128906e-05  1.496315e-08
    461    448   2   0.50000     0.0600000   -0.1200000   2.494471e-04  1.671101e-07
    461    462   2   0.50000     0.0600000    0.0600000   6.128906e-05  1.496315e-08
    461    463   2   0.50000     0.0600000    0.0600000   6.128906e-05  1.496315e-08
    446    449   2   0.50000    -0.1200000   -0.1200000   1.015252e-03  1.866303e-06
    446    464   2   0.50000    -0.1200000    0.0600000   2.494471e-04  1.671101e-07
    446    465   2   0.50000    -0.1200000    0.0600000   2.494471e-04  1.671101e-07
    462    449   2   0.50000     0.0600000   -0.1200000   2.494471e-04  1.671101e-07
    462    464   2   0.50000     0.0600000    0.0600000   6.128906e-05  1.496315e-08
    462    465   2   0.50000     0.0600000    0.0600000   6.128906e-05  1.496315e-08
    463    449   2   0.50000     0.0600000   -0.1200000   2.494471e-04  1.671101e-07
    463    464   2   0.50000     0.0600000    0.0600000   6.128906e-05  1.496315e-08
    463    465   2   0.50000     0.0600000    0.0600000   6.128906e-05  1.496315e-08
    447    450   2   0.50000    -0.1200000   -0.1200000   1.015252e-03  1.866303e-06
    447    466   2   0.50000    -0.1200000    0.0600000   2.494471e-04  1.671101e-07
    447    467   2   0.50000    -0.1200000    0.0600000   2.494471e-04  1.671101e-07
    464    450   2   0.50000     0.0600000   -0.1200000   2.494471e-04  1.671101e-07
    464    466   2   0.50000     0.0600000    0.0600000   6.128906e-05  1.496315e-08
    464    467   2   0.50000     0.0600000    0.0600000   6.128906e-05  1.496315e-08
    465    450   2   0.50000     0.0600000   -0.1200000   2.494471e-04  1.671101e-07
    465    466   2   0.50000     0.0600000    0.0600000   6.128906e-05  1.496315e-08
    465    467   2   0.50000     0.0600000    0.0600000   6.128906e-05  1.496315e-08
    448    451   2   0.50000    -0.1200000   -0.1200000   1.015252e-03  1.866303e-06
    448    468   2   0.50000    -0.1200000    0.0600000   2.494471e-04  1.671101e-07
    448    469   2   0.50000    -0.1200000    0.0600000   2.494471e-04  1.671101e-07
    466    451   2   0.50000     0.0600000   -0.1200000   2.494471e-04  1.671101e-07
    466    468   2   0.50000     0.0600000    0.0600000   6.128906e-05  1.496315e-08
    466    469   2   0.50000     0.0600000    0.0600000   6.128906e-05  1.496315e-08
    467    451   2   0.50000     0.0600000   -0.1200000   2.494471e-04  1.671101e-07
    467    468   2   0.50000     0.0600000    0.0600000   6.128906e-05  1.496315e-08
    467    469   2   0.50000     0.0600000    0.0600000   6.128906e-05  1.496315e-08
    449    452   2   0.50000    -0.1200000   -0.1200000   1.015252e-03  1.866303e-06
    449    470   2   0.50000    -0.1200000    0.0600000   2.494471e-04  1.671101e-07
    449    471   2   0.50000    -0.1200000    0.0600000   2.494471e-04  1.671101e-07
    468    452   2   0.50000     0.0600000   -0.1200000   2.494471e-04  1.671101e-07
    468    470   2   0.50000     0.0600000    0.0600000   6.128906e-05  1.496315e-08
    468    471   2   0.50000     0.0600000    0.0600000   6.128906e-05  1.496315e-08
    469    452   2   0.50000     0.0600000   -0.1200000   2.494471e-04  1.671101e-07
    469    470   2   0.50000     0.0600000    0.0600000   6.128906e-05  1.496315e-08
    469    471   2   0.50000     0.0600000    0.0600000   6.128906e-05  1.496315e-08
    450    453   2   0.50000    -0.1200000   -0.1200000   1.015252e-03  1.866303e-06
    450    472   2   0.50000    -0.1200000    0.0600000   2.494471e-04  1.671101e-07
    450    473   2   0.50000    -0.1200000    0.0600000   2.494471e-04  1.671101e-07
    470    453   2   0.50000     0.0600000   -0.1200000   2.494471e-04  1.671101e-07
    470    472   2   0.50000     0.0600000    0.0600000   6.128906e-05  1.496315e-08
    470    473   2   0.50000     0.0600000    0.0600000   6.128906e-05  1.496315e-08
    471    453   2   0.50000     0.0600000   -0.1200000   2.494471e-04  1.671101e-07
    471    472   2   0.50000     0.0600000    0.0600000   6.128906e-05  1.496315e-08
    471    473   2   0.50000     0.0600000    0.0600000   6.128906e-05  1.496315e-08
    451    454   2   0.50000    -0.1200000   -0.1200000   1.015252e-03  1.866303e-06
    451    474   2   0.50000    -0.1200000    0.0600000   2.494471e-04  1.671101e-07
    451    475   2   0.50000    -0.1200000    0.0600000   2.494471e-04  1.671101e-07
    472    454   2   0.50000     0.0600000   -0.1200000   2.494471e-04  1.671101e-07
    472    474   2   0.50000     0.0600000    0.0600000   6.128906e-05  1.496315e-08
    472    475   2   0.50000     0.0600000    0.0600000   6.128906e-05  1.496315e-08
    473    454   2   0.50000     0.0600000   -0.1200000   2.494471e-04  1.671101e-07
    473    474   2   0.50000     0.0600000    0.0600000   6.128906e-05  1.496315e-08
    473    475   2   0.50000     0.0600000    0.0600000   6.128906e-05  1.496315e-08
    452    455   2   0.50000    -0.1200000    0.5000000   1.575021e-03  3.561100e-06
    452    476   2   0.50000    -0.1200000    0.0600000   2.494471e-04  1.671101e-07
    452    477   2   0.50000    -0.1200000    0.0600000   2.494471e-04  1.671101e-07
    474    455   2   0.50000     0.0600000    0.5000000   3.869820e-04  3.188634e-07
    474    476   2   0.50000     0.0600000    0.0600000   6.128906e-05  1.496315e-08
    474    477   2   0.50000     0.0600000    0.0600000   6.128906e-05  1.496315e-08
    475    455   2   0.50000     0.0600000    0.5000000   3.869820e-04  3.188634e-07
    475    476   2   0.50000     0.0600000    0.0600000   6.128906e-05  1.496315e-08
    475    477   2   0.50000     0.0600000    0.0600000   6.128906e-05  1.496315e-08
    453    456   2   0.50000    -0.1200000   -0.5000000   1.095425e-03  1.218041e-06
    453    478   2   0.50000    -0.1200000   -0.5000000   1.304585e-03  1.920112e-06
    476    456   2   0.50000     0.0600000   -0.5000000   2.691455e-04  1.090642e-07
    476    478   2   0.50000     0.0600000   -0.5000000   3.205360e-04  1.719281e-07
    477    456   2   0.50000     0.0600000   -0.5000000   2.691455e-04  1.090642e-07
    477    478   2   0.50000     0.0600000   -0.5000000   3.205360e-04  1.719281e-07
    454    479   2   0.50000    -0.1200000    0.0800000   1.015252e-03  1.866303e-06
    454    491   2   0.50000    -0.1200000    0.3000000   1.995577e-06  1.069504e-11
    456    479   2   0.50000    -0.5000000    0.0800000   1.095425e-03  1.218041e-06
    456    491   2   0.50000    -0.5000000    0.3000000   2.153164e-06  6.980110e-12
    455    480   2   0.50000     0.5000000   -0.1200000   1.575021e-03  3.561100e-06
    455    492   2   0.50000     0.5000000    0.0600000   3.869820e-04  3.188634e-07
    455    493   2   0.50000     0.5000000    0.0600000   3.869820e-04  3.188634e-07
    491    480   2   0.50000     0.3000000   -0.1200000   1.995577e-06  1.069504e-11
    491    492   2   0.50000     0.3000000    0.0600000   4.903125e-07  9.576416e-13
    491    493   2   0.50000     0.3000000    0.0600000   4.903125e-07  9.576416e-13
    478    481   2   0.50000    -0.5000000   -0.1200000   1.304585e-03  1.920112e-06
    478    494   2   0.50000    -0.5000000    0.0600000   3.205360e-04  1.719281e-07
    478    495   2   0.50000    -0.5000000    0.0600000   3.205360e-04  1.719281e-07
    492    481   2   0.50000     0.0600000   -0.1200000   2.494471e-04  1.671101e-07
    492    494   2   0.50000     0.0600000    0.0600000   6.128906e-05  1.496315e-08
    492    495   2   0.50000     0.0600000    0.0600000   6.128906e-05  1.496315e-08
    493    481   2   0.50000     0.0600000   -0.1200000   2.494471e-04  1.671101e-07
    493    494   2   0.50000     0.0600000    0.0600000   6.128906e-05  1.496315e-08
    493    495   2   0.50000     0.0600000    0.0600000   6.128906e-05  1.496315e-08
    479    482   2   0.50000     0.0800000   -0.1200000   1.015252e-03  1.866303e-06
    479    496   2   0.50000     0.0800000    0.0600000   2.494471e-04  1.671101e-07
    479    497   2   0.50000     0.0800000    0.0600000   2.494471e-04  1.671101e-07
    494    482   2   0.50000     0.0600000   -0.1200000   2.494471e-04  1.671101e-07
    494    496   2   0.50000     0.0600000    0.0600000   6.128906e-05  1.496315e-08
    494    497   2   0.50000     0.0600000    0.0600000   6.128906e-05  1.496315e-08
    495    482   2   0.50000     0.0600000   -0.1200000   2.494471e-04  1.671101e-07
    495    496   2   0.50000     0.0600000    0.0600000   6.128906e-05  1.496315e-08
    495    497   2   0.50000     0.0600000    0.0600000   6.128906e-05  1.496315e-08
    480    483   2   0.50000    -0.1200000   -0.1200000   1.015252e-03  1.866303e-06
    480    498   2   0.50000    -0.1200000    0.0600000   2.494471e-04  1.671101e-07
    480    499   2   0.50000    -0.1200000    0.0600000   2.494471e-04  1.671101e-07
    496    483   2   0.50000     0.0600000   -0.1200000   2.494471e-04  1.671101e-07
    496    498   2   0.50000     0.0600000    0.0600000   6.128906e-05  1.496315e-08
    496    499   2   0.50000     0.0600000    0.0600000   6.128906e-05  1.496315e-08
    497    483   2   0.50000     0.0600000   -0.1200000   2.494471e-04  1.671101e-07
    497    498   2   0.50000     0.0600000    0.0600000   6.128906e-05  1.496315e-08
    497    499   2   0.50000     0.0600000    0.0600000   6.128906e-05  1.496315e-08
    481    484   2   0.50000    -0.1200000   -0.1200000   1.015252e-03  1.866303e-06
    481    500   2   0.50000    -0.1200000    0.0600000   2.494471e-04  1.671101e-07
    481    501   2   0.50000    -0.1200000    0.0600000   2.494471e-04  1.671101e-07
    498    484   2   0.50000     0.0600000   -0.1200000   2.494471e-04  1.671101e-07
    498    500   2   0.50000     0.0600000    0.0600000   6.128906e-05  1.496315e-08
    498    501   2   0.50000     0.0600000    0.0600000   6.128906e-05  1.496315e-08
    499    484   2   0.50000     0.0600000   -0.1200000   2.494471e-04  1.671101e-07
    499    500   2   0.50000     0.0600000    0.0600000   6.128906e-05  1.496315e-08
    499    501   2   0.50000     0.0600000    0.0600000   6.128906e-05  1.496315e-08
    482    485   2   0.50000    -0.1200000   -0.1200000   1.015252e-03  1.866303e-06
    482    502   2   0.50000    -0.1200000    0.0600000   2.494471e-04  1.671101e-07
    482    503   2   0.50000    -0.1200000    0.0600000   2.494471e-04  1.671101e-07
    500    485   2   0.50000     0.0600000   -0.1200000   2.494471e-04  1.671101e-07
    500    502   2   0.50000     0.0600000    0.0600000   6.128906e-05  1.496315e-08
    500    503   2   0.50000     0.0600000    0.0600000   6.128906e-05  1.496315e-08
    501    485   2   0.50000     0.0600000   -0.1200000   2.494471e-04  1.671101e-07
    501    502   2   0.50000     0.0600000    0.0600000   6.128906e-05  1.496315e-08
    501    503   2   0.50000     0.0600000    0.0600000   6.128906e-05  1.496315e-08
    483    486   2   0.50000    -0.1200000   -0.1200000   1.015252e-03  1.866303e-06
    483    504   2   0.50000    -0.1200000    0.0600000   2.494471e-04  1.671101e-07
    483    505   2   0.50000    -0.1200000    0.0600000   2.494471e-04  1.671101e-07
    502    486   2   0.50000     0.0600000   -0.1200000   2.494471e-04  1.671101e-07
    502    504   2   0.50000     0.0600000    0.0600000   6.128906e-05  1.496315e-08
    502    505   2   0.50000     0.0600000    0.0600000   6.128906e-05  1.496315e-08
    503    486   2   0.50000     0.0600000   -0.1200000   2.494471e-04  1.671101e-07
    503    504   2   0.50000     0.0600000    0.0600000   6.128906e-05  1.496315e-08
    503    505   2   0.50000     0.0600000    0.0600000   6.128906e-05  1.496315e-08
    484    487   2   0.50000    -0.1200000   -0.1200000   1.015252e-03  1.866303e-06
    484    506   2   0.50000    -0.1200000    0.0600000   2.494471e-04  1.671101e-07
    484    507   2   0.50000    -0.1200000    0.0600000   2.494471e-04  1.671101e-07
    504    487   2   0.50000     0.0600000   -0.1200000   2.494471e-04  1.671101e-07
    504    506   2   0.50000     0.0600000    0.0600000   6.128906e-05  1.496315e-08
    504    507   2   0.50000     0.0600000    0.0600000   6.128906e-05  1.496315e-08
    505    487   2   0.50000     0.0600000   -0.1200000   2.494471e-04  1.671101e-07
    505    506   2   0.50000     0.0600000    0.0600000   6.128906e-05  1.496315e-08
    505    507   2   0.50000     0.0600000    0.0600000   6.128906e-05  1.496315e-08
    485    488   2   0.50000    -0.1200000   -0.1200000   1.015252e-03  1.866303e-06
    485    508   2   0.50000    -0.1200000    0.0600000   2.494471e-04  1.671101e-07
    485    509   2   0.50000    -0.1200000    0.0600000   2.494471e-04  1.671101e-07
    506    488   2   0.50000     0.0600000   -0.1200000   2.494471e-04  1.671101e-07
    506    508   2   0.50000     0.0600000    0.0600000   6.128906e-05  1.496315e-08
    506    509   2   0.50000     0.0600000    0.0600000   6.128906e-05  1.496315e-08
    507    488   2   0.50000     0.0600000   -0.1200000   2.494471e-04  1.671101e-07
    507    508   2   0.50000     0.0600000    0.0600000   6.128906e-05  1.496315e-08
    507    509   2   0.50000     0.0600000    0.0600000   6.128906e-05  1.496315e-08
    486    489   2   0.50000    -0.1200000    0.5000000   1.575021e-03  3.561100e-06
    486    510   2   0.50000    -0.1200000    0.0600000   2.494471e-04  1.671101e-07
    486    511   2   0.50000    -0.1200000    0.0600000   2.494471e-04  1.671101e-07
    508    489   2   0.50000     0.0600000    0.5000000   3.869820e-04  3.188634e-07
    508    510   2   0.50000     0.0600000    0.0600000   6.128906e-05  1.496315e-08
    508    511   2   0.50000     0.0600000    0.0600000   6.128906e-05  1.496315e-08
    509    489   2   0.50000     0.0600000    0.5000000   3.869820e-04  3.188634e-07
    509    510   2   0.50000     0.0600000    0.0600000   6.128906e-05  1.496315e-08
    509    511   2   0.50000     0.0600000    0.0600000   6.128906e-05  1.496315e-08
    487    490   2   0.50000    -0.1200000   -0.5000000   1.095425e-03  1.218041e-06
    487    512   2   0.50000    -0.1200000   -0.5000000   1.304585e-03  1.920112e-06
    510    490   2   0.50000     0.0600000   -0.5000000   2.691455e-04  1.090642e-07
    510    512   2   0.50000     0.0600000   -0.5000000   3.205360e-04  1.719281e-07
    511    490   2   0.50000     0.0600000   -0.5000000   2.691455e-04  1.090642e-07
    511    512   2   0.50000     0.0600000   -0.5000000   3.205360e-04  1.719281e-07
    488    513   2   0.50000    -0.1200000    0.0800000   1.015252e-03  1.866303e-06
    488    525   2   0.50000    -0.1200000    0.3000000   1.995577e-06  1.069504e-11
    490    513   2   0.50000    -0.5000000    0.0800000   1.095425e-03  1.218041e-06
    490    525   2   0.50000    -0.5000000    0.3000000   2.153164e-06  6.980110e-12
    489    514   2   0.50000     0.5000000   -0.1200000   1.575021e-03  3.561100e-06
    489    526   2   0.50000     0.5000000    0.0600000   3.869820e-04  3.188634e-07
    489    527   2   0.50000     0.5000000    0.0600000   3.869820e-04  3.188634e-07
    525    514   2   0.50000     0.3000000   -0.1200000   1.995577e-06  1.069504e-11
    525    526   2   0.50000     0.3000000    0.0600000   4.903125e-07  9.576416e-13
    525    527   2   0.50000     0.3000000    0.0600000   4.903125e-07  9.576416e-13
    512    515   2   0.50000    -0.5000000   -0.1200000   1.304585e-03  1.920112e-06
    512    528   2   0.50000    -0.5000000    0.0600000   3.205360e-04  1.719281e-07
    512    529   2   0.50000    -0.5000000    0.0600000   3.205360e-04  1.719281e-07
    526    515   2   0.50000     0.0600000   -0.1200000   2.494471e-04  1.671101e-07
    526    528   2   0.50000     0.0600000    0.0600000   6.128906e-05  1.496315e-08
    526    529   2   0.50000     0.0600000    0.0600000   6.128906e-05  1.496315e-08
    527    515   2   0.50000     0.0600000   -0.1200000   2.494471e-04  1.671101e-07
    527    528   2   0.50000     0.0600000    0.0600000   6.128906e-05  1.496315e-08
    527    529   2   0.50000     0.0600000    0.0600000   6.128906e-05  1.496315e-08
    513    516   2   0.50000     0.0800000   -0.1200000   1.015252e-03  1.866303e-06
    513    530   2   0.50000     0.0800000    0.0600000   2.494471e-04  1.671101e-07
    513    531   2   0.50000     0.0800000    0.0600000   2.494471e-04  1.671101e-07
    528    516   2   0.50000     0.0600000   -0.1200000   2.494471e-04  1.671101e-07
    528    530   2   0.50000     0.0600000    0.0600000   6.128906e-05  1.496315e-08
    528    531   2   0.50000     0.0600000    0.0600000   6.128906e-05  1.496315e-08
    529    516   2   0.50000     0.0600000   -0.1200000   2.494471e-04  1.671101e-07
    529    530   2   0.50000     0.0600000    0.0600000   6.128906e-05  1.496315e-08
    529    531   2   0.50000     0.0600000    0.0600000   6.128906e-05  1.496315e-08
    514    517   2   0.50000    -0.1200000   -0.1200000   1.015252e-03  1.866303e-06
    514    532   2   0.50000    -0.1200000    0.0600000   2.494471e-04  1.671101e-07
    514    533   2   0.50000    -0.1200000    0.0600000   2.494471e-04  1.671101e-07
    530    517   2   0.50000     0.0600000   -0.1200000   2.494471e-04  1.671101e-07
    530    532   2   0.50000     0.0600000    0.0600000   6.128906e-05  1.496315e-08
    530    533   2   0.50000     0.0600000    0.0600000   6.128906e-05  1.496315e-08
    531    517   2   0.50000     0.0600000   -0.1200000   2.494471e-04  1.671101e-07
    531    532   2   0.50000     0.0600000    0.0600000   6.128906e-05  1.496315e-08
    531    533   2   0.50000     0.0600000    0.0600000   6.128906e-05  1.496315e-08
    515    518   2   0.50000    -0.1200000   -0.1200000   1.015252e-03  1.866303e-06
    515    534   2   0.50000    -0.1200000    0.0600000   2.494471e-04  1.671101e-07
    515    535   2   0.50000    -0.1200000    0.0600000   2.494471e-04  1.671101e-07
    532    518   2   0.50000     0.0600000   -0.1200000   2.494471e-04  1.671101e-07
    532    534   2   0.50000     0.0600000    0.0600000   6.128906e-05  1.496315e-08
    532    535   2   0.50000     0.0600000    0.0600000   6.128906e-05  1.496315e-08
    533    518   2   0.50000     0.0600000   -0.1200000   2.494471e-04  1.671101e-07
    533    534   2   0.50000     0.0600000    0.0600000   6.128906e-05  1.496315e-08
    533    535   2   0.50000     0.0600000    0.0600000   6.128906e-05  1.496315e-08
    516    519   2   0.50000    -0.1200000   -0.1200000   1.015252e-03  1.866303e-06
    516    536   2   0.50000    -0.1200000    0.0600000   2.494471e-04  1.671101e-07
    516    537   2   0.50000    -0.1200000    0.0600000   2.494471e-04  1.671101e-07
    534    519   2   0.50000     0.0600000   -0.1200000   2.494471e-04  1.671101e-07
    534    536   2   0.50000     0.0600000    0.0600000   6.128906e-05  1.496315e-08
    534    537   2   0.50000     0.0600000    0.0600000   6.128906e-05  1.496315e-08
    535    519   2   0.50000     0.0600000   -0.1200000   2.494471e-04  1.671101e-07
    535    536   2   0.50000     0.0600000    0.0600000   6.128906e-05  1.496315e-08
    535    537   2   0.50000     0.0600000    0.0600000   6.128906e-05  1.496315e-08
    517    520   2   0.50000    -0.1200000   -0.1200000   1.015252e-03  1.866303e-06
    517    538   2   0.50000    -0.1200000    0.0600000   2.494471e-04  1.671101e-07
    517    539   2   0.50000    -0.1200000    0.0600000   2.494471e-04  1.671101e-07
    536    520   2   0.50000     0.0600000   -0.1200000   2.494471e-04  1.671101e-07
    536    538   2   0.50000     0.0600000    0.0600000   6.128906e-05  1.496315e-08
    536    539   2   0.50000     0.0600000    0.0600000   6.128906e-05  1.496315e-08
    537    520   2   0.50000     0.0600000   -0.1200000   2.494471e-04  1.671101e-07
    537    538   2   0.50000     0.0600000    0.0600000   6.128906e-05  1.496315e-08
    537    539   2   0.50000     0.0600000    0.0600000   6.128906e-05  1.496315e-08
    518    521   2   0.50000    -0.1200000   -0.1200000   1.015252e-03  1.866303e-06
    518    540   2   0.50000    -0.1200000    0.0600000   2.494471e-04  1.671101e-07
    518    541   2   0.50000    -0.1200000    0.0600000   2.494471e-04  1.671101e-07
    538    521   2   0.50000     0.0600000   -0.1200000   2.494471e-04  1.671101e-07
    538    540   2   0.50000     0.0600000    0.0600000   6.128906e-05  1.496315e-08
    538    541   2   0.50000     0.0600000    0.0600000   6.128906e-05  1.496315e-08
    539    521   2   0.50000     0.0600000   -0.1200000   2.494471e-04  1.671101e-07
    539    540   2   0.50000     0.0600000    0.0600000   6.128906e-05  1.496315e-08
    539    541   2   0.50000     0.0600000    0.0600000   6.128906e-05  1.496315e-08
    519    522   2   0.50000    -0.1200000   -0.1200000   1.015252e-03  1.866303e-06
    519    542   2   0.50000    -0.1200000    0.0600000   2.494471e-04  1.671101e-07
    519    543   2   0.50000    -0.1200000    0.0600000   2.494471e-04  1.671101e-07
    540    522   2   0.50000     0.0600000   -0.1200000   2.494471e-04  1.671101e-07
    540    542   2   0.50000     0.0600000    0.0600000   6.128906e-05  1.496315e-08
    540    543   2   0.50000     0.0600000    0.0600000   6.128906e-05  1.496315e-08
    541    522   2   0.50000     0.0600000   -0.1200000   2.494471e-04  1.671101e-07
    541    542   2   0.50000     0.0600000    0.0600000   6.128906e-05  1.496315e-08
    541    543   2   0.50000     0.0600000    0.0600000   6.128906e-05  1.496315e-08
    520    523   2   0.50000    -0.1200000    0.5000000   1.575021e-03  3.561100e-06
    520    544   2   0.50000    -0.1200000    0.0600000   2.494471e-04  1.671101e-07
    520    545   2   0.50000    -0.1200000    0.0600000   2.494471e-04  1.671101e-07
    542    523   2   0.50000     0.0600000    0.5000000   3.869820e-04  3.188634e-07
    542    544   2   0.50000     0.0600000    0.0600000   6.128906e-05  1.496315e-08
    542    545   2   0.50000     0.0600000    0.0600000   6.128906e-05  1.496315e-08
    543    523   2   0.50000     0.0600000    0.5000000   3.869820e-04  3.188634e-07
    543    544   2   0.50000     0.0600000    0.0600000   6.128906e-05  1.496315e-08
    543    545   2   0.50000     0.0600000    0.0600000   6.128906e-05  1.496315e-08
    521    524   2   0.50000    -0.1200000   -0.5000000   1.095425e-03  1.218041e-06
    521    546   2   0.50000    -0.1200000   -0.5000000   1.304585e-03  1.920112e-06
    544    524   2   0.50000     0.0600000   -0.5000000   2.691455e-04  1.090642e-07
    544    546   2   0.50000     0.0600000   -0.5000000   3.205360e-04  1.719281e-07
    545    524   2   0.50000     0.0600000   -0.5000000   2.691455e-04  1.090642e-07
    545    546   2   0.50000     0.0600000   -0.5000000   3.205360e-04  1.719281e-07
    522    547   2   0.50000    -0.1200000    0.0800000   1.015252e-03  1.866303e-06
    522    559   2   0.50000    -0.1200000    0.3000000   1.995577e-06  1.069504e-11
    524    547   2   0.50000    -0.5000000    0.0800000   1.095425e-03  1.218041e-06
    524    559   2   0.50000    -0.5000000    0.3000000   2.153164e-06  6.980110e-12
    523    548   2   0.50000     0.5000000   -0.1200000   1.575021e-03  3.561100e-06
    523    560   2   0.50000     0.5000000    0.0600000   3.869820e-04  3.188634e-07
    523    561   2   0.50000     0.5000000    0.0600000   3.869820e-04  3.188634e-07
    559    548   2   0.50000     0.3000000   -0.1200000   1.995577e-06  1.069504e-11
    559    560   2   0.50000     0.3000000    0.0600000   4.903125e-07  9.576416e-13
    559    561   2   0.50000     0.3000000    0.0600000   4.903125e-07  9.576416e-13
    546    549   2   0.50000    -0.5000000   -0.1200000   1.304585e-03  1.920112e-06
    546    562   2   0.50000    -0.5000000    0.0600000   3.205360e-04  1.719281e-07
    546    563   2   0.50000    -0.5000000    0.0600000   3.205360e-04  1.719281e-07
    560    549   2   0.50000     0.0600000   -0.1200000   2.494471e-04  1.671101e-07
    560    562   2   0.50000     0.0600000    0.0600000   6.128906e-05  1.496315e-08
    560    563   2   0.50000     0.0600000    0.0600000   6.128906e-05  1.496315e-08
    561    549   2   0.50000     0.0600000   -0.1200000   2.494471e-04  1.671101e-07
    561    562   2   0.50000     0.0600000    0.0600000   6.128906e-05  1.496315e-08
    561    563   2   0.50000     0.0600000    0.0600000   6.128906e-05  1.496315e-08
    547    550   2   0.50000     0.0800000   -0.1200000   1.015252e-03  1.866303e-06
    547    564   2   0.50000     0.0800000    0.0600000   2.494471e-04  1.671101e-07
    547    565   2   0.50000     0.0800000    0.0600000   2.494471e-04  1.671101e-07
    562    550   2   0.50000     0.0600000   -0.1200000   2.494471e-04  1.671101e-07
    562    564   2   0.50000     0.0600000    0.0600000   6.128906e-05  1.496315e-08
    562    565   2   0.50000     0.0600000    0.0600000   6.128906e-05  1.496315e-08
    563    550   2   0.50000     0.0600000   -0.1200000   2.494471e-04  1.671101e-07
    563    564   2   0.50000     0.0600000    0.0600000   6.128906e-05  1.496315e-08
    563    565   2   0.50000     0.0600000    0.0600000   6.128906e-05  1.496315e-08
    548    551   2   0.50000    -0.1200000   -0.1200000   1.015252e-03  1.866303e-06
    548    566   2   0.50000    -0.1200000    0.0600000   2.494471e-04  1.671101e-07
    548    567   2   0.50000    -0.1200000    0.0600000   2.494471e-04  1.671101e-07
    564    551   2   0.50000     0.0600000   -0.1200000   2.494471e-04  1.671101e-07
    564    566   2   0.50000     0.0600000    0.0600000   6.128906e-05  1.496315e-08
    564    567   2   0.50000     0.0600000    0.0600000   6.128906e-05  1.496315e-08
    565    551   2   0.50000     0.0600000   -0.1200000   2.494471e-04  1.671101e-07
    565    566   2   0.50000     0.0600000    0.0600000   6.128906e-05  1.496315e-08
    565    567   2   0.50000     0.0600000    0.0600000   6.128906e-05  1.496315e-08
    549    552   2   0.50000    -0.1200000   -0.1200000   1.015252e-03  1.866303e-06
    549    568   2   0.50000    -0.1200000    0.0600000   2.494471e-04  1.671101e-07
    549    569   2   0.50000    -0.1200000    0.0600000   2.494471e-04  1.671101e-07
    566    552   2   0.50000     0.0600000   -0.1200000   2.494471e-04  1.671101e-07
    566    568   2   0.50000     0.0600000    0.0600000   6.128906e-05  1.496315e-08
    566    569   2   0.50000     0.0600000    0.0600000   6.128906e-05  1.496315e-08
    567    552   2   0.50000     0.0600000   -0.1200000   2.494471e-04  1.671101e-07
    567    568   2   0.50000     0.0600000    0.0600000   6.128906e-05  1.496315e-08
    567    569   2   0.50000     0.0600000    0.0600000   6.128906e-05  1.496315e-08
    550    553   2   0.50000    -0.1200000   -0.1200000   1.015252e-03  1.866303e-06
    550    570   2   0.50000    -0.1200000    0.0600000   2.494471e-04  1.671101e-07
    550    571   2   0.50000    -0.1200000    0.0600000   2.494471e-04  1.671101e-07
    568    553   2   0.50000     0.0600000   -0.1200000   2.494471e-04  1.671101e-07
    568    570   2   0.50000     0.0600000    0.0600000   6.128906e-05  1.496315e-08
    568    571   2   0.50000     0.0600000    0.0600000   6.128906e-05  1.496315e-08
    569    553   2   0.50000     0.0600000   -0.1200000   2.494471e-04  1.671101e-07
    569    570   2   0.50000     0.0600000    0.0600000   6.128906e-05  1.496315e-08
    569    571   2   0.50000     0.0600000    0.0600000   6.128906e-05  1.496315e-08
    551    554   2   0.50000    -0.1200000   -0.1200000   1.015252e-03  1.866303e-06
    551    572   2   0.50000    -0.1200000    0.0600000   2.494471e-04  1.671101e-07
    551    573   2   0.50000    -0.1200000    0.0600000   2.494471e-04  1.671101e-07
    570    554   2   0.50000     0.0600000   -0.1200000   2.494471e-04  1.671101e-07
    570    572   2   0.50000     0.0600000    0.0600000   6.128906e-05  1.496315e-08
    570    573   2   0.50000     0.0600000    0.0600000   6.128906e-05  1.496315e-08
    571    554   2   0.50000     0.0600000   -0.1200000   2.494471e-04  1.671101e-07
    571    572   2   0.50000     0.0600000    0.0600000   6.128906e-05  1.496315e-08
    571    573   2   0.50000     0.0600000    0.0600000   6.128906e-05  1.496315e-08
    552    555   2   0.50000    -0.1200000   -0.1200000   1.015252e-03  1.866303e-06
    552    574   2   0.50000    -0.1200000    0.0600000   2.494471e-04  1.671101e-07
    552    575   2   0.50000    -0.1200000    0.0600000   2.494471e-04  1.671101e-07
    572    555   2   0.50000     0.0600000   -0.1200000   2.494471e-04  1.671101e-07
    572    574   2   0.50000     0.0600000    0.0600000   6.128906e-05  1.496315e-08
    572    575   2   0.50000     0.0600000    0.0600000   6.128906e-05  1.496315e-08
    573    555   2   0.50000     0.0600000   -0.1200000   2.494471e-04  1.671101e-07
    573    574   2   0.50000     0.0600000    0.0600000   6.128906e-05  1.496315e-08
    573    575   2   0.50000     0.0600000    0.0600000   6.128906e-05  1.496315e-08
    553    556   2   0.50000    -0.1200000   -0.1200000   1.015252e-03  1.866303e-06
    553    576   2   0.50000    -0.1200000    0.0600000   2.494471e-04  1.671101e-07
    553    577   2   0.50000    -0.1200000    0.0600000   2.494471e-04  1.671101e-07
    574    556   2   0.50000     0.0600000   -0.1200000   2.494471e-04  1.671101e-07
    574    576   2   0.50000     0.0600000    0.0600000   6.128906e-05  1.496315e-08
    574    577   2   0.50000     0.0600000    0.0600000   6.128906e-05  1.496315e-08
    575    556   2   0.50000     0.0600000   -0.1200000   2.494471e-04  1.671101e-07
    575    576   2   0.50000     0.0600000    0.0600000   6.128906e-05  1.496315e-08
    575    577   2   0.50000     0.0600000    0.0600000   6.128906e-05  1.496315e-08
    554    557   2   0.50000    -0.1200000    0.5000000   1.575021e-03  3.561100e-06
    554    578   2   0.50000    -0.1200000    0.0600000   2.494471e-04  1.671101e-07
    554    579   2   0.50000    -0.1200000    0.0600000   2.494471e-04  1.671101e-07
    576    557   2   0.50000     0.0600000    0.5000000   3.869820e-04  3.188634e-07
    576    578   2   0.50000     0.0600000    0.0600000   6.128906e-05  1.496315e-08
    576    579   2   0.50000     0.0600000    0.0600000   6.128906e-05  1.496315e-08
    577    557   2   0.50000     0.0600000    0.5000000   3.869820e-04  3.188634e-07
    577    578   2   0.50000     0.0600000    0.0600000   6.128906e-05  1.496315e-08
    577    579   2   0.50000     0.0600000    0.0600000   6.128906e-05  1.496315e-08
    555    558   2   0.50000    -0.1200000   -0.5000000   1.095425e-03  1.218041e-06
    555    580   2   0.50000    -0.1200000   -0.5000000   1.304585e-03  1.920112e-06
    578    558   2   0.50000     0.0600000   -0.5000000   2.691455e-04  1.090642e-07
    578    580   2   0.50000     0.0600000   -0.5000000   3.205360e-04  1.719281e-07
    579    558   2   0.50000     0.0600000   -0.5000000   2.691455e-04  1.090642e-07
    579    580   2   0.50000     0.0600000   -0.5000000   3.205360e-04  1.719281e-07
    556    581   2   0.50000    -0.1200000    0.0800000   1.015252e-03  1.866303e-06
    556    593   2   0.50000    -0.1200000    0.3000000   1.995577e-06  1.069504e-11
    558    581   2   0.50000    -0.5000000    0.0800000   1.095425e-03  1.218041e-06
    558    593   2   0.50000    -0.5000000    0.3000000   2.153164e-06  6.980110e-12
    557    582   2   0.50000     0.5000000   -0.1200000   1.575021e-03  3.561100e-06
    557    594   2   0.50000     0.5000000    0.0600000   3.869820e-04  3.188634e-07
    557    595   2   0.50000     0.5000000    0.0600000   3.869820e-04  3.188634e-07
    593    582   2   0.50000     0.3000000   -0.1200000   1.995577e-06  1.069504e-11
    593    594   2   0.50000     0.3000000    0.0600000   4.903125e-07  9.576416e-13
    593    595   2   0.50000     0.3000000    0.0600000   4.903125e-07  9.576416e-13
    580    583   2   0.50000    -0.5000000   -0.1200000   1.304585e-03  1.920112e-06
    580    596   2   0.50000    -0.5000000    0.0600000   3.205360e-04  1.719281e-07
    580    597   2   0.50000    -0.5000000    0.0600000   3.205360e-04  1.719281e-07
    594    583   2   0.50000     0.0600000   -0.1200000   2.494471e-04  1.671101e-07
    594    596   2   0.50000     0.0600000    0.0600000   6.128906e-05  1.496315e-08
    594    597   2   0.50000     0.0600000    0.0600000   6.128906e-05  1.496315e-08
    595    583   2   0.50000     0.0600000   -0.1200000   2.494471e-04  1.671101e-07
    595    596   2   0.50000     0.0600000    0.0600000   6.128906e-05  1.496315e-08
    595    597   2   0.50000     0.0600000    0.0600000   6.128906e-05  1.496315e-08
    581    584   2   0.50000     0.0800000   -0.1200000   1.015252e-03  1.866303e-06
    581    598   2   0.50000     0.0800000    0.0600000   2.494471e-04  1.671101e-07
    581    599   2   0.50000     0.0800000    0.0600000   2.494471e-04  1.671101e-07
    596    584   2   0.50000     0.0600000   -0.1200000   2.494471e-04  1.671101e-07
    596    598   2   0.50000     0.0600000    0.0600000   6.128906e-05  1.496315e-08
    596    599   2   0.50000     0.0600000    0.0600000   6.128906e-05  1.496315e-08
    597    584   2   0.50000     0.0600000   -0.1200000   2.494471e-04  1.671101e-07
    597    598   2   0.50000     0.0600000    0.0600000   6.128906e-05  1.496315e-08
    597    599   2   0.50000     0.0600000    0.0600000   6.128906e-05  1.496315e-08
    582    585   2   0.50000    -0.1200000   -0.1200000   1.015252e-03  1.866303e-06
    582    600   2   0.50000    -0.1200000    0.0600000   2.494471e-04  1.671101e-07
    582    601   2   0.50000    -0.1200000    0.0600000   2.494471e-04  1.671101e-07
    598    585   2   0.50000     0.0600000   -0.1200000   2.494471e-04  1.671101e-07
    598    600   2   0.50000     0.0600000    0.0600000   6.128906e-05  1.496315e-08
    598    601   2   0.50000     0.0600000    0.0600000   6.128906e-05  1.496315e-08
    599    585   2   0.50000     0.0600000   -0.1200000   2.494471e-04  1.671101e-07
    599    600   2   0.50000     0.0600000    0.0600000   6.128906e-05  1.496315e-08
    599    601   2   0.50000     0.0600000    0.0600000   6.128906e-05  1.496315e-08
    583    586   2   0.50000    -0.1200000   -0.1200000   1.015252e-03  1.866303e-06
    583    602   2   0.50000    -0.1200000    0.0600000   2.494471e-04  1.671101e-07
    583    603   2   0.50000    -0.1200000    0.0600000   2.494471e-04  1.671101e-07
    600    586   2   0.50000     0.0600000   -0.1200000   2.494471e-04  1.671101e-07
    600    602   2   0.50000     0.0600000    0.0600000   6.128906e-05  1.496315e-08
    600    603   2   0.50000     0.0600000    0.0600000   6.128906e-05  1.496315e-08
    601    586   2   0.50000     0.0600000   -0.1200000   2.494471e-04  1.671101e-07
    601    602   2   0.50000     0.0600000    0.0600000   6.128906e-05  1.496315e-08
    601    603   2   0.50000     0.0600000    0.0600000   6.128906e-05  1.496315e-08
    584    587   2   0.50000    -0.1200000   -0.1200000   1.015252e-03  1.866303e-06
    584    604   2   0.50000    -0.1200000    0.0600000   2.494471e-04  1.671101e-07
    584    605   2   0.50000    -0.1200000    0.0600000   2.494471e-04  1.671101e-07
    602    587   2   0.50000     0.0600000   -0.1200000   2.494471e-04  1.671101e-07
    602    604   2   0.50000     0.0600000    0.0600000   6.128906e-05  1.496315e-08
    602    605   2   0.50000     0.0600000    0.0600000   6.128906e-05  1.496315e-08
    603    587   2   0.50000     0.0600000   -0.1200000   2.494471e-04  1.671101e-07
    603    604   2   0.50000     0.0600000    0.0600000   6.128906e-05  1.496315e-08
    603    605   2   0.50000     0.0600000    0.0600000   6.128906e-05  1.496315e-08
    585    588   2   0.50000    -0.1200000   -0.1200000   1.015252e-03  1.866303e-06
    585    606   2   0.50000    -0.1200000    0.0600000   2.494471e-04  1.671101e-07
    585    607   2   0.50000    -0.1200000    0.0600000   2.494471e-04  1.671101e-07
    604    588   2   0.50000     0.0600000   -0.1200000   2.494471e-04  1.671101e-07
    604    606   2   0.50000     0.0600000    0.0600000   6.128906e-05  1.496315e-08
    604    607   2   0.50000     0.0600000    0.0600000   6.128906e-05  1.496315e-08
    605    588   2   0.50000     0.0600000   -0.1200000   2.494471e-04  1.671101e-07
    605    606   2   0.50000     0.0600000    0.0600000   6.128906e-05  1.496315e-08
    605    607   2   0.50000     0.0600000    0.0600000   6.128906e-05  1.496315e-08
    586    589   2   0.50000    -0.1200000   -0.1200000   1.015252e-03  1.866303e-06
    586    608   2   0.50000    -0.1200000    0.0600000   2.494471e-04  1.671101e-07
    586    609   2   0.50000    -0.1200000    0.0600000   2.494471e-04  1.671101e-07
    606    589   2   0.50000     0.0600000   -0.1200000   2.494471e-04  1.671101e-07
    606    608   2   0.50000     0.0600000    0.0600000   6.128906e-05  1.496315e-08
    606    609   2   0.50000     0.0600000    0.0600000   6.128906e-05  1.496315e-08
    607    589   2   0.50000     0.0600000   -0.1200000   2.494471e-04  1.671101e-07
    607    608   2   0.50000     0.0600000    0.0600000   6.128906e-05  1.496315e-08
    607    609   2   0.50000     0.0600000    0.0600000   6.128906e-05  1.496315e-08
    587    590   2   0.50000    -0.1200000   -0.1200000   1.015252e-03  1.866303e-06
    587    610   2   0.50000    -0.1200000    0.0600000   2.494471e-04  1.671101e-07
    587    611   2   0.50000    -0.1200000    0.0600000   2.494471e-04  1.671101e-07
    608    590   2   0.50000     0.0600000   -0.1200000   2.494471e-04  1.671101e-07
    608    610   2   0.50000     0.0600000    0.0600000   6.128906e-05  1.496315e-08
    608    611   2   0.50000     0.0600000    0.0600000   6.128906e-05  1.496315e-08
    609    590   2   0.50000     0.0600000   -0.1200000   2.494471e-04  1.671101e-07
    609    610   2   0.50000     0.0600000    0.0600000   6.128906e-05  1.496315e-08
    609    611   2   0.50000     0.0600000    0.0600000   6.128906e-05  1.496315e-08
    588    591   2   0.50000    -0.1200000    0.5000000   1.575021e-03  3.561100e-06
    588    612   2   0.50000    -0.1200000    0.0600000   2.494471e-04  1.671101e-07
    588    613   2   0.50000    -0.1200000    0.0600000   2.494471e-04  1.671101e-07
    610    591   2   0.50000     0.0600000    0.5000000   3.869820e-04  3.188634e-07
    610    612   2   0.50000     0.0600000    0.0600000   6.128906e-05  1.496315e-08
    610    613   2   0.50000     0.0600000    0.0600000   6.128906e-05  1.496315e-08
    611    591   2   0.50000     0.0600000    0.5000000   3.869820e-04  3.188634e-07
    611    612   2   0.50000     0.0600000    0.0600000   6.128906e-05  1.496315e-08
    611    613   2   0.50000     0.0600000    0.0600000   6.128906e-05  1.496315e-08
    589    592   2   0.50000    -0.1200000   -0.5000000   1.095425e-03  1.218041e-06
    589    614   2   0.50000    -0.1200000   -0.5000000   1.304585e-03  1.920112e-06
    612    592   2   0.50000     0.0600000   -0.5000000   2.691455e-04  1.090642e-07
    612    614   2   0.50000     0.0600000   -0.5000000   3.205360e-04  1.719281e-07
    613    592   2   0.50000     0.0600000   -0.5000000   2.691455e-04  1.090642e-07
    613    614   2   0.50000     0.0600000   -0.5000000   3.205360e-04  1.719281e-07
    590    615   2   0.50000    -0.1200000    0.0800000   1.015252e-03  1.866303e-06
    590    627   2   0.50000    -0.1200000    0.3000000   1.995577e-06  1.069504e-11
    592    615   2   0.50000    -0.5000000    0.0800000   1.095425e-03  1.218041e-06
    592    627   2   0.50000    -0.5000000    0.3000000   2.153164e-06  6.980110e-12
    591    616   2   0.50000     0.5000000   -0.1200000   1.575021e-03  3.561100e-06
    591    628   2   0.50000     0.5000000    0.0600000   3.869820e-04  3.188634e-07
    591    629   2   0.50000     0.5000000    0.0600000   3.869820e-04  3.188634e-07
    627    616   2   0.50000     0.3000000   -0.1200000   1.995577e-06  1.069504e-11
    627    628   2   0.50000     0.3000000    0.0600000   4.903125e-07  9.576416e-13
    627    629   2   0.50000     0.3000000    0.0600000   4.903125e-07  9.576416e-13
    614    617   2   0.50000    -0.5000000   -0.1200000   1.304585e-03  1.920112e-06
    614    630   2   0.50000    -0.5000000    0.0600000   3.205360e-04  1.719281e-07
    614    631   2   0.50000    -0.5000000    0.0600000   3.205360e-04  1.719281e-07
    628    617   2   0.50000     0.0600000   -0.1200000   2.494471e-04  1.671101e-07
    628    630   2   0.50000     0.0600000    0.0600000   6.128906e-05  1.496315e-08
    628    631   2   0.50000     0.0600000    0.0600000   6.128906e-05  1.496315e-08
    629    617   2   0.50000     0.0600000   -0.1200000   2.494471e-04  1.671101e-07
    629    630   2   0.50000     0.0600000    0.0600000   6.128906e-05  1.496315e-08
    629    631   2   0.50000     0.0600000    0.0600000   6.128906e-05  1.496315e-08
    615    618   2   0.50000     0.0800000   -0.1200000   1.015252e-03  1.866303e-06
    615    632   2   0.50000     0.0800000    0.0600000   2.494471e-04  1.671101e-07
    615    633   2   0.50000     0.0800000    0.0600000   2.494471e-04  1.671101e-07
    630    618   2   0.50000     0.0600000   -0.1200000   2.494471e-04  1.671101e-07
    630    632   2   0.50000     0.0600000    0.0600000   6.128906e-05  1.496315e-08
    630    633   2   0.50000     0.0600000    0.0600000   6.128906e-05  1.496315e-08
    631    618   2   0.50000     0.0600000   -0.1200000   2.494471e-04  1.671101e-07
    631    632   2   0.50000     0.0600000    0.0600000   6.128906e-05  1.496315e-08
    631    633   2   0.50000     0.0600000    0.0600000   6.128906e-05  1.496315e-08
    616    619   2   0.50000    -0.1200000   -0.1200000   1.015252e-03  1.866303e-06
    616    634   2   0.50000    -0.1200000    0.0600000   2.494471e-04  1.671101e-07
    616    635   2   0.50000    -0.1200000    0.0600000   2.494471e-04  1.671101e-07
    632    619   2   0.50000     0.0600000   -0.1200000   2.494471e-04  1.671101e-07
    632    634   2   0.50000     0.0600000    0.0600000   6.128906e-05  1.496315e-08
    632    635   2   0.50000     0.0600000    0.0600000   6.128906e-05  1.496315e-08
    633    619   2   0.50000     0.0600000   -0.1200000   2.494471e-04  1.671101e-07
    633    634   2   0.50000     0.0600000    0.0600000   6.128906e-05  1.496315e-08
    633    635   2   0.50000     0.0600000    0.0600000   6.128906e-05  1.496315e-08
    617    620   2   0.50000    -0.1200000   -0.1200000   1.015252e-03  1.866303e-06
    617    636   2   0.50000    -0.1200000    0.0600000   2.494471e-04  1.671101e-07
    617    637   2   0.50000    -0.1200000    0.0600000   2.494471e-04  1.671101e-07
    634    620   2   0.50000     0.0600000   -0.1200000   2.494471e-04  1.671101e-07
    634    636   2   0.50000     0.0600000    0.0600000   6.128906e-05  1.496315e-08
    634    637   2   0.50000     0.0600000    0.0600000   6.128906e-05  1.496315e-08
    635    620   2   0.50000     0.0600000   -0.1200000   2.494471e-04  1.671101e-07
    635    636   2   0.50000     0.0600000    0.0600000   6.128906e-05  1.496315e-08
    635    637   2   0.50000     0.0600000    0.0600000   6.128906e-05  1.496315e-08
    618    621   2   0.50000    -0.1200000   -0.1200000   1.015252e-03  1.866303e-06
    618    638   2   0.50000    -0.1200000    0.0600000   2.494471e-04  1.671101e-07
    618    639   2   0.50000    -0.1200000    0.0600000   2.494471e-04  1.671101e-07
    636    621   2   0.50000     0.0600000   -0.1200000   2.494471e-04  1.671101e-07
    636    638   2   0.50000     0.0600000    0.0600000   6.128906e-05  1.496315e-08
    636    639   2   0.50000     0.0600000    0.0600000   6.128906e-05  1.496315e-08
    637    621   2   0.50000     0.0600000   -0.1200000   2.494471e-04  1.671101e-07
    637    638   2   0.50000     0.0600000    0.0600000   6.128906e-05  1.496315e-08
    637    639   2   0.50000     0.0600000    0.0600000   6.128906e-05  1.496315e-08
    619    622   2   0.50000    -0.1200000   -0.1200000   1.015252e-03  1.866303e-06
    619    640   2   0.50000    -0.1200000    0.0600000   2.494471e-04  1.671101e-07
    619    641   2   0.50000    -0.1200000    0.0600000   2.494471e-04  1.671101e-07
    638    622   2   0.50000     0.0600000   -0.1200000   2.494471e-04  1.671101e-07
    638    640   2   0.50000     0.0600000    0.0600000   6.128906e-05  1.496315e-08
    638    641   2   0.50000     0.0600000    0.0600000   6.128906e-05  1.496315e-08
    639    622   2   0.50000     0.0600000   -0.1200000   2.494471e-04  1.671101e-07
    639    640   2   0.50000     0.0600000    0.0600000   6.128906e-05  1.496315e-08
    639    641   2   0.50000     0.0600000    0.0600000   6.128906e-05  1.496315e-08
    620    623   2   0.50000    -0.1200000   -0.1200000   1.015252e-03  1.866303e-06
    620    642   2   0.50000    -0.1200000    0.0600000   2.494471e-04  1.671101e-07
    620    643   2   0.50000    -0.1200000    0.0600000   2.494471e-04  1.671101e-07
    640    623   2   0.50000     0.0600000   -0.1200000   2.494471e-04  1.671101e-07
    640    642   2   0.50000     0.0600000    0.0600000   6.128906e-05  1.496315e-08
    640    643   2   0.50000     0.0600000    0.0600000   6.128906e-05  1.496315e-08
    641    623   2   0.50000     0.0600000   -0.1200000   2.494471e-04  1.671101e-07
    641    642   2   0.50000     0.0600000    0.0600000   6.128906e-05  1.496315e-08
    641    643   2   0.50000     0.0600000    0.0600000   6.128906e-05  1.496315e-08
    621    624   2   0.50000    -0.1200000   -0.1200000   1.015252e-03  1.866303e-06
    621    644   2   0.50000    -0.1200000    0.0600000   2.494471e-04  1.671101e-07
    621    645   2   0.50000    -0.1200000    0.0600000   2.494471e-04  1.671101e-07
    642    624   2   0.50000     0.0600000   -0.1200000   2.494471e-04  1.671101e-07
    642    644   2   0.50000     0.0600000    0.0600000   6.128906e-05  1.496315e-08
    642    645   2   0.50000     0.0600000    0.0600000   6.128906e-05  1.496315e-08
    643    624   2   0.50000     0.0600000   -0.1200000   2.494471e-04  1.671101e-07
    643    644   2   0.50000     0.0600000    0.0600000   6.128906e-05  1.496315e-08
    643    645   2   0.50000     0.0600000    0.0600000   6.128906e-05  1.496315e-08
    622    625   2   0.50000    -0.1200000    0.5000000   1.575021e-03  3.561100e-06
    622    646   2   0.50000    -0.1200000    0.0600000   2.494471e-04  1.671101e-07
    622    647   2   0.50000    -0.1200000    0.0600000   2.494471e-04  1.671101e-07
    644    625   2   0.50000     0.0600000    0.5000000   3.869820e-04  3.188634e-07
    644    646   2   0.50000     0.0600000    0.0600000   6.128906e-05  1.496315e-08
    644    647   2   0.50000     0.0600000    0.0600000   6.128906e-05  1.496315e-08
    645    625   2   0.50000     0.0600000    0.5000000   3.869820e-04  3.188634e-07
    645    646   2   0.50000     0.0600000    0.0600000   6.128906e-05  1.496315e-08
    645    647   2   0.50000     0.0600000    0.0600000   6.128906e-05  1.496315e-08
    623    626   2   0.50000    -0.1200000   -0.5000000   1.095425e-03  1.218041e-06
    623    648   2   0.50000    -0.1200000   -0.5000000   1.304585e-03  1.920112e-06
    646    626   2   0.50000     0.0600000   -0.5000000   2.691455e-04  1.090642e-07
    646    648   2   0.50000     0.0600000   -0.5000000   3.205360e-04  1.719281e-07
    647    626   2   0.50000     0.0600000   -0.5000000   2.691455e-04  1.090642e-07
    647    648   2   0.50000     0.0600000   -0.5000000   3.205360e-04  1.719281e-07
    624    649   2   0.50000    -0.1200000    0.0800000   1.015252e-03  1.866303e-06
    624    661   2   0.50000    -0.1200000    0.3000000   1.995577e-06  1.069504e-11
    626    649   2   0.50000    -0.5000000    0.0800000   1.095425e-03  1.218041e-06
    626    661   2   0.50000    -0.5000000    0.3000000   2.153164e-06  6.980110e-12
    625    650   2   0.50000     0.5000000   -0.1200000   1.575021e-03  3.561100e-06
    625    662   2   0.50000     0.5000000    0.0600000   3.869820e-04  3.188634e-07
    625    663   2   0.50000     0.5000000    0.0600000   3.869820e-04  3.188634e-07
    661    650   2   0.50000     0.3000000   -0.1200000   1.995577e-06  1.069504e-11
    661    662   2   0.50000     0.3000000    0.0600000   4.903125e-07  9.576416e-13
    661    663   2   0.50000     0.3000000    0.0600000   4.903125e-07  9.576416e-13
    648    651   2   0.50000    -0.5000000   -0.1200000   1.304585e-03  1.920112e-06
    648    664   2   0.50000    -0.5000000    0.0600000   3.205360e-04  1.719281e-07
    648    665   2   0.50000    -0.5000000    0.0600000   3.205360e-04  1.719281e-07
    662    651   2   0.50000     0.0600000   -0.1200000   2.494471e-04  1.671101e-07
    662    664   2   0.50000     0.0600000    0.0600000   6.128906e-05  1.496315e-08
    662    665   2   0.50000     0.0600000    0.0600000   6.128906e-05  1.496315e-08
    663    651   2   0.50000     0.0600000   -0.1200000   2.494471e-04  1.671101e-07
    663    664   2   0.50000     0.0600000    0.0600000   6.128906e-05  1.496315e-08
    663    665   2   0.50000     0.0600000    0.0600000   6.128906e-05  1.496315e-08
    649    652   2   0.50000     0.0800000   -0.1200000   1.015252e-03  1.866303e-06
    649    666   2   0.50000     0.0800000    0.0600000   2.494471e-04  1.671101e-07
    649    667   2   0.50000     0.0800000    0.0600000   2.494471e-04  1.671101e-07
    664    652   2   0.50000     0.0600000   -0.1200000   2.494471e-04  1.671101e-07
    664    666   2   0.50000     0.0600000    0.0600000   6.128906e-05  1.496315e-08
    664    667   2   0.50000     0.0600000    0.0600000   6.128906e-05  1.496315e-08
    665    652   2   0.50000     0.0600000   -0.1200000   2.494471e-04  1.671101e-07
    665    666   2   0.50000     0.0600000    0.0600000   6.128906e-05  1.496315e-08
    665    667   2   0.50000     0.0600000    0.0600000   6.128906e-05  1.496315e-08
    650    653   2   0.50000    -0.1200000   -0.1200000   1.015252e-03  1.866303e-06
    650    668   2   0.50000    -0.1200000    0.0600000   2.494471e-04  1.671101e-07
    650    669   2   0.50000    -0.1200000    0.0600000   2.494471e-04  1.671101e-07
    666    653   2   0.50000     0.0600000   -0.1200000   2.494471e-04  1.671101e-07
    666    668   2   0.50000     0.0600000    0.0600000   6.128906e-05  1.496315e-08
    666    669   2   0.50000     0.0600000    0.0600000   6.128906e-05  1.496315e-08
    667    653   2   0.50000     0.0600000   -0.1200000   2.494471e-04  1.671101e-07
    667    668   2   0.50000     0.0600000    0.0600000   6.128906e-05  1.496315e-08
    667    669   2   0.50000     0.0600000    0.0600000   6.128906e-05  1.496315e-08
    651    654   2   0.50000    -0.1200000   -0.1200000   1.015252e-03  1.866303e-06
    651    670   2   0.50000    -0.1200000    0.0600000   2.494471e-04  1.671101e-07
    651    671   2   0.50000    -0.1200000    0.0600000   2.494471e-04  1.671101e-07
    668    654   2   0.50000     0.0600000   -0.1200000   2.494471e-04  1.671101e-07
    668    670   2   0.50000     0.0600000    0.0600000   6.128906e-05  1.496315e-08
    668    671   2   0.50000     0.0600000    0.0600000   6.128906e-05  1.496315e-08
    669    654   2   0.50000     0.0600000   -0.1200000   2.494471e-04  1.671101e-07
    669    670   2   0.50000     0.0600000    0.0600000   6.128906e-05  1.496315e-08
    669    671   2   0.50000     0.0600000    0.0600000   6.128906e-05  1.496315e-08
    652    655   2   0.50000    -0.1200000   -0.1200000   1.015252e-03  1.866303e-06
    652    672   2   0.50000    -0.1200000    0.0600000   2.494471e-04  1.671101e-07
    652    673   2   0.50000    -0.1200000    0.0600000   2.494471e-04  1.671101e-07
    670    655   2   0.50000     0.0600000   -0.1200000   2.494471e-04  1.671101e-07
    670    672   2   0.50000     0.0600000    0.0600000   6.128906e-05  1.496315e-08
    670    673   2   0.50000     0.0600000    0.0600000   6.128906e-05  1.496315e-08
    671    655   2   0.50000     0.0600000   -0.1200000   2.494471e-04  1.671101e-07
    671    672   2   0.50000     0.0600000    0.0600000   6.128906e-05  1.496315e-08
    671    673   2   0.50000     0.0600000    0.0600000   6.128906e-05  1.496315e-08
    653    656   2   0.50000    -0.1200000   -0.1200000   1.015252e-03  1.866303e-06
    653    674   2   0.50000    -0.1200000    0.0600000   2.494471e-04  1.671101e-07
    653    675   2   0.50000    -0.1200000    0.0600000   2.494471e-04  1.671101e-07
    672    656   2   0.50000     0.0600000   -0.1200000   2.494471e-04  1.671101e-07
    672    674   2   0.50000     0.0600000    0.0600000   6.128906e-05  1.496315e-08
    672    675   2   0.50000     0.0600000    0.0600000   6.128906e-05  1.496315e-08
    673    656   2   0.50000     0.0600000   -0.1200000   2.494471e-04  1.671101e-07
    673    674   2   0.50000     0.0600000    0.0600000   6.128906e-05  1.496315e-08
    673    675   2   0.50000     0.0600000    0.0600000   6.128906e-05  1.496315e-08
    654    657   2   0.50000    -0.1200000   -0.1200000   1.015252e-03  1.866303e-06
    654    676   2   0.50000    -0.1200000    0.0600000   2.494471e-04  1.671101e-07
    654    677   2   0.50000    -0.1200000    0.0600000   2.494471e-04  1.671101e-07
    674    657   2   0.50000     0.0600000   -0.1200000   2.494471e-04  1.671101e-07
    674    676   2   0.50000     0.0600000    0.0600000   6.128906e-05  1.496315e-08
    674    677   2   0.50000     0.0600000    0.0600000   6.128906e-05  1.496315e-08
    675    657   2   0.50000     0.0600000   -0.1200000   2.494471e-04  1.671101e-07
    675    676   2   0.50000     0.0600000    0.0600000   6.128906e-05  1.496315e-08
    675    677   2   0.50000     0.0600000    0.0600000   6.128906e-05  1.496315e-08
    655    658   2   0.50000    -0.1200000   -0.1200000   1.015252e-03  1.866303e-06
    655    678   2   0.50000    -0.1200000    0.0600000   2.494471e-04  1.671101e-07
    655    679   2   0.50000    -0.1200000    0.0600000   2.494471e-04  1.671101e-07
    676    658   2   0.50000     0.0600000   -0.1200000   2.494471e-04  1.671101e-07
    676    678   2   0.50000     0.0600000    0.0600000   6.128906e-05  1.496315e-08
    676    679   2   0.50000     0.0600000    0.0600000   6.128906e-05  1.496315e-08
    677    658   2   0.50000     0.0600000   -0.1200000   2.494471e-04  1.671101e-07
    677    678   2   0.50000     0.0600000    0.0600000   6.128906e-05  1.496315e-08
    677    679   2   0.50000     0.0600000    0.0600000   6.128906e-05  1.496315e-08
    656    659   2   0.50000    -0.1200000    0.4500000   1.575021e-03  3.561100e-06
    656    680   2   0.50000    -0.1200000    0.0600000   1.599888e-04  9.721644e-08
    656    681   2   0.50000    -0.1200000    0.0600000   1.599888e-04  9.721644e-08
    678    659   2   0.50000     0.0600000    0.4500000   3.869820e-04  3.188634e-07
    678    680   2   0.50000     0.0600000    0.0600000   3.930919e-05  8.704828e-09
    678    681   2   0.50000     0.0600000    0.0600000   3.930919e-05  8.704828e-09
    679    659   2   0.50000     0.0600000    0.4500000   3.869820e-04  3.188634e-07
    679    680   2   0.50000     0.0600000    0.0600000   3.930919e-05  8.704828e-09
    679    681   2   0.50000     0.0600000    0.0600000   3.930919e-05  8.704828e-09
    657    660   2   0.50000    -0.1200000   -0.4500000   1.095425e-03  1.218041e-06
    657    682   2   0.50000    -0.1200000    0.0000000   1.599888e-04  9.721644e-08
    680    660   2   0.50000     0.0600000   -0.4500000   1.726228e-04  6.344822e-08
    680    682   2   0.50000     0.0600000    0.0000000   2.521187e-05  5.064042e-09
    681    660   2   0.50000     0.0600000   -0.4500000   1.726228e-04  6.344822e-08
    681    682   2   0.50000     0.0600000    0.0000000   2.521187e-05  5.064042e-09

[ angles ]
; ai  aj  ak
      2      1     14   1    109.5000    292.8800
      2      1     35   1    109.5000    292.8800
     14      1     35   1    106.4000    364.8448
      1      2      3   1    109.4700    470.2816
      1      2     15   1    109.5000    292.8800
      1      2     16   1    109.5000    292.8800
      3      2     15   1    110.7000    313.8000
      3      2     16   1    110.7000    313.8000
     15      2     16   1    107.8000    276.1440
      2      3      4   1    112.7000    488.2728
      2      3     17   1    110.7000    313.8000
      2      3     18   1    110.7000    313.8000
      4      3     17   1    110.7000    313.8000
      4      3     18   1    110.7000    313.8000
     17      3     18   1    107.8000    276.1440
      3      4      5   1    112.7000    488.2728
      3      4     19   1    110.7000    313.8000
      3      4     20   1    110.7000    313.8000
      5      4     19   1    110.7000    313.8000
      5      4     20   1    110.7000    313.8000
     19      4     20   1    107.8000    276.1440
      4      5      6   1    112.7000    488.2728
      4      5     21   1    110.7000    313.8000
      4      5     22   1    110.7000    313.8000
      6      5     21   1    110.7000    313.8000
      6      5     22   1    110.7000    313.8000
     21      5     22   1    107.8000    276.1440
      5      6      7   1    112.7000    488.2728
      5      6     23   1    110.7000    313.8000
      5      6     24   1    110.7000    313.8000
      7      6     23   1    110.7000    313.8000
      7      6     24   1    110.7000    313.8000
     23      6     24   1    107.8000    276.1440
      6      7      8   1    112.7000    488.2728
      6      7     25   1    110.7000    313.8000
      6      7     26   1    110.7000    313.8000
      8      7     25   1    110.7000    313.8000
      8      7     26   1    110.7000    313.8000
     25      7     26   1    107.8000    276.1440
      7      8      9   1    112.7000    488.2728
      7      8     27   1    110.7000    313.8000
      7      8     28   1    110.7000    313.8000
      9      8     27   1    110.7000    313.8000
      9      8     28   1    110.7000    313.8000
     27      8     28   1    107.8000    276.1440
      8      9     10   1    112.7000    488.2728
      8      9     29   1    110.7000    313.8000
      8      9     30   1    110.7000    313.8000
     10      9     29   1    110.7000    313.8000
     10      9     30   1    110.7000    313.8000
     29      9     30   1    107.8000    276.1440
      9     10     11   1    112.7000    488.2728
      9     10     31   1    110.7000    313.8000
      9     10     32   1    110.7000    313.8000
     11     10     31   1    110.7000    313.8000
     11     10     32   1    110.7000    313.8000
     31     10     32   1    107.8000    276.1440
     10     11     12   1    111.1000    527.1840
     10     11     33   1    110.7000    313.8000
     10     11     34   1    110.7000    313.8000
     12     11     33   1    109.5000    292.8800
     12     11     34   1    109.5000    292.8800
     33     11     34   1    107.8000    276.1440
     11     12     13   1    120.4000    669.4400
     11     12     36   1    116.6000    585.7600
     13     12     36   1    122.9000    669.4400
     12     36     37   1    121.9000    418.4000
     12     36     49   1    119.8000    292.8800
     37     36     49   1    118.4000    317.9840
     36     37     38   1    110.7230    585.7600
     36     37     50   1    109.5000    292.8800
     36     37     51   1    109.5000    292.8800
     38     37     50   1    110.7000    313.8000
     38     37     51   1    110.7000    313.8000
     50     37     51   1    107.8000    276.1440
     37     38     39   1    112.7000    488.2728
     37     38     52   1    110.7000    313.8000
     37     38     53   1    110.7000    313.8000
     39     38     52   1    110.7000    313.8000
     39     38     53   1    110.7000    313.8000
     52     38     53   1    107.8000    276.1440
     38     39     40   1    112.7000    488.2728
     38     39     54   1    110.7000    313.8000
     38     39     55   1    110.7000    313.8000
     40     39     54   1    110.7000    313.8000
     40     39     55   1    110.7000    313.8000
     54     39     55   1    107.8000    276.1440
     39     40     41   1    112.7000    488.2728
     39     40     56   1    110.7000    313.8000
     39     40     57   1    110.7000    313.8000
     41     40     56   1    110.7000    313.8000
     41     40     57   1    110.7000    313.8000
     56     40     57   1    107.8000    276.1440
     40     41     42   1    112.7000    488.2728
     40     41     58   1    110.7000    313.8000
     40     41     59   1    110.7000    313.8000
     42     41     58   1    110.7000    313.8000
     42     41     59   1    110.7000    313.8000
     58     41     59   1    107.8000    276.1440
     41     42     43   1    112.7000    488.2728
     41     42     60   1    110.7000    313.8000
     41     42     61   1    110.7000    313.8000
     43     42     60   1    110.7000    313.8000
     43     42     61   1    110.7000    313.8000
     60     42     61   1    107.8000    276.1440
     42     43     44   1    112.7000    488.2728
     42     43     62   1    110.7000    313.8000
     42     43     63   1    110.7000    313.8000
     44     43     62   1    110.7000    313.8000
     44     43     63   1    110.7000    313.8000
     62     43     63   1    107.8000    276.1440
     43     44     45   1    112.7000    488.2728
     43     44     64   1    110.7000    313.8000
     43     44     65   1    110.7000    313.8000
     45     44     64   1    110.7000    313.8000
     45     44     65   1    110.7000    313.8000
     64     44     65   1    107.8000    276.1440
     44     45     46   1    112.7000    488.2728
     44     45     66   1    110.7000    313.8000
     44     45     67   1    110.7000    313.8000
     46     45     66   1    110.7000    313.8000
     46     45     67   1    110.7000    313.8000
     66     45     67   1    107.8000    276.1440
     45     46     47   1    111.1000    527.1840
     45     46     68   1    110.7000    313.8000
     45     46     69   1    110.7000    313.8000
     47     46     68   1    109.5000    292.8800
     47     46     69   1    109.5000    292.8800
     68     46     69   1    107.8000    276.1440
     46     47     48   1    120.4000    669.4400
     46     47     70   1    116.6000    585.7600
     48     47     70   1    122.9000    669.4400
     47     70     71   1    121.9000    418.4000
     47     70     83   1    119.8000    292.8800
     71     70     83   1    118.4000    317.9840
     70     71     72   1    110.7230    585.7600
     70     71     84   1    109.5000    292.8800
     70     71     85   1    109.5000    292.8800
     72     71     84   1    110.7000    313.8000
     72     71     85   1    110.7000    313.8000
     84     71     85   1    107.8000    276.1440
     71     72     73   1    112.7000    488.2728
     71     72     86   1    110.7000    313.8000
     71     72     87   1    110.7000    313.8000
     73     72     86   1    110.7000    313.8000
     73     72     87   1    110.7000    313.8000
     86     72     87   1    107.8000    276.1440
     72     73     74   1    112.7000    488.2728
     72     73     88   1    110.7000    313.8000
     72     73     89   1    110.7000    313.8000
     74     73     88   1    110.7000    313.8000
     74     73     89   1    110.7000    313.8000
     88     73     89   1    107.8000    276.1440
     73     74     75   1    112.7000    488.2728
     73     74     90   1    110.7000    313.8000
     73     74     91   1    110.7000    313.8000
     75     74     90   1    110.7000    313.8000
     75     74     91   1    110.7000    313.8000
     90     74     91   1    107.8000    276.1440
     74     75     76   1    112.7000    488.2728
     74     75     92   1    110.7000    313.8000
     74     75     93   1    110.7000    313.8000
     76     75     92   1    110.7000    313.8000
     76     75     93   1    110.7000    313.8000
     92     75     93   1    107.8000    276.1440
     75     76     77   1    112.7000    488.2728
     75     76     94   1    110.7000    313.8000
     75     76     95   1    110.7000    313.8000
     77     76     94   1    110.7000    313.8000
     77     76     95   1    110.7000    313.8000
     94     76     95   1    107.8000    276.1440
     76     77     78   1    112.7000    488.2728
     76     77     96   1    110.7000    313.8000
     76     77     97   1    110.7000    313.8000
     78     77     96   1    110.7000    313.8000
     78     77     97   1    110.7000    313.8000
     96     77     97   1    107.8000    276.1440
     77     78     79   1    112.7000    488.2728
     77     78     98   1    110.7000    313.8000
     77     78     99   1    110.7000    313.8000
     79     78     98   1    110.7000    313.8000
     79     78     99   1    110.7000    313.8000
     98     78     99   1    107.8000    276.1440
     78     79     80   1    112.7000    488.2728
     78     79    100   1    110.7000    313.8000
     78     79    101   1    110.7000    313.8000
     80     79    100   1    110.7000    313.8000
     80     79    101   1    110.7000    313.8000
    100     79    101   1    107.8000    276.1440
     79     80     81   1    111.1000    527.1840
     79     80    102   1    110.7000    313.8000
     79     80    103   1    110.7000    313.8000
     81     80    102   1    109.5000    292.8800
     81     80    103   1    109.5000    292.8800
    102     80    103   1    107.8000    276.1440
     80     81     82   1    120.4000    669.4400
     80     81    104   1    116.6000    585.7600
     82     81    104   1    122.9000    669.4400
     81    104    105   1    121.9000    418.4000
     81    104    117   1    119.8000    292.8800
    105    104    117   1    118.4000    317.9840
    104    105    106   1    110.7230    585.7600
    104    105    118   1    109.5000    292.8800
    104    105    119   1    109.5000    292.8800
    106    105    118   1    110.7000    313.8000
    106    105    119   1    110.7000    313.8000
    118    105    119   1    107.8000    276.1440
    105    106    107   1    112.7000    488.2728
    105    106    120   1    110.7000    313.8000
    105    106    121   1    110.7000    313.8000
    107    106    120   1    110.7000    313.8000
    107    106    121   1    110.7000    313.8000
    120    106    121   1    107.8000    276.1440
    106    107    108   1    112.7000    488.2728
    106    107    122   1    110.7000    313.8000
    106    107    123   1    110.7000    313.8000
    108    107    122   1    110.7000    313.8000
    108    107    123   1    110.7000    313.8000
    122    107    123   1    107.8000    276.1440
    107    108    109   1    112.7000    488.2728
    107    108    124   1    110.7000    313.8000
    107    108    125   1    110.7000    313.8000
    109    108    124   1    110.7000    313.8000
    109    108    125   1    110.7000    313.8000
    124    108    125   1    107.8000    276.1440
    108    109    110   1    112.7000    488.2728
    108    109    126   1    110.7000    313.8000
    108    109    127   1    110.7000    313.8000
    110    109    126   1    110.7000    313.8000
    110    109    127   1    110.7000    313.8000
    126    109    127   1    107.8000    276.1440
    109    110    111   1    112.7000    488.2728
    109    110    128   1    110.7000    313.8000
    109    110    129   1    110.7000    313.8000
    111    110    128   1    110.7000    313.8000
    111    110    129   1    110.7000    313.8000
    128    110    129   1    107.8000    276.1440
    110    111    112   1    112.7000    488.2728
    110    111    130   1    110.7000    313.8000
    110    111    131   1    110.7000    313.8000
    112    111    130   1    110.7000    313.8000
    112    111    131   1    110.7000    313.8000
    130    111    131   1    107.8000    276.1440
    111    112    113   1    112.7000    488.2728
    111    112    132   1    110.7000    313.8000
    111    112    133   1    110.7000    313.8000
    113    112    132   1    110.7000    313.8000
    113    112    133   1    110.7000    313.8000
    132    112    133   1    107.8000    276.1440
    112    113    114   1    112.7000    488.2728
    112    113    134   1    110.7000    313.8000
    112    113    135   1    110.7000    313.8000
    114    113    134   1    110.7000    313.8000
    114    113    135   1    110.7000    313.8000
    134    113    135   1    107.8000    276.1440
    113    114    115   1    111.1000    527.1840
    113    114    136   1    110.7000    313.8000
    113    114    137   1    110.7000    313.8000
    115    114    136   1    109.5000    292.8800
    115    114    137   1    109.5000    292.8800
    136    114    137   1    107.8000    276.1440
    114    115    116   1    120.4000    669.4400
    114    115    138   1    116.6000    585.7600
    116    115    138   1    122.9000    669.4400
    115    138    139   1    121.9000    418.4000
    115    138    151   1    119.8000    292.8800
    139    138    151   1    118.4000    317.9840
    138    139    140   1    110.7230    585.7600
    138    139    152   1    109.5000    292.8800
    138    139    153   1    109.5000    292.8800
    140    139    152   1    110.7000    313.8000
    140    139    153   1    110.7000    313.8000
    152    139    153   1    107.8000    276.1440
    139    140    141   1    112.7000    488.2728
    139    140    154   1    110.7000    313.8000
    139    140    155   1    110.7000    313.8000
    141    140    154   1    110.7000    313.8000
    141    140    155   1    110.7000    313.8000
    154    140    155   1    107.8000    276.1440
    140    141    142   1    112.7000    488.2728
    140    141    156   1    110.7000    313.8000
    140    141    157   1    110.7000    313.8000
    142    141    156   1    110.7000    313.8000
    142    141    157   1    110.7000    313.8000
    156    141    157   1    107.8000    276.1440
    141    142    143   1    112.7000    488.2728
    141    142    158   1    110.7000    313.8000
    141    142    159   1    110.7000    313.8000
    143    142    158   1    110.7000    313.8000
    143    142    159   1    110.7000    313.8000
    158    142    159   1    107.8000    276.1440
    142    143    144   1    112.7000    488.2728
    142    143    160   1    110.7000    313.8000
    142    143    161   1    110.7000    313.8000
    144    143    160   1    110.7000    313.8000
    144    143    161   1    110.7000    313.8000
    160    143    161   1    107.8000    276.1440
    143    144    145   1    112.7000    488.2728
    143    144    162   1    110.7000    313.8000
    143    144    163   1    110.7000    313.8000
    145    144    162   1    110.7000    313.8000
    145    144    163   1    110.7000    313.8000
    162    144    163   1    107.8000    276.1440
    144    145    146   1    112.7000    488.2728
    144    145    164   1    110.7000    313.8000
    144    145    165   1    110.7000    313.8000
    146    145    164   1    110.7000    313.8000
    146    145    165   1    110.7000    313.8000
    164    145    165   1    107.8000    276.1440
    145    146    147   1    112.7000    488.2728
    145    146    166   1    110.7000    313.8000
    145    146    167   1    110.7000    313.8000
    147    146    166   1    110.7000    313.8000
    147    146    167   1    110.7000    313.8000
    166    146    167   1    107.8000    276.1440
    146    147    148   1    112.7000    488.2728
    146    147    168   1    110.7000    313.8000
    146    147    169   1    110.7000    313.8000
    148    147    168   1    110.7000    313.8000
    148    147    169   1    110.7000    313.8000
    168    147    169   1    107.8000    276.1440
    147    148    149   1    111.1000    527.1840
    147    148    170   1    110.7000    313.8000
    147    148    171   1    110.7000    313.8000
    149    148    170   1    109.5000    292.8800
    149    148    171   1    109.5000    292.8800
    170    148    171   1    107.8000    276.1440
    148    149    150   1    120.4000    669.4400
    148    149    172   1    116.6000    585.7600
    150    149    172   1    122.9000    669.4400
    149    172    173   1    121.9000    418.4000
    149    172    185   1    119.8000    292.8800
    173    172    185   1    118.4000    317.9840
    172    173    174   1    110.7230    585.7600
    172    173    186   1    109.5000    292.8800
    172    173    187   1    109.5000    292.8800
    174    173    186   1    110.7000    313.8000
    174    173    187   1    110.7000    313.8000
    186    173    187   1    107.8000    276.1440
    173    174    175   1    112.7000    488.2728
    173    174    188   1    110.7000    313.8000
    173    174    189   1    110.7000    313.8000
    175    174    188   1    110.7000    313.8000
    175    174    189   1    110.7000    313.8000
    188    174    189   1    107.8000    276.1440
    174    175    176   1    112.7000    488.2728
    174    175    190   1    110.7000    313.8000
    174    175    191   1    110.7000    313.8000
    176    175    190   1    110.7000    313.8000
    176    175    191   1    110.7000    313.8000
    190    175    191   1    107.8000    276.1440
    175    176    177   1    112.7000    488.2728
    175    176    192   1    110.7000    313.8000
    175    176    193   1    110.7000    313.8000
    177    176    192   1    110.7000    313.8000
    177    176    193   1    110.7000    313.8000
    192    176    193   1    107.8000    276.1440
    176    177    178   1    112.7000    488.2728
    176    177    194   1    110.7000    313.8000
    176    177    195   1    110.7000    313.8000
    178    177    194   1    110.7000    313.8000
    178    177    195   1    110.7000    313.8000
    194    177    195   1    107.8000    276.1440
    177    178    179   1    112.7000    488.2728
    177    178    196   1    110.7000    313.8000
    177    178    197   1    110.7000    313.8000
    179    178    196   1    110.7000    313.8000
    179    178    197   1    110.7000    313.8000
    196    178    197   1    107.8000    276.1440
    178    179    180   1    112.7000    488.2728
    178    179    198   1    110.7000    313.8000
    178    179    199   1    110.7000    313.8000
    180    179    198   1    110.7000    313.8000
    180    179    199   1    110.7000    313.8000
    198    179    199   1    107.8000    276.1440
    179    180    181   1    112.7000    488.2728
    179    180    200   1    110.7000    313.8000
    179    180    201   1    110.7000    313.8000
    181    180    200   1    110.7000    313.8000
    181    180    201   1    110.7000    313.8000
    200    180    201   1    107.8000    276.1440
    180    181    182   1    112.7000    488.2728
    180    181    202   1    110.7000    313.8000
    180    181    203   1    110.7000    313.8000
    182    181    202   1    110.7000    313.8000
    182    181    203   1    110.7000    313.8000
    202    181    203   1    107.8000    276.1440
    181    182    183   1    111.1000    527.1840
    181    182    204   1    110.7000    313.8000
    181    182    205   1    110.7000    313.8000
    183    182    204   1    109.5000    292.8800
    183    182    205   1    109.5000    292.8800
    204    182    205   1    107.8000    276.1440
    182    183    184   1    120.4000    669.4400
    182    183    206   1    116.6000    585.7600
    184    183    206   1    122.9000    669.4400
    183    206    207   1    121.9000    418.4000
    183    206    219   1    119.8000    292.8800
    207    206    219   1    118.4000    317.9840
    206    207    208   1    110.7230    585.7600
    206    207    220   1    109.5000    292.8800
    206    207    221   1    109.5000    292.8800
    208    207    220   1    110.7000    313.8000
    208    207    221   1    110.7000    313.8000
    220    207    221   1    107.8000    276.1440
    207    208    209   1    112.7000    488.2728
    207    208    222   1    110.7000    313.8000
    207    208    223   1    110.7000    313.8000
    209    208    222   1    110.7000    313.8000
    209    208    223   1    110.7000    313.8000
    222    208    223   1    107.8000    276.1440
    208    209    210   1    112.7000    488.2728
    208    209    224   1    110.7000    313.8000
    208    209    225   1    110.7000    313.8000
    210    209    224   1    110.7000    313.8000
    210    209    225   1    110.7000    313.8000
    224    209    225   1    107.8000    276.1440
    209    210    211   1    112.7000    488.2728
    209    210    226   1    110.7000    313.8000
    209    210    227   1    110.7000    313.8000
    211    210    226   1    110.7000    313.8000
    211    210    227   1    110.7000    313.8000
    226    210    227   1    107.8000    276.1440
    210    211    212   1    112.7000    488.2728
    210    211    228   1    110.7000    313.8000
    210    211    229   1    110.7000    313.8000
    212    211    228   1    110.7000    313.8000
    212    211    229   1    110.7000    313.8000
    228    211    229   1    107.8000    276.1440
    211    212    213   1    112.7000    488.2728
    211    212    230   1    110.7000    313.8000
    211    212    231   1    110.7000    313.8000
    213    212    230   1    110.7000    313.8000
    213    212    231   1    110.7000    313.8000
    230    212    231   1    107.8000    276.1440
    212    213    214   1    112.7000    488.2728
    212    213    232   1    110.7000    313.8000
    212    213    233   1    110.7000    313.8000
    214    213    232   1    110.7000    313.8000
    214    213    233   1    110.7000    313.8000
    232    213    233   1    107.8000    276.1440
    213    214    215   1    112.7000    488.2728
    213    214    234   1    110.7000    313.8000
    213    214    235   1    110.7000    313.8000
    215    214    234   1    110.7000    313.8000
    215    214    235   1    110.7000    313.8000
    234    214    235   1    107.8000    276.1440
    214    215    216   1    112.7000    488.2728
    214    215    236   1    110.7000    313.8000
    214    215    237   1    110.7000    313.8000
    216    215    236   1    110.7000    313.8000
    216    215    237   1    110.7000    313.8000
    236    215    237   1    107.8000    276.1440
    215    216    217   1    111.1000    527.1840
    215    216    238   1    110.7000    313.8000
    215    216    239   1    110.7000    313.8000
    217    216    238   1    109.5000    292.8800
    217    216    239   1    109.5000    292.8800
    238    216    239   1    107.8000    276.1440
    216    217    218   1    120.4000    669.4400
    216    217    240   1    116.6000    585.7600
    218    217    240   1    122.9000    669.4400
    217    240    241   1    121.9000    418.4000
    217    240    253   1    119.8000    292.8800
    241    240    253   1    118.4000    317.9840
    240    241    242   1    110.7230    585.7600
    240    241    254   1    109.5000    292.8800
    240    241    255   1    109.5000    292.8800
    242    241    254   1    110.7000    313.8000
    242    241    255   1    110.7000    313.8000
    254    241    255   1    107.8000    276.1440
    241    242    243   1    112.7000    488.2728
    241    242    256   1    110.7000    313.8000
    241    242    257   1    110.7000    313.8000
    243    242    256   1    110.7000    313.8000
    243    242    257   1    110.7000    313.8000
    256    242    257   1    107.8000    276.1440
    242    243    244   1    112.7000    488.2728
    242    243    258   1    110.7000    313.8000
    242    243    259   1    110.7000    313.8000
    244    243    258   1    110.7000    313.8000
    244    243    259   1    110.7000    313.8000
    258    243    259   1    107.8000    276.1440
    243    244    245   1    112.7000    488.2728
    243    244    260   1    110.7000    313.8000
    243    244    261   1    110.7000    313.8000
    245    244    260   1    110.7000    313.8000
    245    244    261   1    110.7000    313.8000
    260    244    261   1    107.8000    276.1440
    244    245    246   1    112.7000    488.2728
    244    245    262   1    110.7000    313.8000
    244    245    263   1    110.7000    313.8000
    246    245    262   1    110.7000    313.8000
    246    245    263   1    110.7000    313.8000
    262    245    263   1    107.8000    276.1440
    245    246    247   1    112.7000    488.2728
    245    246    264   1    110.7000    313.8000
    245    246    265   1    110.7000    313.8000
    247    246    264   1    110.7000    313.8000
    247    246    265   1    110.7000    313.8000
    264    246    265   1    107.8000    276.1440
    246    247    248   1    112.7000    488.2728
    246    247    266   1    110.7000    313.8000
    246    247    267   1    110.7000    313.8000
    248    247    266   1    110.7000    313.8000
    248    247    267   1    110.7000    313.8000
    266    247    267   1    107.8000    276.1440
    247    248    249   1    112.7000    488.2728
    247    248    268   1    110.7000    313.8000
    247    248    269   1    110.7000    313.8000
    249    248    268   1    110.7000    313.8000
    249    248    269   1    110.7000    313.8000
    268    248    269   1    107.8000    276.1440
    248    249    250   1    112.7000    488.2728
    248    249    270   1    110.7000    313.8000
    248    249    271   1    110.7000    313.8000
    250    249    270   1    110.7000    313.8000
    250    249    271   1    110.7000    313.8000
    270    249    271   1    107.8000    276.1440
    249    250    251   1    111.1000    527.1840
    249    250    272   1    110.7000    313.8000
    249    250    273   1    110.7000    313.8000
    251    250    272   1    109.5000    292.8800
    251    250    273   1    109.5000    292.8800
    272    250    273   1    107.8000    276.1440
    250    251    252   1    120.4000    669.4400
    250    251    274   1    116.6000    585.7600
    252    251    274   1    122.9000    669.4400
    251    274    275   1    121.9000    418.4000
    251    274    287   1    119.8000    292.8800
    275    274    287   1    118.4000    317.9840
    274    275    276   1    110.7230    585.7600
    274    275    288   1    109.5000    292.8800
    274    275    289   1    109.5000    292.8800
    276    275    288   1    110.7000    313.8000
    276    275    289   1    110.7000    313.8000
    288    275    289   1    107.8000    276.1440
    275    276    277   1    112.7000    488.2728
    275    276    290   1    110.7000    313.8000
    275    276    291   1    110.7000    313.8000
    277    276    290   1    110.7000    313.8000
    277    276    291   1    110.7000    313.8000
    290    276    291   1    107.8000    276.1440
    276    277    278   1    112.7000    488.2728
    276    277    292   1    110.7000    313.8000
    276    277    293   1    110.7000    313.8000
    278    277    292   1    110.7000    313.8000
    278    277    293   1    110.7000    313.8000
    292    277    293   1    107.8000    276.1440
    277    278    279   1    112.7000    488.2728
    277    278    294   1    110.7000    313.8000
    277    278    295   1    110.7000    313.8000
    279    278    294   1    110.7000    313.8000
    279    278    295   1    110.7000    313.8000
    294    278    295   1    107.8000    276.1440
    278    279    280   1    112.7000    488.2728
    278    279    296   1    110.7000    313.8000
    278    279    297   1    110.7000    313.8000
    280    279    296   1    110.7000    313.8000
    280    279    297   1    110.7000    313.8000
    296    279    297   1    107.8000    276.1440
    279    280    281   1    112.7000    488.2728
    279    280    298   1    110.7000    313.8000
    279    280    299   1    110.7000    313.8000
    281    280    298   1    110.7000    313.8000
    281    280    299   1    110.7000    313.8000
    298    280    299   1    107.8000    276.1440
    280    281    282   1    112.7000    488.2728
    280    281    300   1    110.7000    313.8000
    280    281    301   1    110.7000    313.8000
    282    281    300   1    110.7000    313.8000
    282    281    301   1    110.7000    313.8000
    300    281    301   1    107.8000    276.1440
    281    282    283   1    112.7000    488.2728
    281    282    302   1    110.7000    313.8000
    281    282    303   1    110.7000    313.8000
    283    282    302   1    110.7000    313.8000
    283    282    303   1    110.7000    313.8000
    302    282    303   1    107.8000    276.1440
    282    283    284   1    112.7000    488.2728
    282    283    304   1    110.7000    313.8000
    282    283    305   1    110.7000    313.8000
    284    283    304   1    110.7000    313.8000
    284    283    305   1    110.7000    313.8000
    304    283    305   1    107.8000    276.1440
    283    284    285   1    111.1000    527.1840
    283    284    306   1    110.7000    313.8000
    283    284    307   1    110.7000    313.8000
    285    284    306   1    109.5000    292.8800
    285    284    307   1    109.5000    292.8800
    306    284    307   1    107.8000    276.1440
    284    285    286   1    120.4000    669.4400
    284    285    308   1    116.6000    585.7600
    286    285    308   1    122.9000    669.4400
    285    308    309   1    121.9000    418.4000
    285    308    321   1    119.8000    292.8800
    309    308    321   1    118.4000    317.9840
    308    309    310   1    110.7230    585.7600
    308    309    322   1    109.5000    292.8800
    308    309    323   1    109.5000    292.8800
    310    309    322   1    110.7000    313.8000
    310    309    323   1    110.7000    313.8000
    322    309    323   1    107.8000    276.1440
    309    310    311   1    112.7000    488.2728
    309    310    324   1    110.7000    313.8000
    309    310    325   1    110.7000    313.8000
    311    310    324   1    110.7000    313.8000
    311    310    325   1    110.7000    313.8000
    324    310    325   1    107.8000    276.1440
    310    311    312   1    112.7000    488.2728
    310    311    326   1    110.7000    313.8000
    310    311    327   1    110.7000    313.8000
    312    311    326   1    110.7000    313.8000
    312    311    327   1    110.7000    313.8000
    326    311    327   1    107.8000    276.1440
    311    312    313   1    112.7000    488.2728
    311    312    328   1    110.7000    313.8000
    311    312    329   1    110.7000    313.8000
    313    312    328   1    110.7000    313.8000
    313    312    329   1    110.7000    313.8000
    328    312    329   1    107.8000    276.1440
    312    313    314   1    112.7000    488.2728
    312    313    330   1    110.7000    313.8000
    312    313    331   1    110.7000    313.8000
    314    313    330   1    110.7000    313.8000
    314    313    331   1    110.7000    313.8000
    330    313    331   1    107.8000    276.1440
    313    314    315   1    112.7000    488.2728
    313    314    332   1    110.7000    313.8000
    313    314    333   1    110.7000    313.8000
    315    314    332   1    110.7000    313.8000
    315    314    333   1    110.7000    313.8000
    332    314    333   1    107.8000    276.1440
    314    315    316   1    112.7000    488.2728
    314    315    334   1    110.7000    313.8000
    314    315    335   1    110.7000    313.8000
    316    315    334   1    110.7000    313.8000
    316    315    335   1    110.7000    313.8000
    334    315    335   1    107.8000    276.1440
    315    316    317   1    112.7000    488.2728
    315    316    336   1    110.7000    313.8000
    315    316    337   1    110.7000    313.8000
    317    316    336   1    110.7000    313.8000
    317    316    337   1    110.7000    313.8000
    336    316    337   1    107.8000    276.1440
    316    317    318   1    112.7000    488.2728
    316    317    338   1    110.7000    313.8000
    316    317    339   1    110.7000    313.8000
    318    317    338   1    110.7000    313.8000
    318    317    339   1    110.7000    313.8000
    338    317    339   1    107.8000    276.1440
    317    318    319   1    111.1000    527.1840
    317    318    340   1    110.7000    313.8000
    317    318    341   1    110.7000    313.8000
    319    318    340   1    109.5000    292.8800
    319    318    341   1    109.5000    292.8800
    340    318    341   1    107.8000    276.1440
    318    319    320   1    120.4000    669.4400
    318    319    342   1    116.6000    585.7600
    320    319    342   1    122.9000    669.4400
    319    342    343   1    121.9000    418.4000
    319    342    355   1    119.8000    292.8800
    343    342    355   1    118.4000    317.9840
    342    343    344   1    110.7230    585.7600
    342    343    356   1    109.5000    292.8800
    342    343    357   1    109.5000    292.8800
    344    343    356   1    110.7000    313.8000
    344    343    357   1    110.7000    313.8000
    356    343    357   1    107.8000    276.1440
    343    344    345   1    112.7000    488.2728
    343    344    358   1    110.7000    313.8000
    343    344    359   1    110.7000    313.8000
    345    344    358   1    110.7000    313.8000
    345    344    359   1    110.7000    313.8000
    358    344    359   1    107.8000    276.1440
    344    345    346   1    112.7000    488.2728
    344    345    360   1    110.7000    313.8000
    344    345    361   1    110.7000    313.8000
    346    345    360   1    110.7000    313.8000
    346    345    361   1    110.7000    313.8000
    360    345    361   1    107.8000    276.1440
    345    346    347   1    112.7000    488.2728
    345    346    362   1    110.7000    313.8000
    345    346    363   1    110.7000    313.8000
    347    346    362   1    110.7000    313.8000
    347    346    363   1    110.7000    313.8000
    362    346    363   1    107.8000    276.1440
    346    347    348   1    112.7000    488.2728
    346    347    364   1    110.7000    313.8000
    346    347    365   1    110.7000    313.8000
    348    347    364   1    110.7000    313.8000
    348    347    365   1    110.7000    313.8000
    364    347    365   1    107.8000    276.1440
    347    348    349   1    112.7000    488.2728
    347    348    366   1    110.7000    313.8000
    347    348    367   1    110.7000    313.8000
    349    348    366   1    110.7000    313.8000
    349    348    367   1    110.7000    313.8000
    366    348    367   1    107.8000    276.1440
    348    349    350   1    112.7000    488.2728
    348    349    368   1    110.7000    313.8000
    348    349    369   1    110.7000    313.8000
    350    349    368   1    110.7000    313.8000
    350    349    369   1    110.7000    313.8000
    368    349    369   1    107.8000    276.1440
    349    350    351   1    112.7000    488.2728
    349    350    370   1    110.7000    313.8000
    349    350    371   1    110.7000    313.8000
    351    350    370   1    110.7000    313.8000
    351    350    371   1    110.7000    313.8000
    370    350    371   1    107.8000    276.1440
    350    351    352   1    112.7000    488.2728
    350    351    372   1    110.7000    313.8000
    350    351    373   1    110.7000    313.8000
    352    351    372   1    110.7000    313.8000
    352    351    373   1    110.7000    313.8000
    372    351    373   1    107.8000    276.1440
    351    352    353   1    111.1000    527.1840
    351    352    374   1    110.7000    313.8000
    351    352    375   1    110.7000    313.8000
    353    352    374   1    109.5000    292.8800
    353    352    375   1    109.5000    292.8800
    374    352    375   1    107.8000    276.1440
    352    353    354   1    120.4000    669.4400
    352    353    376   1    116.6000    585.7600
    354    353    376   1    122.9000    669.4400
    353    376    377   1    121.9000    418.4000
    353    376    389   1    119.8000    292.8800
    377    376    389   1    118.4000    317.9840
    376    377    378   1    110.7230    585.7600
    376    377    390   1    109.5000    292.8800
    376    377    391   1    109.5000    292.8800
    378    377    390   1    110.7000    313.8000
    378    377    391   1    110.7000    313.8000
    390    377    391   1    107.8000    276.1440
    377    378    379   1    112.7000    488.2728
    377    378    392   1    110.7000    313.8000
    377    378    393   1    110.7000    313.8000
    379    378    392   1    110.7000    313.8000
    379    378    393   1    110.7000    313.8000
    392    378    393   1    107.8000    276.1440
    378    379    380   1    112.7000    488.2728
    378    379    394   1    110.7000    313.8000
    378    379    395   1    110.7000    313.8000
    380    379    394   1    110.7000    313.8000
    380    379    395   1    110.7000    313.8000
    394    379    395   1    107.8000    276.1440
    379    380    381   1    112.7000    488.2728
    379    380    396   1    110.7000    313.8000
    379    380    397   1    110.7000    313.8000
    381    380    396   1    110.7000    313.8000
    381    380    397   1    110.7000    313.8000
    396    380    397   1    107.8000    276.1440
    380    381    382   1    112.7000    488.2728
    380    381    398   1    110.7000    313.8000
    380    381    399   1    110.7000    313.8000
    382    381    398   1    110.7000    313.8000
    382    381    399   1    110.7000    313.8000
    398    381    399   1    107.8000    276.1440
    381    382    383   1    112.7000    488.2728
    381    382    400   1    110.7000    313.8000
    381    382    401   1    110.7000    313.8000
    383    382    400   1    110.7000    313.8000
    383    382    401   1    110.7000    313.8000
    400    382    401   1    107.8000    276.1440
    382    383    384   1    112.7000    488.2728
    382    383    402   1    110.7000    313.8000
    382    383    403   1    110.7000    313.8000
    384    383    402   1    110.7000    313.8000
    384    383    403   1    110.7000    313.8000
    402    383    403   1    107.8000    276.1440
    383    384    385   1    112.7000    488.2728
    383    384    404   1    110.7000    313.8000
    383    384    405   1    110.7000    313.8000
    385    384    404   1    110.7000    313.8000
    385    384    405   1    110.7000    313.8000
    404    384    405   1    107.8000    276.1440
    384    385    386   1    112.7000    488.2728
    384    385    406   1    110.7000    313.8000
    384    385    407   1    110.7000    313.8000
    386    385    406   1    110.7000    313.8000
    386    385    407   1    110.7000    313.8000
    406    385    407   1    107.8000    276.1440
    385    386    387   1    111.1000    527.1840
    385    386    408   1    110.7000    313.8000
    385    386    409   1    110.7000    313.8000
    387    386    408   1    109.5000    292.8800
    387    386    409   1    109.5000    292.8800
    408    386    409   1    107.8000    276.1440
    386    387    388   1    120.4000    669.4400
    386    387    410   1    116.6000    585.7600
    388    387    410   1    122.9000    669.4400
    387    410    411   1    121.9000    418.4000
    387    410    423   1    119.8000    292.8800
    411    410    423   1    118.4000    317.9840
    410    411    412   1    110.7230    585.7600
    410    411    424   1    109.5000    292.8800
    410    411    425   1    109.5000    292.8800
    412    411    424   1    110.7000    313.8000
    412    411    425   1    110.7000    313.8000
    424    411    425   1    107.8000    276.1440
    411    412    413   1    112.7000    488.2728
    411    412    426   1    110.7000    313.8000
    411    412    427   1    110.7000    313.8000
    413    412    426   1    110.7000    313.8000
    413    412    427   1    110.7000    313.8000
    426    412    427   1    107.8000    276.1440
    412    413    414   1    112.7000    488.2728
    412    413    428   1    110.7000    313.8000
    412    413    429   1    110.7000    313.8000
    414    413    428   1    110.7000    313.8000
    414    413    429   1    110.7000    313.8000
    428    413    429   1    107.8000    276.1440
    413    414    415   1    112.7000    488.2728
    413    414    430   1    110.7000    313.8000
    413    414    431   1    110.7000    313.8000
    415    414    430   1    110.7000    313.8000
    415    414    431   1    110.7000    313.8000
    430    414    431   1    107.8000    276.1440
    414    415    416   1    112.7000    488.2728
    414    415    432   1    110.7000    313.8000
    414    415    433   1    110.7000    313.8000
    416    415    432   1    110.7000    313.8000
    416    415    433   1    110.7000    313.8000
    432    415    433   1    107.8000    276.1440
    415    416    417   1    112.7000    488.2728
    415    416    434   1    110.7000    313.8000
    415    416    435   1    110.7000    313.8000
    417    416    434   1    110.7000    313.8000
    417    416    435   1    110.7000    313.8000
    434    416    435   1    107.8000    276.1440
    416    417    418   1    112.7000    488.2728
    416    417    436   1    110.7000    313.8000
    416    417    437   1    110.7000    313.8000
    418    417    436   1    110.7000    313.8000
    418    417    437   1    110.7000    313.8000
    436    417    437   1    107.8000    276.1440
    417    418    419   1    112.7000    488.2728
    417    418    438   1    110.7000    313.8000
    417    418    439   1    110.7000    313.8000
    419    418    438   1    110.7000    313.8000
    419    418    439   1    110.7000    313.8000
    438    418    439   1    107.8000    276.1440
    418    419    420   1    112.7000    488.2728
    418    419    440   1    110.7000    313.8000
    418    419    441   1    110.7000    313.8000
    420    419    440   1    110.7000    313.8000
    420    419    441   1    110.7000    313.8000
    440    419    441   1    107.8000    276.1440
    419    420    421   1    111.1000    527.1840
    419    420    442   1    110.7000    313.8000
    419    420    443   1    110.7000    313.8000
    421    420    442   1    109.5000    292.8800
    421    420    443   1    109.5000    292.8800
    442    420    443   1    107.8000    276.1440
    420    421    422   1    120.4000    669.4400
    420    421    444   1    116.6000    585.7600
    422    421    444   1    122.9000    669.4400
    421    444    445   1    121.9000    418.4000
    421    444    457   1    119.8000    292.8800
    445    444    457   1    118.4000    317.9840
    444    445    446   1    110.7230    585.7600
    444    445    458   1    109.5000    292.8800
    444    445    459   1    109.5000    292.8800
    446    445    458   1    110.7000    313.8000
    446    445    459   1    110.7000    313.8000
    458    445    459   1    107.8000    276.1440
    445    446    447   1    112.7000    488.2728
    445    446    460   1    110.7000    313.8000
    445    446    461   1    110.7000    313.8000
    447    446    460   1    110.7000    313.8000
    447    446    461   1    110.7000    313.8000
    460    446    461   1    107.8000    276.1440
    446    447    448   1    112.7000    488.2728
    446    447    462   1    110.7000    313.8000
    446    447    463   1    110.7000    313.8000
    448    447    462   1    110.7000    313.8000
    448    447    463   1    110.7000    313.8000
    462    447    463   1    107.8000    276.1440
    447    448    449   1    112.7000    488.2728
    447    448    464   1    110.7000    313.8000
    447    448    465   1    110.7000    313.8000
    449    448    464   1    110.7000    313.8000
    449    448    465   1    110.7000    313.8000
    464    448    465   1    107.8000    276.1440
    448    449    450   1    112.7000    488.2728
    448    449    466   1    110.7000    313.8000
    448    449    467   1    110.7000    313.8000
    450    449    466   1    110.7000    313.8000
    450    449    467   1    110.7000    313.8000
    466    449    467   1    107.8000    276.1440
    449    450    451   1    112.7000    488.2728
    449    450    468   1    110.7000    313.8000
    449    450    469   1    110.7000    313.8000
    451    450    468   1    110.7000    313.8000
    451    450    469   1    110.7000    313.8000
    468    450    469   1    107.8000    276.1440
    450    451    452   1    112.7000    488.2728
    450    451    470   1    110.7000    313.8000
    450    451    471   1    110.7000    313.8000
    452    451    470   1    110.7000    313.8000
    452    451    471   1    110.7000    313.8000
    470    451    471   1    107.8000    276.1440
    451    452    453   1    112.7000    488.2728
    451    452    472   1    110.7000    313.8000
    451    452    473   1    110.7000    313.8000
    453    452    472   1    110.7000    313.8000
    453    452    473   1    110.7000    313.8000
    472    452    473   1    107.8000    276.1440
    452    453    454   1    112.7000    488.2728
    452    453    474   1    110.7000    313.8000
    452    453    475   1    110.7000    313.8000
    454    453    474   1    110.7000    313.8000
    454    453    475   1    110.7000    313.8000
    474    453    475   1    107.8000    276.1440
    453    454    455   1    111.1000    527.1840
    453    454    476   1    110.7000    313.8000
    453    454    477   1    110.7000    313.8000
    455    454    476   1    109.5000    292.8800
    455    454    477   1    109.5000    292.8800
    476    454    477   1    107.8000    276.1440
    454    455    456   1    120.4000    669.4400
    454    455    478   1    116.6000    585.7600
    456    455    478   1    122.9000    669.4400
    455    478    479   1    121.9000    418.4000
    455    478    491   1    119.8000    292.8800
    479    478    491   1    118.4000    317.9840
    478    479    480   1    110.7230    585.7600
    478    479    492   1    109.5000    292.8800
    478    479    493   1    109.5000    292.8800
    480    479    492   1    110.7000    313.8000
    480    479    493   1    110.7000    313.8000
    492    479    493   1    107.8000    276.1440
    479    480    481   1    112.7000    488.2728
    479    480    494   1    110.7000    313.8000
    479    480    495   1    110.7000    313.8000
    481    480    494   1    110.7000    313.8000
    481    480    495   1    110.7000    313.8000
    494    480    495   1    107.8000    276.1440
    480    481    482   1    112.7000    488.2728
    480    481    496   1    110.7000    313.8000
    480    481    497   1    110.7000    313.8000
    482    481    496   1    110.7000    313.8000
    482    481    497   1    110.7000    313.8000
    496    481    497   1    107.8000    276.1440
    481    482    483   1    112.7000    488.2728
    481    482    498   1    110.7000    313.8000
    481    482    499   1    110.7000    313.8000
    483    482    498   1    110.7000    313.8000
    483    482    499   1    110.7000    313.8000
    498    482    499   1    107.8000    276.1440
    482    483    484   1    112.7000    488.2728
    482    483    500   1    110.7000    313.8000
    482    483    501   1    110.7000    313.8000
    484    483    500   1    110.7000    313.8000
    484    483    501   1    110.7000    313.8000
    500    483    501   1    107.8000    276.1440
    483    484    485   1    112.7000    488.2728
    483    484    502   1    110.7000    313.8000
    483    484    503   1    110.7000    313.8000
    485    484    502   1    110.7000    313.8000
    485    484    503   1    110.7000    313.8000
    502    484    503   1    107.8000    276.1440
    484    485    486   1    112.7000    488.2728
    484    485    504   1    110.7000    313.8000
    484    485    505   1    110.7000    313.8000
    486    485    504   1    110.7000    313.8000
    486    485    505   1    110.7000    313.8000
    504    485    505   1    107.8000    276.1440
    485    486    487   1    112.7000    488.2728
    485    486    506   1    110.7000    313.8000
    485    486    507   1    110.7000    313.8000
    487    486    506   1    110.7000    313.8000
    487    486    507   1    110.7000    313.8000
    506    486    507   1    107.8000    276.1440
    486    487    488   1    112.7000    488.2728
    486    487    508   1    110.7000    313.8000
    486    487    509   1    110.7000    313.8000
    488    487    508   1    110.7000    313.8000
    488    487    509   1    110.7000    313.8000
    508    487    509   1    107.8000    276.1440
    487    488    489   1    111.1000    527.1840
    487    488    510   1    110.7000    313.8000
    487    488    511   1    110.7000    313.8000
    489    488    510   1    109.5000    292.8800
    489    488    511   1    109.5000    292.8800
    510    488    511   1    107.8000    276.1440
    488    489    490   1    120.4000    669.4400
    488    489    512   1    116.6000    585.7600
    490    489    512   1    122.9000    669.4400
    489    512    513   1    121.9000    418.4000
    489    512    525   1    119.8000    292.8800
    513    512    525   1    118.4000    317.9840
    512    513    514   1    110.7230    585.7600
    512    513    526   1    109.5000    292.8800
    512    513    527   1    109.5000    292.8800
    514    513    526   1    110.7000    313.8000
    514    513    527   1    110.7000    313.8000
    526    513    527   1    107.8000    276.1440
    513    514    515   1    112.7000    488.2728
    513    514    528   1    110.7000    313.8000
    513    514    529   1    110.7000    313.8000
    515    514    528   1    110.7000    313.8000
    515    514    529   1    110.7000    313.8000
    528    514    529   1    107.8000    276.1440
    514    515    516   1    112.7000    488.2728
    514    515    530   1    110.7000    313.8000
    514    515    531   1    110.7000    313.8000
    516    515    530   1    110.7000    313.8000
    516    515    531   1    110.7000    313.8000
    530    515    531   1    107.8000    276.1440
    515    516    517   1    112.7000    488.2728
    515    516    532   1    110.7000    313.8000
    515    516    533   1    110.7000    313.8000
    517    516    532   1    110.7000    313.8000
    517    516    533   1    110.7000    313.8000
    532    516    533   1    107.8000    276.1440
    516    517    518   1    112.7000    488.2728
    516    517    534   1    110.7000    313.8000
    516    517    535   1    110.7000    313.8000
    518    517    534   1    110.7000    313.8000
    518    517    535   1    110.7000    313.8000
    534    517    535   1    107.8000    276.1440
    517    518    519   1    112.7000    488.2728
    517    518    536   1    110.7000    313.8000
    517    518    537   1    110.7000    313.8000
    519    518    536   1    110.7000    313.8000
    519    518    537   1    110.7000    313.8000
    536    518    537   1    107.8000    276.1440
    518    519    520   1    112.7000    488.2728
    518    519    538   1    110.7000    313.8000
    518    519    539   1    110.7000    313.8000
    520    519    538   1    110.7000    313.8000
    520    519    539   1    110.7000    313.8000
    538    519    539   1    107.8000    276.1440
    519    520    521   1    112.7000    488.2728
    519    520    540   1    110.7000    313.8000
    519    520    541   1    110.7000    313.8000
    521    520    540   1    110.7000    313.8000
    521    520    541   1    110.7000    313.8000
    540    520    541   1    107.8000    276.1440
    520    521    522   1    112.7000    488.2728
    520    521    542   1    110.7000    313.8000
    520    521    543   1    110.7000    313.8000
    522    521    542   1    110.7000    313.8000
    522    521    543   1    110.7000    313.8000
    542    521    543   1    107.8000    276.1440
    521    522    523   1    111.1000    527.1840
    521    522    544   1    110.7000    313.8000
    521    522    545   1    110.7000    313.8000
    523    522    544   1    109.5000    292.8800
    523    522    545   1    109.5000    292.8800
    544    522    545   1    107.8000    276.1440
    522    523    524   1    120.4000    669.4400
    522    523    546   1    116.6000    585.7600
    524    523    546   1    122.9000    669.4400
    523    546    547   1    121.9000    418.4000
    523    546    559   1    119.8000    292.8800
    547    546    559   1    118.4000    317.9840
    546    547    548   1    110.7230    585.7600
    546    547    560   1    109.5000    292.8800
    546    547    561   1    109.5000    292.8800
    548    547    560   1    110.7000    313.8000
    548    547    561   1    110.7000    313.8000
    560    547    561   1    107.8000    276.1440
    547    548    549   1    112.7000    488.2728
    547    548    562   1    110.7000    313.8000
    547    548    563   1    110.7000    313.8000
    549    548    562   1    110.7000    313.8000
    549    548    563   1    110.7000    313.8000
    562    548    563   1    107.8000    276.1440
    548    549    550   1    112.7000    488.2728
    548    549    564   1    110.7000    313.8000
    548    549    565   1    110.7000    313.8000
    550    549    564   1    110.7000    313.8000
    550    549    565   1    110.7000    313.8000
    564    549    565   1    107.8000    276.1440
    549    550    551   1    112.7000    488.2728
    549    550    566   1    110.7000    313.8000
    549    550    567   1    110.7000    313.8000
    551    550    566   1    110.7000    313.8000
    551    550    567   1    110.7000    313.8000
    566    550    567   1    107.8000    276.1440
    550    551    552   1    112.7000    488.2728
    550    551    568   1    110.7000    313.8000
    550    551    569   1    110.7000    313.8000
    552    551    568   1    110.7000    313.8000
    552    551    569   1    110.7000    313.8000
    568    551    569   1    107.8000    276.1440
    551    552    553   1    112.7000    488.2728
    551    552    570   1    110.7000    313.8000
    551    552    571   1    110.7000    313.8000
    553    552    570   1    110.7000    313.8000
    553    552    571   1    110.7000    313.8000
    570    552    571   1    107.8000    276.1440
    552    553    554   1    112.7000    488.2728
    552    553    572   1    110.7000    313.8000
    552    553    573   1    110.7000    313.8000
    554    553    572   1    110.7000    313.8000
    554    553    573   1    110.7000    313.8000
    572    553    573   1    107.8000    276.1440
    553    554    555   1    112.7000    488.2728
    553    554    574   1    110.7000    313.8000
    553    554    575   1    110.7000    313.8000
    555    554    574   1    110.7000    313.8000
    555    554    575   1    110.7000    313.8000
    574    554    575   1    107.8000    276.1440
    554    555    556   1    112.7000    488.2728
    554    555    576   1    110.7000    313.8000
    554    555    577   1    110.7000    313.8000
    556    555    576   1    110.7000    313.8000
    556    555    577   1    110.7000    313.8000
    576    555    577   1    107.8000    276.1440
    555    556    557   1    111.1000    527.1840
    555    556    578   1    110.7000    313.8000
    555    556    579   1    110.7000    313.8000
    557    556    578   1    109.5000    292.8800
    557    556    579   1    109.5000    292.8800
    578    556    579   1    107.8000    276.1440
    556    557    558   1    120.4000    669.4400
    556    557    580   1    116.6000    585.7600
    558    557    580   1    122.9000    669.4400
    557    580    581   1    121.9000    418.4000
    557    580    593   1    119.8000    292.8800
    581    580    593   1    118.4000    317.9840
    580    581    582   1    110.7230    585.7600
    580    581    594   1    109.5000    292.8800
    580    581    595   1    109.5000    292.8800
    582    581    594   1    110.7000    313.8000
    582    581    595   1    110.7000    313.8000
    594    581    595   1    107.8000    276.1440
    581    582    583   1    112.7000    488.2728
    581    582    596   1    110.7000    313.8000
    581    582    597   1    110.7000    313.8000
    583    582    596   1    110.7000    313.8000
    583    582    597   1    110.7000    313.8000
    596    582    597   1    107.8000    276.1440
    582    583    584   1    112.7000    488.2728
    582    583    598   1    110.7000    313.8000
    582    583    599   1    110.7000    313.8000
    584    583    598   1    110.7000    313.8000
    584    583    599   1    110.7000    313.8000
    598    583    599   1    107.8000    276.1440
    583    584    585   1    112.7000    488.2728
    583    584    600   1    110.7000    313.8000
    583    584    601   1    110.7000    313.8000
    585    584    600   1    110.7000    313.8000
    585    584    601   1    110.7000    313.8000
    600    584    601   1    107.8000    276.1440
    584    585    586   1    112.7000    488.2728
    584    585    602   1    110.7000    313.8000
    584    585    603   1    110.7000    313.8000
    586    585    602   1    110.7000    313.8000
    586    585    603   1    110.7000    313.8000
    602    585    603   1    107.8000    276.1440
    585    586    587   1    112.7000    488.2728
    585    586    604   1    110.7000    313.8000
    585    586    605   1    110.7000    313.8000
    587    586    604   1    110.7000    313.8000
    587    586    605   1    110.7000    313.8000
    604    586    605   1    107.8000    276.1440
    586    587    588   1    112.7000    488.2728
    586    587    606   1    110.7000    313.8000
    586    587    607   1    110.7000    313.8000
    588    587    606   1    110.7000    313.8000
    588    587    607   1    110.7000    313.8000
    606    587    607   1    107.8000    276.1440
    587    588    589   1    112.7000    488.2728
    587    588    608   1    110.7000    313.8000
    587    588    609   1    110.7000    313.8000
    589    588    608   1    110.7000    313.8000
    589    588    609   1    110.7000    313.8000
    608    588    609   1    107.8000    276.1440
    588    589    590   1    112.7000    488.2728
    588    589    610   1    110.7000    313.8000
    588    589    611   1    110.7000    313.8000
    590    589    610   1    110.7000    313.8000
    590    589    611   1    110.7000    313.8000
    610    589    611   1    107.8000    276.1440
    589    590    591   1    111.1000    527.1840
    589    590    612   1    110.7000    313.8000
    589    590    613   1    110.7000    313.8000
    591    590    612   1    109.5000    292.8800
    591    590    613   1    109.5000    292.8800
    612    590    613   1    107.8000    276.1440
    590    591    592   1    120.4000    669.4400
    590    591    614   1    116.6000    585.7600
    592    591    614   1    122.9000    669.4400
    591    614    615   1    121.9000    418.4000
    591    614    627   1    119.8000    292.8800
    615    614    627   1    118.4000    317.9840
    614    615    616   1    110.7230    585.7600
    614    615    628   1    109.5000    292.8800
    614    615    629   1    109.5000    292.8800
    616    615    628   1    110.7000    313.8000
    616    615    629   1    110.7000    313.8000
    628    615    629   1    107.8000    276.1440
    615    616    617   1    112.7000    488.2728
    615    616    630   1    110.7000    313.8000
    615    616    631   1    110.7000    313.8000
    617    616    630   1    110.7000    313.8000
    617    616    631   1    110.7000    313.8000
    630    616    631   1    107.8000    276.1440
    616    617    618   1    112.7000    488.2728
    616    617    632   1    110.7000    313.8000
    616    617    633   1    110.7000    313.8000
    618    617    632   1    110.7000    313.8000
    618    617    633   1    110.7000    313.8000
    632    617    633   1    107.8000    276.1440
    617    618    619   1    112.7000    488.2728
    617    618    634   1    110.7000    313.8000
    617    618    635   1    110.7000    313.8000
    619    618    634   1    110.7000    313.8000
    619    618    635   1    110.7000    313.8000
    634    618    635   1    107.8000    276.1440
    618    619    620   1    112.7000    488.2728
    618    619    636   1    110.7000    313.8000
    618    619    637   1    110.7000    313.8000
    620    619    636   1    110.7000    313.8000
    620    619    637   1    110.7000    313.8000
    636    619    637   1    107.8000    276.1440
    619    620    621   1    112.7000    488.2728
    619    620    638   1    110.7000    313.8000
    619    620    639   1    110.7000    313.8000
    621    620    638   1    110.7000    313.8000
    621    620    639   1    110.7000    313.8000
    638    620    639   1    107.8000    276.1440
    620    621    622   1    112.7000    488.2728
    620    621    640   1    110.7000    313.8000
    620    621    641   1    110.7000    313.8000
    622    621    640   1    110.7000    313.8000
    622    621    641   1    110.7000    313.8000
    640    621    641   1    107.8000    276.1440
    621    622    623   1    112.7000    488.2728
    621    622    642   1    110.7000    313.8000
    621    622    643   1    110.7000    313.8000
    623    622    642   1    110.7000    313.8000
    623    622    643   1    110.7000    313.8000
    642    622    643   1    107.8000    276.1440
    622    623    624   1    112.7000    488.2728
    622    623    644   1    110.7000    313.8000
    622    623    645   1    110.7000    313.8000
    624    623    644   1    110.7000    313.8000
    624    623    645   1    110.7000    313.8000
    644    623    645   1    107.8000    276.1440
    623    624    625   1    111.1000    527.1840
    623    624    646   1    110.7000    313.8000
    623    624    647   1    110.7000    313.8000
    625    624    646   1    109.5000    292.8800
    625    624    647   1    109.5000    292.8800
    646    624    647   1    107.8000    276.1440
    624    625    626   1    120.4000    669.4400
    624    625    648   1    116.6000    585.7600
    626    625    648   1    122.9000    669.4400
    625    648    649   1    121.9000    418.4000
    625    648    661   1    119.8000    292.8800
    649    648    661   1    118.4000    317.9840
    648    649    650   1    110.7230    585.7600
    648    649    662   1    109.5000    292.8800
    648    649    663   1    109.5000    292.8800
    650    649    662   1    110.7000    313.8000
    650    649    663   1    110.7000    313.8000
    662    649    663   1    107.8000    276.1440
    649    650    651   1    112.7000    488.2728
    649    650    664   1    110.7000    313.8000
    649    650    665   1    110.7000    313.8000
    651    650    664   1    110.7000    313.8000
    651    650    665   1    110.7000    313.8000
    664    650    665   1    107.8000    276.1440
    650    651    652   1    112.7000    488.2728
    650    651    666   1    110.7000    313.8000
    650    651    667   1    110.7000    313.8000
    652    651    666   1    110.7000    313.8000
    652    651    667   1    110.7000    313.8000
    666    651    667   1    107.8000    276.1440
    651    652    653   1    112.7000    488.2728
    651    652    668   1    110.7000    313.8000
    651    652    669   1    110.7000    313.8000
    653    652    668   1    110.7000    313.8000
    653    652    669   1    110.7000    313.8000
    668    652    669   1    107.8000    276.1440
    652    653    654   1    112.7000    488.2728
    652    653    670   1    110.7000    313.8000
    652    653    671   1    110.7000    313.8000
    654    653    670   1    110.7000    313.8000
    654    653    671   1    110.7000    313.8000
    670    653    671   1    107.8000    276.1440
    653    654    655   1    112.7000    488.2728
    653    654    672   1    110.7000    313.8000
    653    654    673   1    110.7000    313.8000
    655    654    672   1    110.7000    313.8000
    655    654    673   1    110.7000    313.8000
    672    654    673   1    107.8000    276.1440
    654    655    656   1    112.7000    488.2728
    654    655    674   1    110.7000    313.8000
    654    655    675   1    110.7000    313.8000
    656    655    674   1    110.7000    313.8000
    656    655    675   1    110.7000    313.8000
    674    655    675   1    107.8000    276.1440
    655    656    657   1    112.7000    488.2728
    655    656    676   1    110.7000    313.8000
    655    656    677   1    110.7000    313.8000
    657    656    676   1    110.7000    313.8000
    657    656    677   1    110.7000    313.8000
    676    656    677   1    107.8000    276.1440
    656    657    658   1    112.7000    488.2728
    656    657    678   1    110.7000    313.8000
    656    657    679   1    110.7000    313.8000
    658    657    678   1    110.7000    313.8000
    658    657    679   1    110.7000    313.8000
    678    657    679   1    107.8000    276.1440
    657    658    659   1    111.1000    527.1840
    657    658    680   1    110.7000    313.8000
    657    658    681   1    110.7000    313.8000
    659    658    680   1    109.5000    292.8800
    659    658    681   1    109.5000    292.8800
    680    658    681   1    107.8000    276.1440
    658    659    660   1    120.4000    669.4400
    658    659    682   1    115.0000    292.8800
    660    659    682   1    123.0000    292.8800

[ dihedrals ]
; Proper dihedrals
     14      1      2      3   5    -0.49790     0.74057     0.98324  0.0
     14      1      2     15   5     0.00000     0.00000     1.67360  0.0
     14      1      2     16   5     0.00000     0.00000     1.67360  0.0
     35      1      2      3   5    -0.49790     0.74057     0.98324  0.0
     35      1      2     15   5     0.00000     0.00000     1.67360  0.0
     35      1      2     16   5     0.00000     0.00000     1.67360  0.0
      1      2      3      4   5    12.83651    -0.83262     0.47698  0.0
      1      2      3     17   5     0.00000     0.00000     1.25520  0.0
      1      2      3     18   5     0.00000     0.00000     1.25520  0.0
     15      2      3      4   5     0.00000     0.00000     1.25520  0.0
     15      2      3     17   5     0.00000     0.00000     1.25520  0.0
     15      2      3     18   5     0.00000     0.00000     1.25520  0.0
     16      2      3      4   5     0.00000     0.00000     1.25520  0.0
     16      2      3     17   5     0.00000     0.00000     1.25520  0.0
     16      2      3     18   5     0.00000     0.00000     1.25520  0.0
      2      3      4      5   5     4.74884    -0.63178     1.67360  0.0
      2      3      4     19   5     0.00000     0.00000     1.25520  0.0
      2      3      4     20   5     0.00000     0.00000     1.25520  0.0
     17      3      4      5   5     0.00000     0.00000     1.25520  0.0
     17      3      4     19   5     0.00000     0.00000     1.25520  0.0
     17      3      4     20   5     0.00000     0.00000     1.25520  0.0
     18      3      4      5   5     0.00000     0.00000     1.25520  0.0
     18      3      4     19   5     0.00000     0.00000     1.25520  0.0
     18      3      4     20   5     0.00000     0.00000     1.25520  0.0
      3      4      5      6   5     4.74884    -0.63178     1.67360  0.0
      3      4      5     21   5     0.00000     0.00000     1.25520  0.0
      3      4      5     22   5     0.00000     0.00000     1.25520  0.0
     19      4      5      6   5     0.00000     0.00000     1.25520  0.0
     19      4      5     21   5     0.00000     0.00000     1.25520  0.0
     19      4      5     22   5     0.00000     0.00000     1.25520  0.0
     20      4      5      6   5     0.00000     0.00000     1.25520  0.0
     20      4      5     21   5     0.00000     0.00000     1.25520  0.0
     20      4      5     22   5     0.00000     0.00000     1.25520  0.0
      4      5      6      7   5     4.74884    -0.63178     1.67360  0.0
      4      5      6     23   5     0.00000     0.00000     1.25520  0.0
      4      5      6     24   5     0.00000     0.00000     1.25520  0.0
     21      5      6      7   5     0.00000     0.00000     1.25520  0.0
     21      5      6     23   5     0.00000     0.00000     1.25520  0.0
     21      5      6     24   5     0.00000     0.00000     1.25520  0.0
     22      5      6      7   5     0.00000     0.00000     1.25520  0.0
     22      5      6     23   5     0.00000     0.00000     1.25520  0.0
     22      5      6     24   5     0.00000     0.00000     1.25520  0.0
      5      6      7      8   5     4.74884    -0.63178     1.67360  0.0
      5      6      7     25   5     0.00000     0.00000     1.25520  0.0
      5      6      7     26   5     0.00000     0.00000     1.25520  0.0
     23      6      7      8   5     0.00000     0.00000     1.25520  0.0
     23      6      7     25   5     0.00000     0.00000     1.25520  0.0
     23      6      7     26   5     0.00000     0.00000     1.25520  0.0
     24      6      7      8   5     0.00000     0.00000     1.25520  0.0
     24      6      7     25   5     0.00000     0.00000     1.25520  0.0
     24      6      7     26   5     0.00000     0.00000     1.25520  0.0
      6      7      8      9   5     4.74884    -0.63178     1.67360  0.0
      6      7      8     27   5     0.00000     0.00000     1.25520  0.0
      6      7      8     28   5     0.00000     0.00000     1.25520  0.0
     25      7      8      9   5     0.00000     0.00000     1.25520  0.0
     25      7      8     27   5     0.00000     0.00000     1.25520  0.0
     25      7      8     28   5     0.00000     0.00000     1.25520  0.0
     26      7      8      9   5     0.00000     0.00000     1.25520  0.0
     26      7      8     27   5     0.00000     0.00000     1.25520  0.0
     26      7      8     28   5     0.00000     0.00000     1.25520  0.0
      7      8      9     10   5     4.74884    -0.63178     1.67360  0.0
      7      8      9     29   5     0.00000     0.00000     1.25520  0.0
      7      8      9     30   5     0.00000     0.00000     1.25520  0.0
     27      8      9     10   5     0.00000     0.00000     1.25520  0.0
     27      8      9     29   5     0.00000     0.00000     1.25520  0.0
     27      8      9     30   5     0.00000     0.00000     1.25520  0.0
     28      8      9     10   5     0.00000     0.00000     1.25520  0.0
     28      8      9     29   5     0.00000     0.00000     1.25520  0.0
     28      8      9     30   5     0.00000     0.00000     1.25520  0.0
      8      9     10     11   5     4.74884    -0.63178     1.67360  0.0
      8      9     10     31   5     0.00000     0.00000     1.25520  0.0
      8      9     10     32   5     0.00000     0.00000     1.25520  0.0
     29      9     10     11   5     0.00000     0.00000     1.25520  0.0
     29      9     10     31   5     0.00000     0.00000     1.25520  0.0
     29      9     10     32   5     0.00000     0.00000     1.25520  0.0
     30      9     10     11   5     0.00000     0.00000     1.25520  0.0
     30      9     10     31   5     0.00000     0.00000     1.25520  0.0
     30      9     10     32   5     0.00000     0.00000     1.25520  0.0
      9     10     11     12   5    -8.00818    -1.52298     2.46438  0.0
      9     10     11     33   5     0.00000     0.00000     1.25520  0.0
      9     10     11     34   5     0.00000     0.00000     1.25520  0.0
     31     10     11     12   5     0.00000     0.00000    -0.94140  0.0
     31     10     11     33   5     0.00000     0.00000     1.25520  0.0
     31     10     11     34   5     0.00000     0.00000     1.25520  0.0
     32     10     11     12   5     0.00000     0.00000    -0.94140  0.0
     32     10     11     33   5     0.00000     0.00000     1.25520  0.0
     32     10     11     34   5     0.00000     0.00000     1.25520  0.0
     10     11     12     13   5     0.00000     2.52295     0.00000  0.0
     10     11     12     36   5    11.69428    -0.66526    -1.56900  0.0
     33     11     12     13   5     0.00000     0.00000     0.00000  0.0
     33     11     12     36   5     0.00000     0.00000     0.00000  0.0
     34     11     12     13   5     0.00000     0.00000     0.00000  0.0
     34     11     12     36   5     0.00000     0.00000     0.00000  0.0
     11     12     36     37   5    12.53945    12.88254     0.00000  0.0
     11     12     36     49   5     0.00000    20.50160     0.00000  0.0
     13     12     36     37   5     0.00000    25.47638     0.00000  0.0
     13     12     36     49   5     0.00000    20.50160     0.00000  0.0
     12     36     37     38   5    -3.67774    -0.67781     0.28033  0.0
     12     36     37     50   5     0.00000     0.00000     0.00000  0.0
     12     36     37     51   5     0.00000     0.00000     0.00000  0.0
     49     36     37     38   5     0.00000     0.00000     0.00000  0.0
     49     36     37     50   5     0.00000     0.00000     0.00000  0.0
     49     36     37     51   5     0.00000     0.00000     0.00000  0.0
     36     37     38     39   5     3.67355     4.10869     2.37651  0.0
     36     37     38     52   5     0.00000     0.00000     1.25520  0.0
     36     37     38     53   5     0.00000     0.00000     1.25520  0.0
     50     37     38     39   5     0.00000     0.00000     1.25520  0.0
     50     37     38     52   5     0.00000     0.00000     1.25520  0.0
     50     37     38     53   5     0.00000     0.00000     1.25520  0.0
     51     37     38     39   5     0.00000     0.00000     1.25520  0.0
     51     37     38     52   5     0.00000     0.00000     1.25520  0.0
     51     37     38     53   5     0.00000     0.00000     1.25520  0.0
     37     38     39     40   5     4.74884    -0.63178     1.67360  0.0
     37     38     39     54   5     0.00000     0.00000     1.25520  0.0
     37     38     39     55   5     0.00000     0.00000     1.25520  0.0
     52     38     39     40   5     0.00000     0.00000     1.25520  0.0
     52     38     39     54   5     0.00000     0.00000     1.25520  0.0
     52     38     39     55   5     0.00000     0.00000     1.25520  0.0
     53     38     39     40   5     0.00000     0.00000     1.25520  0.0
     53     38     39     54   5     0.00000     0.00000     1.25520  0.0
     53     38     39     55   5     0.00000     0.00000     1.25520  0.0
     38     39     40     41   5     4.74884    -0.63178     1.67360  0.0
     38     39     40     56   5     0.00000     0.00000     1.25520  0.0
     38     39     40     57   5     0.00000     0.00000     1.25520  0.0
     54     39     40     41   5     0.00000     0.00000     1.25520  0.0
     54     39     40     56   5     0.00000     0.00000     1.25520  0.0
     54     39     40     57   5     0.00000     0.00000     1.25520  0.0
     55     39     40     41   5     0.00000     0.00000     1.25520  0.0
     55     39     40     56   5     0.00000     0.00000     1.25520  0.0
     55     39     40     57   5     0.00000     0.00000     1.25520  0.0
     39     40     41     42   5     4.74884    -0.63178     1.67360  0.0
     39     40     41     58   5     0.00000     0.00000     1.25520  0.0
     39     40     41     59   5     0.00000     0.00000     1.25520  0.0
     56     40     41     42   5     0.00000     0.00000     1.25520  0.0
     56     40     41     58   5     0.00000     0.00000     1.25520  0.0
     56     40     41     59   5     0.00000     0.00000     1.25520  0.0
     57     40     41     42   5     0.00000     0.00000     1.25520  0.0
     57     40     41     58   5     0.00000     0.00000     1.25520  0.0
     57     40     41     59   5     0.00000     0.00000     1.25520  0.0
     40     41     42     43   5     4.74884    -0.63178     1.67360  0.0
     40     41     42     60   5     0.00000     0.00000     1.25520  0.0
     40     41     42     61   5     0.00000     0.00000     1.25520  0.0
     58     41     42     43   5     0.00000     0.00000     1.25520  0.0
     58     41     42     60   5     0.00000     0.00000     1.25520  0.0
     58     41     42     61   5     0.00000     0.00000     1.25520  0.0
     59     41     42     43   5     0.00000     0.00000     1.25520  0.0
     59     41     42     60   5     0.00000     0.00000     1.25520  0.0
     59     41     42     61   5     0.00000     0.00000     1.25520  0.0
     41     42     43     44   5     4.74884    -0.63178     1.67360  0.0
     41     42     43     62   5     0.00000     0.00000     1.25520  0.0
     41     42     43     63   5     0.00000     0.00000     1.25520  0.0
     60     42     43     44   5     0.00000     0.00000     1.25520  0.0
     60     42     43     62   5     0.00000     0.00000     1.25520  0.0
     60     42     43     63   5     0.00000     0.00000     1.25520  0.0
     61     42     43     44   5     0.00000     0.00000     1.25520  0.0
     61     42     43     62   5     0.00000     0.00000     1.25520  0.0
     61     42     43     63   5     0.00000     0.00000     1.25520  0.0
     42     43     44     45   5     4.74884    -0.63178     1.67360  0.0
     42     43     44     64   5     0.00000     0.00000     1.25520  0.0
     42     43     44     65   5     0.00000     0.00000     1.25520  0.0
     62     43     44     45   5     0.00000     0.00000     1.25520  0.0
     62     43     44     64   5     0.00000     0.00000     1.25520  0.0
     62     43     44     65   5     0.00000     0.00000     1.25520  0.0
     63     43     44     45   5     0.00000     0.00000     1.25520  0.0
     63     43     44     64   5     0.00000     0.00000     1.25520  0.0
     63     43     44     65   5     0.00000     0.00000     1.25520  0.0
     43     44     45     46   5     4.74884    -0.63178     1.67360  0.0
     43     44     45     66   5     0.00000     0.00000     1.25520  0.0
     43     44     45     67   5     0.00000     0.00000     1.25520  0.0
     64     44     45     46   5     0.00000     0.00000     1.25520  0.0
     64     44     45     66   5     0.00000     0.00000     1.25520  0.0
     64     44     45     67   5     0.00000     0.00000     1.25520  0.0
     65     44     45     46   5     0.00000     0.00000     1.25520  0.0
     65     44     45     66   5     0.00000     0.00000     1.25520  0.0
     65     44     45     67   5     0.00000     0.00000     1.25520  0.0
     44     45     46     47   5    -8.00818    -1.52298     2.46438  0.0
     44     45     46     68   5     0.00000     0.00000     1.25520  0.0
     44     45     46     69   5     0.00000     0.00000     1.25520  0.0
     66     45     46     47   5     0.00000     0.00000    -0.94140  0.0
     66     45     46     68   5     0.00000     0.00000     1.25520  0.0
     66     45     46     69   5     0.00000     0.00000     1.25520  0.0
     67     45     46     47   5     0.00000     0.00000    -0.94140  0.0
     67     45     46     68   5     0.00000     0.00000     1.25520  0.0
     67     45     46     69   5     0.00000     0.00000     1.25520  0.0
     45     46     47     48   5     0.00000     2.52295     0.00000  0.0
     45     46     47     70   5    11.69428    -0.66526    -1.56900  0.0
     68     46     47     48   5     0.00000     0.00000     0.00000  0.0
     68     46     47     70   5     0.00000     0.00000     0.00000  0.0
     69     46     47     48   5     0.00000     0.00000     0.00000  0.0
     69     46     47     70   5     0.00000     0.00000     0.00000  0.0
     46     47     70     71   5    12.53945    12.88254     0.00000  0.0
     46     47     70     83   5     0.00000    20.50160     0.00000  0.0
     48     47     70     71   5     0.00000    25.47638     0.00000  0.0
     48     47     70     83   5     0.00000    20.50160     0.00000  0.0
     47     70     71     72   5    -3.67774    -0.67781     0.28033  0.0
     47     70     71     84   5     0.00000     0.00000     0.00000  0.0
     47     70     71     85   5     0.00000     0.00000     0.00000  0.0
     83     70     71     72   5     0.00000     0.00000     0.00000  0.0
     83     70     71     84   5     0.00000     0.00000     0.00000  0.0
     83     70     71     85   5     0.00000     0.00000     0.00000  0.0
     70     71     72     73   5     3.67355     4.10869     2.37651  0.0
     70     71     72     86   5     0.00000     0.00000     1.25520  0.0
     70     71     72     87   5     0.00000     0.00000     1.25520  0.0
     84     71     72     73   5     0.00000     0.00000     1.25520  0.0
     84     71     72     86   5     0.00000     0.00000     1.25520  0.0
     84     71     72     87   5     0.00000     0.00000     1.25520  0.0
     85     71     72     73   5     0.00000     0.00000     1.25520  0.0
     85     71     72     86   5     0.00000     0.00000     1.25520  0.0
     85     71     72     87   5     0.00000     0.00000     1.25520  0.0
     71     72     73     74   5     4.74884    -0.63178     1.67360  0.0
     71     72     73     88   5     0.00000     0.00000     1.25520  0.0
     71     72     73     89   5     0.00000     0.00000     1.25520  0.0
     86     72     73     74   5     0.00000     0.00000     1.25520  0.0
     86     72     73     88   5     0.00000     0.00000     1.25520  0.0
     86     72     73     89   5     0.00000     0.00000     1.25520  0.0
     87     72     73     74   5     0.00000     0.00000     1.25520  0.0
     87     72     73     88   5     0.00000     0.00000     1.25520  0.0
     87     72     73     89   5     0.00000     0.00000     1.25520  0.0
     72     73     74     75   5     4.74884    -0.63178     1.67360  0.0
     72     73     74     90   5     0.00000     0.00000     1.25520  0.0
     72     73     74     91   5     0.00000     0.00000     1.25520  0.0
     88     73     74     75   5     0.00000     0.00000     1.25520  0.0
     88     73     74     90   5     0.00000     0.00000     1.25520  0.0
     88     73     74     91   5     0.00000     0.00000     1.25520  0.0
     89     73     74     75   5     0.00000     0.00000     1.25520  0.0
     89     73     74     90   5     0.00000     0.00000     1.25520  0.0
     89     73     74     91   5     0.00000     0.00000     1.25520  0.0
     73     74     75     76   5     4.74884    -0.63178     1.67360  0.0
     73     74     75     92   5     0.00000     0.00000     1.25520  0.0
     73     74     75     93   5     0.00000     0.00000     1.25520  0.0
     90     74     75     76   5     0.00000     0.00000     1.25520  0.0
     90     74     75     92   5     0.00000     0.00000     1.25520  0.0
     90     74     75     93   5     0.00000     0.00000     1.25520  0.0
     91     74     75     76   5     0.00000     0.00000     1.25520  0.0
     91     74     75     92   5     0.00000     0.00000     1.25520  0.0
     91     74     75     93   5     0.00000     0.00000     1.25520  0.0
     74     75     76     77   5     4.74884    -0.63178     1.67360  0.0
     74     75     76     94   5     0.00000     0.00000     1.25520  0.0
     74     75     76     95   5     0.00000     0.00000     1.25520  0.0
     92     75     76     77   5     0.00000     0.00000     1.25520  0.0
     92     75     76     94   5     0.00000     0.00000     1.25520  0.0
     92     75     76     95   5     0.00000     0.00000     1.25520  0.0
     93     75     76     77   5     0.00000     0.00000     1.25520  0.0
     93     75     76     94   5     0.00000     0.00000     1.25520  0.0
     93     75     76     95   5     0.00000     0.00000     1.25520  0.0
     75     76     77     78   5     4.74884    -0.63178     1.67360  0.0
     75     76     77     96   5     0.00000     0.00000     1.25520  0.0
     75     76     77     97   5     0.00000     0.00000     1.25520  0.0
     94     76     77     78   5     0.00000     0.00000     1.25520  0.0
     94     76     77     96   5     0.00000     0.00000     1.25520  0.0
     94     76     77     97   5     0.00000     0.00000     1.25520  0.0
     95     76     77     78   5     0.00000     0.00000     1.25520  0.0
     95     76     77     96   5     0.00000     0.00000     1.25520  0.0
     95     76     77     97   5     0.00000     0.00000     1.25520  0.0
     76     77     78     79   5     4.74884    -0.63178     1.67360  0.0
     76     77     78     98   5     0.00000     0.00000     1.25520  0.0
     76     77     78     99   5     0.00000     0.00000     1.25520  0.0
     96     77     78     79   5     0.00000     0.00000     1.25520  0.0
     96     77     78     98   5     0.00000     0.00000     1.25520  0.0
     96     77     78     99   5     0.00000     0.00000     1.25520  0.0
     97     77     78     79   5     0.00000     0.00000     1.25520  0.0
     97     77     78     98   5     0.00000     0.00000     1.25520  0.0
     97     77     78     99   5     0.00000     0.00000     1.25520  0.0
     77     78     79     80   5     4.74884    -0.63178     1.67360  0.0
     77     78     79    100   5     0.00000     0.00000     1.25520  0.0
     77     78     79    101   5     0.00000     0.00000     1.25520  0.0
     98     78     79     80   5     0.00000     0.00000     1.25520  0.0
     98     78     79    100   5     0.00000     0.00000     1.25520  0.0
     98     78     79    101   5     0.00000     0.00000     1.25520  0.0
     99     78     79     80   5     0.00000     0.00000     1.25520  0.0
     99     78     79    100   5     0.00000     0.00000     1.25520  0.0
     99     78     79    101   5     0.00000     0.00000     1.25520  0.0
     78     79     80     81   5    -8.00818    -1.52298     2.46438  0.0
     78     79     80    102   5     0.00000     0.00000     1.25520  0.0
     78     79     80    103   5     0.00000     0.00000     1.25520  0.0
    100     79     80     81   5     0.00000     0.00000    -0.94140  0.0
    100     79     80    102   5     0.00000     0.00000     1.25520  0.0
    100     79     80    103   5     0.00000     0.00000     1.25520  0.0
    101     79     80     81   5     0.00000     0.00000    -0.94140  0.0
    101     79     80    102   5     0.00000     0.00000     1.25520  0.0
    101     79     80    103   5     0.00000     0.00000     1.25520  0.0
     79     80     81     82   5     0.00000     2.52295     0.00000  0.0
     79     80     81    104   5    11.69428    -0.66526    -1.56900  0.0
    102     80     81     82   5     0.00000     0.00000     0.00000  0.0
    102     80     81    104   5     0.00000     0.00000     0.00000  0.0
    103     80     81     82   5     0.00000     0.00000     0.00000  0.0
    103     80     81    104   5     0.00000     0.00000     0.00000  0.0
     80     81    104    105   5    12.53945    12.88254     0.00000  0.0
     80     81    104    117   5     0.00000    20.50160     0.00000  0.0
     82     81    104    105   5     0.00000    25.47638     0.00000  0.0
     82     81    104    117   5     0.00000    20.50160     0.00000  0.0
     81    104    105    106   5    -3.67774    -0.67781     0.28033  0.0
     81    104    105    118   5     0.00000     0.00000     0.00000  0.0
     81    104    105    119   5     0.00000     0.00000     0.00000  0.0
    117    104    105    106   5     0.00000     0.00000     0.00000  0.0
    117    104    105    118   5     0.00000     0.00000     0.00000  0.0
    117    104    105    119   5     0.00000     0.00000     0.00000  0.0
    104    105    106    107   5     3.67355     4.10869     2.37651  0.0
    104    105    106    120   5     0.00000     0.00000     1.25520  0.0
    104    105    106    121   5     0.00000     0.00000     1.25520  0.0
    118    105    106    107   5     0.00000     0.00000     1.25520  0.0
    118    105    106    120   5     0.00000     0.00000     1.25520  0.0
    118    105    106    121   5     0.00000     0.00000     1.25520  0.0
    119    105    106    107   5     0.00000     0.00000     1.25520  0.0
    119    105    106    120   5     0.00000     0.00000     1.25520  0.0
    119    105    106    121   5     0.00000     0.00000     1.25520  0.0
    105    106    107    108   5     4.74884    -0.63178     1.67360  0.0
    105    106    107    122   5     0.00000     0.00000     1.25520  0.0
    105    106    107    123   5     0.00000     0.00000     1.25520  0.0
    120    106    107    108   5     0.00000     0.00000     1.25520  0.0
    120    106    107    122   5     0.00000     0.00000     1.25520  0.0
    120    106    107    123   5     0.00000     0.00000     1.25520  0.0
    121    106    107    108   5     0.00000     0.00000     1.25520  0.0
    121    106    107    122   5     0.00000     0.00000     1.25520  0.0
    121    106    107    123   5     0.00000     0.00000     1.25520  0.0
    106    107    108    109   5     4.74884    -0.63178     1.67360  0.0
    106    107    108    124   5     0.00000     0.00000     1.25520  0.0
    106    107    108    125   5     0.00000     0.00000     1.25520  0.0
    122    107    108    109   5     0.00000     0.00000     1.25520  0.0
    122    107    108    124   5     0.00000     0.00000     1.25520  0.0
    122    107    108    125   5     0.00000     0.00000     1.25520  0.0
    123    107    108    109   5     0.00000     0.00000     1.25520  0.0
    123    107    108    124   5     0.00000     0.00000     1.25520  0.0
    123    107    108    125   5     0.00000     0.00000     1.25520  0.0
    107    108    109    110   5     4.74884    -0.63178     1.67360  0.0
    107    108    109    126   5     0.00000     0.00000     1.25520  0.0
    107    108    109    127   5     0.00000     0.00000     1.25520  0.0
    124    108    109    110   5     0.00000     0.00000     1.25520  0.0
    124    108    109    126   5     0.00000     0.00000     1.25520  0.0
    124    108    109    127   5     0.00000     0.00000     1.25520  0.0
    125    108    109    110   5     0.00000     0.00000     1.25520  0.0
    125    108    109    126   5     0.00000     0.00000     1.25520  0.0
    125    108    109    127   5     0.00000     0.00000     1.25520  0.0
    108    109    110    111   5     4.74884    -0.63178     1.67360  0.0
    108    109    110    128   5     0.00000     0.00000     1.25520  0.0
    108    109    110    129   5     0.00000     0.00000     1.25520  0.0
    126    109    110    111   5     0.00000     0.00000     1.25520  0.0
    126    109    110    128   5     0.00000     0.00000     1.25520  0.0
    126    109    110    129   5     0.00000     0.00000     1.25520  0.0
    127    109    110    111   5     0.00000     0.00000     1.25520  0.0
    127    109    110    128   5     0.00000     0.00000     1.25520  0.0
    127    109    110    129   5     0.00000     0.00000     1.25520  0.0
    109    110    111    112   5     4.74884    -0.63178     1.67360  0.0
    109    110    111    130   5     0.00000     0.00000     1.25520  0.0
    109    110    111    131   5     0.00000     0.00000     1.25520  0.0
    128    110    111    112   5     0.00000     0.00000     1.25520  0.0
    128    110    111    130   5     0.00000     0.00000     1.25520  0.0
    128    110    111    131   5     0.00000     0.00000     1.25520  0.0
    129    110    111    112   5     0.00000     0.00000     1.25520  0.0
    129    110    111    130   5     0.00000     0.00000     1.25520  0.0
    129    110    111    131   5     0.00000     0.00000     1.25520  0.0
    110    111    112    113   5     4.74884    -0.63178     1.67360  0.0
    110    111    112    132   5     0.00000     0.00000     1.25520  0.0
    110    111    112    133   5     0.00000     0.00000     1.25520  0.0
    130    111    112    113   5     0.00000     0.00000     1.25520  0.0
    130    111    112    132   5     0.00000     0.00000     1.25520  0.0
    130    111    112    133   5     0.00000     0.00000     1.25520  0.0
    131    111    112    113   5     0.00000     0.00000     1.25520  0.0
    131    111    112    132   5     0.00000     0.00000     1.25520  0.0
    131    111    112    133   5     0.00000     0.00000     1.25520  0.0
    111    112    113    114   5     4.74884    -0.63178     1.67360  0.0
    111    112    113    134   5     0.00000     0.00000     1.25520  0.0
    111    112    113    135   5     0.00000     0.00000     1.25520  0.0
    132    112    113    114   5     0.00000     0.00000     1.25520  0.0
    132    112    113    134   5     0.00000     0.00000     1.25520  0.0
    132    112    113    135   5     0.00000     0.00000     1.25520  0.0
    133    112    113    114   5     0.00000     0.00000     1.25520  0.0
    133    112    113    134   5     0.00000     0.00000     1.25520  0.0
    133    112    113    135   5     0.00000     0.00000     1.25520  0.0
    112    113    114    115   5    -8.00818    -1.52298     2.46438  0.0
    112    113    114    136   5     0.00000     0.00000     1.25520  0.0
    112    113    114    137   5     0.00000     0.00000     1.25520  0.0
    134    113    114    115   5     0.00000     0.00000    -0.94140  0.0
    134    113    114    136   5     0.00000     0.00000     1.25520  0.0
    134    113    114    137   5     0.00000     0.00000     1.25520  0.0
    135    113    114    115   5     0.00000     0.00000    -0.94140  0.0
    135    113    114    136   5     0.00000     0.00000     1.25520  0.0
    135    113    114    137   5     0.00000     0.00000     1.25520  0.0
    113    114    115    116   5     0.00000     2.52295     0.00000  0.0
    113    114    115    138   5    11.69428    -0.66526    -1.56900  0.0
    136    114    115    116   5     0.00000     0.00000     0.00000  0.0
    136    114    115    138   5     0.00000     0.00000     0.00000  0.0
    137    114    115    116   5     0.00000     0.00000     0.00000  0.0
    137    114    115    138   5     0.00000     0.00000     0.00000  0.0
    114    115    138    139   5    12.53945    12.88254     0.00000  0.0
    114    115    138    151   5     0.00000    20.50160     0.00000  0.0
    116    115    138    139   5     0.00000    25.47638     0.00000  0.0
    116    115    138    151   5     0.00000    20.50160     0.00000  0.0
    115    138    139    140   5    -3.67774    -0.67781     0.28033  0.0
    115    138    139    152   5     0.00000     0.00000     0.00000  0.0
    115    138    139    153   5     0.00000     0.00000     0.00000  0.0
    151    138    139    140   5     0.00000     0.00000     0.00000  0.0
    151    138    139    152   5     0.00000     0.00000     0.00000  0.0
    151    138    139    153   5     0.00000     0.00000     0.00000  0.0
    138    139    140    141   5     3.67355     4.10869     2.37651  0.0
    138    139    140    154   5     0.00000     0.00000     1.25520  0.0
    138    139    140    155   5     0.00000     0.00000     1.25520  0.0
    152    139    140    141   5     0.00000     0.00000     1.25520  0.0
    152    139    140    154   5     0.00000     0.00000     1.25520  0.0
    152    139    140    155   5     0.00000     0.00000     1.25520  0.0
    153    139    140    141   5     0.00000     0.00000     1.25520  0.0
    153    139    140    154   5     0.00000     0.00000     1.25520  0.0
    153    139    140    155   5     0.00000     0.00000     1.25520  0.0
    139    140    141    142   5     4.74884    -0.63178     1.67360  0.0
    139    140    141    156   5     0.00000     0.00000     1.25520  0.0
    139    140    141    157   5     0.00000     0.00000     1.25520  0.0
    154    140    141    142   5     0.00000     0.00000     1.25520  0.0
    154    140    141    156   5     0.00000     0.00000     1.25520  0.0
    154    140    141    157   5     0.00000     0.00000     1.25520  0.0
    155    140    141    142   5     0.00000     0.00000     1.25520  0.0
    155    140    141    156   5     0.00000     0.00000     1.25520  0.0
    155    140    141    157   5     0.00000     0.00000     1.25520  0.0
    140    141    142    143   5     4.74884    -0.63178     1.67360  0.0
    140    141    142    158   5     0.00000     0.00000     1.25520  0.0
    140    141    142    159   5     0.00000     0.00000     1.25520  0.0
    156    141    142    143   5     0.00000     0.00000     1.25520  0.0
    156    141    142    158   5     0.00000     0.00000     1.25520  0.0
    156    141    142    159   5     0.00000     0.00000     1.25520  0.0
    157    141    142    143   5     0.00000     0.00000     1.25520  0.0
    157    141    142    158   5     0.00000     0.00000     1.25520  0.0
    157    141    142    159   5     0.00000     0.00000     1.25520  0.0
    141    142    143    144   5     4.74884    -0.63178     1.67360  0.0
    141    142    143    160   5     0.00000     0.00000     1.25520  0.0
    141    142    143    161   5     0.00000     0.00000     1.25520  0.0
    158    142    143    144   5     0.00000     0.00000     1.25520  0.0
    158    142    143    160   5     0.00000     0.00000     1.25520  0.0
    158    142    143    161   5     0.00000     0.00000     1.25520  0.0
    159    142    143    144   5     0.00000     0.00000     1.25520  0.0
    159    142    143    160   5     0.00000     0.00000     1.25520  0.0
    159    142    143    161   5     0.00000     0.00000     1.25520  0.0
    142    143    144    145   5     4.74884    -0.63178     1.67360  0.0
    142    143    144    162   5     0.00000     0.00000     1.25520  0.0
    142    143    144    163   5     0.00000     0.00000     1.25520  0.0
    160    143    144    145   5     0.00000     0.00000     1.25520  0.0
    160    143    144    162   5     0.00000     0.00000     1.25520  0.0
    160    143    144    163   5     0.00000     0.00000     1.25520  0.0
    161    143    144    145   5     0.00000     0.00000     1.25520  0.0
    161    143    144    162   5     0.00000     0.00000     1.25520  0.0
    161    143    144    163   5     0.00000     0.00000     1.25520  0.0
    143    144    145    146   5     4.74884    -0.63178     1.67360  0.0
    143    144    145    164   5     0.00000     0.00000     1.25520  0.0
    143    144    145    165   5     0.00000     0.00000     1.25520  0.0
    162    144    145    146   5     0.00000     0.00000     1.25520  0.0
    162    144    145    164   5     0.00000     0.00000     1.25520  0.0
    162    144    145    165   5     0.00000     0.00000     1.25520  0.0
    163    144    145    146   5     0.00000     0.00000     1.25520  0.0
    163    144    145    164   5     0.00000     0.00000     1.25520  0.0
    163    144    145    165   5     0.00000     0.00000     1.25520  0.0
    144    145    146    147   5     4.74884    -0.63178     1.67360  0.0
    144    145    146    166   5     0.00000     0.00000     1.25520  0.0
    144    145    146    167   5     0.00000     0.00000     1.25520  0.0
    164    145    146    147   5     0.00000     0.00000     1.25520  0.0
    164    145    146    166   5     0.00000     0.00000     1.25520  0.0
    164    145    146    167   5     0.00000     0.00000     1.25520  0.0
    165    145    146    147   5     0.00000     0.00000     1.25520  0.0
    165    145    146    166   5     0.00000     0.00000     1.25520  0.0
    165    145    146    167   5     0.00000     0.00000     1.25520  0.0
    145    146    147    148   5     4.74884    -0.63178     1.67360  0.0
    145    146    147    168   5     0.00000     0.00000     1.25520  0.0
    145    146    147    169   5     0.00000     0.00000     1.25520  0.0
    166    146    147    148   5     0.00000     0.00000     1.25520  0.0
    166    146    147    168   5     0.00000     0.00000     1.25520  0.0
    166    146    147    169   5     0.00000     0.00000     1.25520  0.0
    167    146    147    148   5     0.00000     0.00000     1.25520  0.0
    167    146    147    168   5     0.00000     0.00000     1.25520  0.0
    167    146    147    169   5     0.00000     0.00000     1.25520  0.0
    146    147    148    149   5    -8.00818    -1.52298     2.46438  0.0
    146    147    148    170   5     0.00000     0.00000     1.25520  0.0
    146    147    148    171   5     0.00000     0.00000     1.25520  0.0
    168    147    148    149   5     0.00000     0.00000    -0.94140  0.0
    168    147    148    170   5     0.00000     0.00000     1.25520  0.0
    168    147    148    171   5     0.00000     0.00000     1.25520  0.0
    169    147    148    149   5     0.00000     0.00000    -0.94140  0.0
    169    147    148    170   5     0.00000     0.00000     1.25520  0.0
    169    147    148    171   5     0.00000     0.00000     1.25520  0.0
    147    148    149    150   5     0.00000     2.52295     0.00000  0.0
    147    148    149    172   5    11.69428    -0.66526    -1.56900  0.0
    170    148    149    150   5     0.00000     0.00000     0.00000  0.0
    170    148    149    172   5     0.00000     0.00000     0.00000  0.0
    171    148    149    150   5     0.00000     0.00000     0.00000  0.0
    171    148    149    172   5     0.00000     0.00000     0.00000  0.0
    148    149    172    173   5    12.53945    12.88254     0.00000  0.0
    148    149    172    185   5     0.00000    20.50160     0.00000  0.0
    150    149    172    173   5     0.00000    25.47638     0.00000  0.0
    150    149    172    185   5     0.00000    20.50160     0.00000  0.0
    149    172    173    174   5    -3.67774    -0.67781     0.28033  0.0
    149    172    173    186   5     0.00000     0.00000     0.00000  0.0
    149    172    173    187   5     0.00000     0.00000     0.00000  0.0
    185    172    173    174   5     0.00000     0.00000     0.00000  0.0
    185    172    173    186   5     0.00000     0.00000     0.00000  0.0
    185    172    173    187   5     0.00000     0.00000     0.00000  0.0
    172    173    174    175   5     3.67355     4.10869     2.37651  0.0
    172    173    174    188   5     0.00000     0.00000     1.25520  0.0
    172    173    174    189   5     0.00000     0.00000     1.25520  0.0
    186    173    174    175   5     0.00000     0.00000     1.25520  0.0
    186    173    174    188   5     0.00000     0.00000     1.25520  0.0
    186    173    174    189   5     0.00000     0.00000     1.25520  0.0
    187    173    174    175   5     0.00000     0.00000     1.25520  0.0
    187    173    174    188   5     0.00000     0.00000     1.25520  0.0
    187    173    174    189   5     0.00000     0.00000     1.25520  0.0
    173    174    175    176   5     4.74884    -0.63178     1.67360  0.0
    173    174    175    190   5     0.00000     0.00000     1.25520  0.0
    173    174    175    191   5     0.00000     0.00000     1.25520  0.0
    188    174    175    176   5     0.00000     0.00000     1.25520  0.0
    188    174    175    190   5     0.00000     0.00000     1.25520  0.0
    188    174    175    191   5     0.00000     0.00000     1.25520  0.0
    189    174    175    176   5     0.00000     0.00000     1.25520  0.0
    189    174    175    190   5     0.00000     0.00000     1.25520  0.0
    189    174    175    191   5     0.00000     0.00000     1.25520  0.0
    174    175    176    177   5     4.74884    -0.63178     1.67360  0.0
    174    175    176    192   5     0.00000     0.00000     1.25520  0.0
    174    175    176    193   5     0.00000     0.00000     1.25520  0.0
    190    175    176    177   5     0.00000     0.00000     1.25520  0.0
    190    175    176    192   5     0.00000     0.00000     1.25520  0.0
    190    175    176    193   5     0.00000     0.00000     1.25520  0.0
    191    175    176    177   5     0.00000     0.00000     1.25520  0.0
    191    175    176    192   5     0.00000     0.00000     1.25520  0.0
    191    175    176    193   5     0.00000     0.00000     1.25520  0.0
    175    176    177    178   5     4.74884    -0.63178     1.67360  0.0
    175    176    177    194   5     0.00000     0.00000     1.25520  0.0
    175    176    177    195   5     0.00000     0.00000     1.25520  0.0
    192    176    177    178   5     0.00000     0.00000     1.25520  0.0
    192    176    177    194   5     0.00000     0.00000     1.25520  0.0
    192    176    177    195   5     0.00000     0.00000     1.25520  0.0
    193    176    177    178   5     0.00000     0.00000     1.25520  0.0
    193    176    177    194   5     0.00000     0.00000     1.25520  0.0
    193    176    177    195   5     0.00000     0.00000     1.25520  0.0
    176    177    178    179   5     4.74884    -0.63178     1.67360  0.0
    176    177    178    196   5     0.00000     0.00000     1.25520  0.0
    176    177    178    197   5     0.00000     0.00000     1.25520  0.0
    194    177    178    179   5     0.00000     0.00000     1.25520  0.0
    194    177    178    196   5     0.00000     0.00000     1.25520  0.0
    194    177    178    197   5     0.00000     0.00000     1.25520  0.0
    195    177    178    179   5     0.00000     0.00000     1.25520  0.0
    195    177    178    196   5     0.00000     0.00000     1.25520  0.0
    195    177    178    197   5     0.00000     0.00000     1.25520  0.0
    177    178    179    180   5     4.74884    -0.63178     1.67360  0.0
    177    178    179    198   5     0.00000     0.00000     1.25520  0.0
    177    178    179    199   5     0.00000     0.00000     1.25520  0.0
    196    178    179    180   5     0.00000     0.00000     1.25520  0.0
    196    178    179    198   5     0.00000     0.00000     1.25520  0.0
    196    178    179    199   5     0.00000     0.00000     1.25520  0.0
    197    178    179    180   5     0.00000     0.00000     1.25520  0.0
    197    178    179    198   5     0.00000     0.00000     1.25520  0.0
    197    178    179    199   5     0.00000     0.00000     1.25520  0.0
    178    179    180    181   5     4.74884    -0.63178     1.67360  0.0
    178    179    180    200   5     0.00000     0.00000     1.25520  0.0
    178    179    180    201   5     0.00000     0.00000     1.25520  0.0
    198    179    180    181   5     0.00000     0.00000     1.25520  0.0
    198    179    180    200   5     0.00000     0.00000     1.25520  0.0
    198    179    180    201   5     0.00000     0.00000     1.25520  0.0
    199    179    180    181   5     0.00000     0.00000     1.25520  0.0
    199    179    180    200   5     0.00000     0.00000     1.25520  0.0
    199    179    180    201   5     0.00000     0.00000     1.25520  0.0
    179    180    181    182   5     4.74884    -0.63178     1.67360  0.0
    179    180    181    202   5     0.00000     0.00000     1.25520  0.0
    179    180    181    203   5     0.00000     0.00000     1.25520  0.0
    200    180    181    182   5     0.00000     0.00000     1.25520  0.0
    200    180    181    202   5     0.00000     0.00000     1.25520  0.0
    200    180    181    203   5     0.00000     0.00000     1.25520  0.0
    201    180    181    182   5     0.00000     0.00000     1.25520  0.0
    201    180    181    202   5     0.00000     0.00000     1.25520  0.0
    201    180    181    203   5     0.00000     0.00000     1.25520  0.0
    180    181    182    183   5    -8.00818    -1.52298     2.46438  0.0
    180    181    182    204   5     0.00000     0.00000     1.25520  0.0
    180    181    182    205   5     0.00000     0.00000     1.25520  0.0
    202    181    182    183   5     0.00000     0.00000    -0.94140  0.0
    202    181    182    204   5     0.00000     0.00000     1.25520  0.0
    202    181    182    205   5     0.00000     0.00000     1.25520  0.0
    203    181    182    183   5     0.00000     0.00000    -0.94140  0.0
    203    181    182    204   5     0.00000     0.00000     1.25520  0.0
    203    181    182    205   5     0.00000     0.00000     1.25520  0.0
    181    182    183    184   5     0.00000     2.52295     0.00000  0.0
    181    182    183    206   5    11.69428    -0.66526    -1.56900  0.0
    204    182    183    184   5     0.00000     0.00000     0.00000  0.0
    204    182    183    206   5     0.00000     0.00000     0.00000  0.0
    205    182    183    184   5     0.00000     0.00000     0.00000  0.0
    205    182    183    206   5     0.00000     0.00000     0.00000  0.0
    182    183    206    207   5    12.53945    12.88254     0.00000  0.0
    182    183    206    219   5     0.00000    20.50160     0.00000  0.0
    184    183    206    207   5     0.00000    25.47638     0.00000  0.0
    184    183    206    219   5     0.00000    20.50160     0.00000  0.0
    183    206    207    208   5    -3.67774    -0.67781     0.28033  0.0
    183    206    207    220   5     0.00000     0.00000     0.00000  0.0
    183    206    207    221   5     0.00000     0.00000     0.00000  0.0
    219    206    207    208   5     0.00000     0.00000     0.00000  0.0
    219    206    207    220   5     0.00000     0.00000     0.00000  0.0
    219    206    207    221   5     0.00000     0.00000     0.00000  0.0
    206    207    208    209   5     3.67355     4.10869     2.37651  0.0
    206    207    208    222   5     0.00000     0.00000     1.25520  0.0
    206    207    208    223   5     0.00000     0.00000     1.25520  0.0
    220    207    208    209   5     0.00000     0.00000     1.25520  0.0
    220    207    208    222   5     0.00000     0.00000     1.25520  0.0
    220    207    208    223   5     0.00000     0.00000     1.25520  0.0
    221    207    208    209   5     0.00000     0.00000     1.25520  0.0
    221    207    208    222   5     0.00000     0.00000     1.25520  0.0
    221    207    208    223   5     0.00000     0.00000     1.25520  0.0
    207    208    209    210   5     4.74884    -0.63178     1.67360  0.0
    207    208    209    224   5     0.00000     0.00000     1.25520  0.0
    207    208    209    225   5     0.00000     0.00000     1.25520  0.0
    222    208    209    210   5     0.00000     0.00000     1.25520  0.0
    222    208    209    224   5     0.00000     0.00000     1.25520  0.0
    222    208    209    225   5     0.00000     0.00000     1.25520  0.0
    223    208    209    210   5     0.00000     0.00000     1.25520  0.0
    223    208    209    224   5     0.00000     0.00000     1.25520  0.0
    223    208    209    225   5     0.00000     0.00000     1.25520  0.0
    208    209    210    211   5     4.74884    -0.63178     1.67360  0.0
    208    209    210    226   5     0.00000     0.00000     1.25520  0.0
    208    209    210    227   5     0.00000     0.00000     1.25520  0.0
    224    209    210    211   5     0.00000     0.00000     1.25520  0.0
    224    209    210    226   5     0.00000     0.00000     1.25520  0.0
    224    209    210    227   5     0.00000     0.00000     1.25520  0.0
    225    209    210    211   5     0.00000     0.00000     1.25520  0.0
    225    209    210    226   5     0.00000     0.00000     1.25520  0.0
    225    209    210    227   5     0.00000     0.00000     1.25520  0.0
    209    210    211    212   5     4.74884    -0.63178     1.67360  0.0
    209    210    211    228   5     0.00000     0.00000     1.25520  0.0
    209    210    211    229   5     0.00000     0.00000     1.25520  0.0
    226    210    211    212   5     0.00000     0.00000     1.25520  0.0
    226    210    211    228   5     0.00000     0.00000     1.25520  0.0
    226    210    211    229   5     0.00000     0.00000     1.25520  0.0
    227    210    211    212   5     0.00000     0.00000     1.25520  0.0
    227    210    211    228   5     0.00000     0.00000     1.25520  0.0
    227    210    211    229   5     0.00000     0.00000     1.25520  0.0
    210    211    212    213   5     4.74884    -0.63178     1.67360  0.0
    210    211    212    230   5     0.00000     0.00000     1.25520  0.0
    210    211    212    231   5     0.00000     0.00000     1.25520  0.0
    228    211    212    213   5     0.00000     0.00000     1.25520  0.0
    228    211    212    230   5     0.00000     0.00000     1.25520  0.0
    228    211    212    231   5     0.00000     0.00000     1.25520  0.0
    229    211    212    213   5     0.00000     0.00000     1.25520  0.0
    229    211    212    230   5     0.00000     0.00000     1.25520  0.0
    229    211    212    231   5     0.00000     0.00000     1.25520  0.0
    211    212    213    214   5     4.74884    -0.63178     1.67360  0.0
    211    212    213    232   5     0.00000     0.00000     1.25520  0.0
    211    212    213    233   5     0.00000     0.00000     1.25520  0.0
    230    212    213    214   5     0.00000     0.00000     1.25520  0.0
    230    212    213    232   5     0.00000     0.00000     1.25520  0.0
    230    212    213    233   5     0.00000     0.00000     1.25520  0.0
    231    212    213    214   5     0.00000     0.00000     1.25520  0.0
    231    212    213    232   5     0.00000     0.00000     1.25520  0.0
    231    212    213    233   5     0.00000     0.00000     1.25520  0.0
    212    213    214    215   5     4.74884    -0.63178     1.67360  0.0
    212    213    214    234   5     0.00000     0.00000     1.25520  0.0
    212    213    214    235   5     0.00000     0.00000     1.25520  0.0
    232    213    214    215   5     0.00000     0.00000     1.25520  0.0
    232    213    214    234   5     0.00000     0.00000     1.25520  0.0
    232    213    214    235   5     0.00000     0.00000     1.25520  0.0
    233    213    214    215   5     0.00000     0.00000     1.25520  0.0
    233    213    214    234   5     0.00000     0.00000     1.25520  0.0
    233    213    214    235   5     0.00000     0.00000     1.25520  0.0
    213    214    215    216   5     4.74884    -0.63178     1.67360  0.0
    213    214    215    236   5     0.00000     0.00000     1.25520  0.0
    213    214    215    237   5     0.00000     0.00000     1.25520  0.0
    234    214    215    216   5     0.00000     0.00000     1.25520  0.0
    234    214    215    236   5     0.00000     0.00000     1.25520  0.0
    234    214    215    237   5     0.00000     0.00000     1.25520  0.0
    235    214    215    216   5     0.00000     0.00000     1.25520  0.0
    235    214    215    236   5     0.00000     0.00000     1.25520  0.0
    235    214    215    237   5     0.00000     0.00000     1.25520  0.0
    214    215    216    217   5    -8.00818    -1.52298     2.46438  0.0
    214    215    216    238   5     0.00000     0.00000     1.25520  0.0
    214    215    216    239   5     0.00000     0.00000     1.25520  0.0
    236    215    216    217   5     0.00000     0.00000    -0.94140  0.0
    236    215    216    238   5     0.00000     0.00000     1.25520  0.0
    236    215    216    239   5     0.00000     0.00000     1.25520  0.0
    237    215    216    217   5     0.00000     0.00000    -0.94140  0.0
    237    215    216    238   5     0.00000     0.00000     1.25520  0.0
    237    215    216    239   5     0.00000     0.00000     1.25520  0.0
    215    216    217    218   5     0.00000     2.52295     0.00000  0.0
    215    216    217    240   5    11.69428    -0.66526    -1.56900  0.0
    238    216    217    218   5     0.00000     0.00000     0.00000  0.0
    238    216    217    240   5     0.00000     0.00000     0.00000  0.0
    239    216    217    218   5     0.00000     0.00000     0.00000  0.0
    239    216    217    240   5     0.00000     0.00000     0.00000  0.0
    216    217    240    241   5    12.53945    12.88254     0.00000  0.0
    216    217    240    253   5     0.00000    20.50160     0.00000  0.0
    218    217    240    241   5     0.00000    25.47638     0.00000  0.0
    218    217    240    253   5     0.00000    20.50160     0.00000  0.0
    217    240    241    242   5    -3.67774    -0.67781     0.28033  0.0
    217    240    241    254   5     0.00000     0.00000     0.00000  0.0
    217    240    241    255   5     0.00000     0.00000     0.00000  0.0
    253    240    241    242   5     0.00000     0.00000     0.00000  0.0
    253    240    241    254   5     0.00000     0.00000     0.00000  0.0
    253    240    241    255   5     0.00000     0.00000     0.00000  0.0
    240    241    242    243   5     3.67355     4.10869     2.37651  0.0
    240    241    242    256   5     0.00000     0.00000     1.25520  0.0
    240    241    242    257   5     0.00000     0.00000     1.25520  0.0
    254    241    242    243   5     0.00000     0.00000     1.25520  0.0
    254    241    242    256   5     0.00000     0.00000     1.25520  0.0
    254    241    242    257   5     0.00000     0.00000     1.25520  0.0
    255    241    242    243   5     0.00000     0.00000     1.25520  0.0
    255    241    242    256   5     0.00000     0.00000     1.25520  0.0
    255    241    242    257   5     0.00000     0.00000     1.25520  0.0
    241    242    243    244   5     4.74884    -0.63178     1.67360  0.0
    241    242    243    258   5     0.00000     0.00000     1.25520  0.0
    241    242    243    259   5     0.00000     0.00000     1.25520  0.0
    256    242    243    244   5     0.00000     0.00000     1.25520  0.0
    256    242    243    258   5     0.00000     0.00000     1.25520  0.0
    256    242    243    259   5     0.00000     0.00000     1.25520  0.0
    257    242    243    244   5     0.00000     0.00000     1.25520  0.0
    257    242    243    258   5     0.00000     0.00000     1.25520  0.0
    257    242    243    259   5     0.00000     0.00000     1.25520  0.0
    242    243    244    245   5     4.74884    -0.63178     1.67360  0.0
    242    243    244    260   5     0.00000     0.00000     1.25520  0.0
    242    243    244    261   5     0.00000     0.00000     1.25520  0.0
    258    243    244    245   5     0.00000     0.00000     1.25520  0.0
    258    243    244    260   5     0.00000     0.00000     1.25520  0.0
    258    243    244    261   5     0.00000     0.00000     1.25520  0.0
    259    243    244    245   5     0.00000     0.00000     1.25520  0.0
    259    243    244    260   5     0.00000     0.00000     1.25520  0.0
    259    243    244    261   5     0.00000     0.00000     1.25520  0.0
    243    244    245    246   5     4.74884    -0.63178     1.67360  0.0
    243    244    245    262   5     0.00000     0.00000     1.25520  0.0
    243    244    245    263   5     0.00000     0.00000     1.25520  0.0
    260    244    245    246   5     0.00000     0.00000     1.25520  0.0
    260    244    245    262   5     0.00000     0.00000     1.25520  0.0
    260    244    245    263   5     0.00000     0.00000     1.25520  0.0
    261    244    245    246   5     0.00000     0.00000     1.25520  0.0
    261    244    245    262   5     0.00000     0.00000     1.25520  0.0
    261    244    245    263   5     0.00000     0.00000     1.25520  0.0
    244    245    246    247   5     4.74884    -0.63178     1.67360  0.0
    244    245    246    264   5     0.00000     0.00000     1.25520  0.0
    244    245    246    265   5     0.00000     0.00000     1.25520  0.0
    262    245    246    247   5     0.00000     0.00000     1.25520  0.0
    262    245    246    264   5     0.00000     0.00000     1.25520  0.0
    262    245    246    265   5     0.00000     0.00000     1.25520  0.0
    263    245    246    247   5     0.00000     0.00000     1.25520  0.0
    263    245    246    264   5     0.00000     0.00000     1.25520  0.0
    263    245    246    265   5     0.00000     0.00000     1.25520  0.0
    245    246    247    248   5     4.74884    -0.63178     1.67360  0.0
    245    246    247    266   5     0.00000     0.00000     1.25520  0.0
    245    246    247    267   5     0.00000     0.00000     1.25520  0.0
    264    246    247    248   5     0.00000     0.00000     1.25520  0.0
    264    246    247    266   5     0.00000     0.00000     1.25520  0.0
    264    246    247    267   5     0.00000     0.00000     1.25520  0.0
    265    246    247    248   5     0.00000     0.00000     1.25520  0.0
    265    246    247    266   5     0.00000     0.00000     1.25520  0.0
    265    246    247    267   5     0.00000     0.00000     1.25520  0.0
    246    247    248    249   5     4.74884    -0.63178     1.67360  0.0
    246    247    248    268   5     0.00000     0.00000     1.25520  0.0
    246    247    248    269   5     0.00000     0.00000     1.25520  0.0
    266    247    248    249   5     0.00000     0.00000     1.25520  0.0
    266    247    248    268   5     0.00000     0.00000     1.25520  0.0
    266    247    248    269   5     0.00000     0.00000     1.25520  0.0
    267    247    248    249   5     0.00000     0.00000     1.25520  0.0
    267    247    248    268   5     0.00000     0.00000     1.25520  0.0
    267    247    248    269   5     0.00000     0.00000     1.25520  0.0
    247    248    249    250   5     4.74884    -0.63178     1.67360  0.0
    247    248    249    270   5     0.00000     0.00000     1.25520  0.0
    247    248    249    271   5     0.00000     0.00000     1.25520  0.0
    268    248    249    250   5     0.00000     0.00000     1.25520  0.0
    268    248    249    270   5     0.00000     0.00000     1.25520  0.0
    268    248    249    271   5     0.00000     0.00000     1.25520  0.0
    269    248    249    250   5     0.00000     0.00000     1.25520  0.0
    269    248    249    270   5     0.00000     0.00000     1.25520  0.0
    269    248    249    271   5     0.00000     0.00000     1.25520  0.0
    248    249    250    251   5    -8.00818    -1.52298     2.46438  0.0
    248    249    250    272   5     0.00000     0.00000     1.25520  0.0
    248    249    250    273   5     0.00000     0.00000     1.25520  0.0
    270    249    250    251   5     0.00000     0.00000    -0.94140  0.0
    270    249    250    272   5     0.00000     0.00000     1.25520  0.0
    270    249    250    273   5     0.00000     0.00000     1.25520  0.0
    271    249    250    251   5     0.00000     0.00000    -0.94140  0.0
    271    249    250    272   5     0.00000     0.00000     1.25520  0.0
    271    249    250    273   5     0.00000     0.00000     1.25520  0.0
    249    250    251    252   5     0.00000     2.52295     0.00000  0.0
    249    250    251    274   5    11.69428    -0.66526    -1.56900  0.0
    272    250    251    252   5     0.00000     0.00000     0.00000  0.0
    272    250    251    274   5     0.00000     0.00000     0.00000  0.0
    273    250    251    252   5     0.00000     0.00000     0.00000  0.0
    273    250    251    274   5     0.00000     0.00000     0.00000  0.0
    250    251    274    275   5    12.53945    12.88254     0.00000  0.0
    250    251    274    287   5     0.00000    20.50160     0.00000  0.0
    252    251    274    275   5     0.00000    25.47638     0.00000  0.0
    252    251    274    287   5     0.00000    20.50160     0.00000  0.0
    251    274    275    276   5    -3.67774    -0.67781     0.28033  0.0
    251    274    275    288   5     0.00000     0.00000     0.00000  0.0
    251    274    275    289   5     0.00000     0.00000     0.00000  0.0
    287    274    275    276   5     0.00000     0.00000     0.00000  0.0
    287    274    275    288   5     0.00000     0.00000     0.00000  0.0
    287    274    275    289   5     0.00000     0.00000     0.00000  0.0
    274    275    276    277   5     3.67355     4.10869     2.37651  0.0
    274    275    276    290   5     0.00000     0.00000     1.25520  0.0
    274    275    276    291   5     0.00000     0.00000     1.25520  0.0
    288    275    276    277   5     0.00000     0.00000     1.25520  0.0
    288    275    276    290   5     0.00000     0.00000     1.25520  0.0
    288    275    276    291   5     0.00000     0.00000     1.25520  0.0
    289    275    276    277   5     0.00000     0.00000     1.25520  0.0
    289    275    276    290   5     0.00000     0.00000     1.25520  0.0
    289    275    276    291   5     0.00000     0.00000     1.25520  0.0
    275    276    277    278   5     4.74884    -0.63178     1.67360  0.0
    275    276    277    292   5     0.00000     0.00000     1.25520  0.0
    275    276    277    293   5     0.00000     0.00000     1.25520  0.0
    290    276    277    278   5     0.00000     0.00000     1.25520  0.0
    290    276    277    292   5     0.00000     0.00000     1.25520  0.0
    290    276    277    293   5     0.00000     0.00000     1.25520  0.0
    291    276    277    278   5     0.00000     0.00000     1.25520  0.0
    291    276    277    292   5     0.00000     0.00000     1.25520  0.0
    291    276    277    293   5     0.00000     0.00000     1.25520  0.0
    276    277    278    279   5     4.74884    -0.63178     1.67360  0.0
    276    277    278    294   5     0.00000     0.00000     1.25520  0.0
    276    277    278    295   5     0.00000     0.00000     1.25520  0.0
    292    277    278    279   5     0.00000     0.00000     1.25520  0.0
    292    277    278    294   5     0.00000     0.00000     1.25520  0.0
    292    277    278    295   5     0.00000     0.00000     1.25520  0.0
    293    277    278    279   5     0.00000     0.00000     1.25520  0.0
    293    277    278    294   5     0.00000     0.00000     1.25520  0.0
    293    277    278    295   5     0.00000     0.00000     1.25520  0.0
    277    278    279    280   5     4.74884    -0.63178     1.67360  0.0
    277    278    279    296   5     0.00000     0.00000     1.25520  0.0
    277    278    279    297   5     0.00000     0.00000     1.25520  0.0
    294    278    279    280   5     0.00000     0.00000     1.25520  0.0
    294    278    279    296   5     0.00000     0.00000     1.25520  0.0
    294    278    279    297   5     0.00000     0.00000     1.25520  0.0
    295    278    279    280   5     0.00000     0.00000     1.25520  0.0
    295    278    279    296   5     0.00000     0.00000     1.25520  0.0
    295    278    279    297   5     0.00000     0.00000     1.25520  0.0
    278    279    280    281   5     4.74884    -0.63178     1.67360  0.0
    278    279    280    298   5     0.00000     0.00000     1.25520  0.0
    278    279    280    299   5     0.00000     0.00000     1.25520  0.0
    296    279    280    281   5     0.00000     0.00000     1.25520  0.0
    296    279    280    298   5     0.00000     0.00000     1.25520  0.0
    296    279    280    299   5     0.00000     0.00000     1.25520  0.0
    297    279    280    281   5     0.00000     0.00000     1.25520  0.0
    297    279    280    298   5     0.00000     0.00000     1.25520  0.0
    297    279    280    299   5     0.00000     0.00000     1.25520  0.0
    279    280    281    282   5     4.74884    -0.63178     1.67360  0.0
    279    280    281    300   5     0.00000     0.00000     1.25520  0.0
    279    280    281    301   5     0.00000     0.00000     1.25520  0.0
    298    280    281    282   5     0.00000     0.00000     1.25520  0.0
    298    280    281    300   5     0.00000     0.00000     1.25520  0.0
    298    280    281    301   5     0.00000     0.00000     1.25520  0.0
    299    280    281    282   5     0.00000     0.00000     1.25520  0.0
    299    280    281    300   5     0.00000     0.00000     1.25520  0.0
    299    280    281    301   5     0.00000     0.00000     1.25520  0.0
    280    281    282    283   5     4.74884    -0.63178     1.67360  0.0
    280    281    282    302   5     0.00000     0.00000     1.25520  0.0
    280    281    282    303   5     0.00000     0.00000     1.25520  0.0
    300    281    282    283   5     0.00000     0.00000     1.25520  0.0
    300    281    282    302   5     0.00000     0.00000     1.25520  0.0
    300    281    282    303   5     0.00000     0.00000     1.25520  0.0
    301    281    282    283   5     0.00000     0.00000     1.25520  0.0
    301    281    282    302   5     0.00000     0.00000     1.25520  0.0
    301    281    282    303   5     0.00000     0.00000     1.25520  0.0
    281    282    283    284   5     4.74884    -0.63178     1.67360  0.0
    281    282    283    304   5     0.00000     0.00000     1.25520  0.0
    281    282    283    305   5     0.00000     0.00000     1.25520  0.0
    302    282    283    284   5     0.00000     0.00000     1.25520  0.0
    302    282    283    304   5     0.00000     0.00000     1.25520  0.0
    302    282    283    305   5     0.00000     0.00000     1.25520  0.0
    303    282    283    284   5     0.00000     0.00000     1.25520  0.0
    303    282    283    304   5     0.00000     0.00000     1.25520  0.0
    303    282    283    305   5     0.00000     0.00000     1.25520  0.0
    282    283    284    285   5    -8.00818    -1.52298     2.46438  0.0
    282    283    284    306   5     0.00000     0.00000     1.25520  0.0
    282    283    284    307   5     0.00000     0.00000     1.25520  0.0
    304    283    284    285   5     0.00000     0.00000    -0.94140  0.0
    304    283    284    306   5     0.00000     0.00000     1.25520  0.0
    304    283    284    307   5     0.00000     0.00000     1.25520  0.0
    305    283    284    285   5     0.00000     0.00000    -0.94140  0.0
    305    283    284    306   5     0.00000     0.00000     1.25520  0.0
    305    283    284    307   5     0.00000     0.00000     1.25520  0.0
    283    284    285    286   5     0.00000     2.52295     0.00000  0.0
    283    284    285    308   5    11.69428    -0.66526    -1.56900  0.0
    306    284    285    286   5     0.00000     0.00000     0.00000  0.0
    306    284    285    308   5     0.00000     0.00000     0.00000  0.0
    307    284    285    286   5     0.00000     0.00000     0.00000  0.0
    307    284    285    308   5     0.00000     0.00000     0.00000  0.0
    284    285    308    309   5    12.53945    12.88254     0.00000  0.0
    284    285    308    321   5     0.00000    20.50160     0.00000  0.0
    286    285    308    309   5     0.00000    25.47638     0.00000  0.0
    286    285    308    321   5     0.00000    20.50160     0.00000  0.0
    285    308    309    310   5    -3.67774    -0.67781     0.28033  0.0
    285    308    309    322   5     0.00000     0.00000     0.00000  0.0
    285    308    309    323   5     0.00000     0.00000     0.00000  0.0
    321    308    309    310   5     0.00000     0.00000     0.00000  0.0
    321    308    309    322   5     0.00000     0.00000     0.00000  0.0
    321    308    309    323   5     0.00000     0.00000     0.00000  0.0
    308    309    310    311   5     3.67355     4.10869     2.37651  0.0
    308    309    310    324   5     0.00000     0.00000     1.25520  0.0
    308    309    310    325   5     0.00000     0.00000     1.25520  0.0
    322    309    310    311   5     0.00000     0.00000     1.25520  0.0
    322    309    310    324   5     0.00000     0.00000     1.25520  0.0
    322    309    310    325   5     0.00000     0.00000     1.25520  0.0
    323    309    310    311   5     0.00000     0.00000     1.25520  0.0
    323    309    310    324   5     0.00000     0.00000     1.25520  0.0
    323    309    310    325   5     0.00000     0.00000     1.25520  0.0
    309    310    311    312   5     4.74884    -0.63178     1.67360  0.0
    309    310    311    326   5     0.00000     0.00000     1.25520  0.0
    309    310    311    327   5     0.00000     0.00000     1.25520  0.0
    324    310    311    312   5     0.00000     0.00000     1.25520  0.0
    324    310    311    326   5     0.00000     0.00000     1.25520  0.0
    324    310    311    327   5     0.00000     0.00000     1.25520  0.0
    325    310    311    312   5     0.00000     0.00000     1.25520  0.0
    325    310    311    326   5     0.00000     0.00000     1.25520  0.0
    325    310    311    327   5     0.00000     0.00000     1.25520  0.0
    310    311    312    313   5     4.74884    -0.63178     1.67360  0.0
    310    311    312    328   5     0.00000     0.00000     1.25520  0.0
    310    311    312    329   5     0.00000     0.00000     1.25520  0.0
    326    311    312    313   5     0.00000     0.00000     1.25520  0.0
    326    311    312    328   5     0.00000     0.00000     1.25520  0.0
    326    311    312    329   5     0.00000     0.00000     1.25520  0.0
    327    311    312    313   5     0.00000     0.00000     1.25520  0.0
    327    311    312    328   5     0.00000     0.00000     1.25520  0.0
    327    311    312    329   5     0.00000     0.00000     1.25520  0.0
    311    312    313    314   5     4.74884    -0.63178     1.67360  0.0
    311    312    313    330   5     0.00000     0.00000     1.25520  0.0
    311    312    313    331   5     0.00000     0.00000     1.25520  0.0
    328    312    313    314   5     0.00000     0.00000     1.25520  0.0
    328    312    313    330   5     0.00000     0.00000     1.25520  0.0
    328    312    313    331   5     0.00000     0.00000     1.25520  0.0
    329    312    313    314   5     0.00000     0.00000     1.25520  0.0
    329    312    313    330   5     0.00000     0.00000     1.25520  0.0
    329    312    313    331   5     0.00000     0.00000     1.25520  0.0
    312    313    314    315   5     4.74884    -0.63178     1.67360  0.0
    312    313    314    332   5     0.00000     0.00000     1.25520  0.0
    312    313    314    333   5     0.00000     0.00000     1.25520  0.0
    330    313    314    315   5     0.00000     0.00000     1.25520  0.0
    330    313    314    332   5     0.00000     0.00000     1.25520  0.0
    330    313    314    333   5     0.00000     0.00000     1.25520  0.0
    331    313    314    315   5     0.00000     0.00000     1.25520  0.0
    331    313    314    332   5     0.00000     0.00000     1.25520  0.0
    331    313    314    333   5     0.00000     0.00000     1.25520  0.0
    313    314    315    316   5     4.74884    -0.63178     1.67360  0.0
    313    314    315    334   5     0.00000     0.00000     1.25520  0.0
    313    314    315    335   5     0.00000     0.00000     1.25520  0.0
    332    314    315    316   5     0.00000     0.00000     1.25520  0.0
    332    314    315    334   5     0.00000     0.00000     1.25520  0.0
    332    314    315    335   5     0.00000     0.00000     1.25520  0.0
    333    314    315    316   5     0.00000     0.00000     1.25520  0.0
    333    314    315    334   5     0.00000     0.00000     1.25520  0.0
    333    314    315    335   5     0.00000     0.00000     1.25520  0.0
    314    315    316    317   5     4.74884    -0.63178     1.67360  0.0
    314    315    316    336   5     0.00000     0.00000     1.25520  0.0
    314    315    316    337   5     0.00000     0.00000     1.25520  0.0
    334    315    316    317   5     0.00000     0.00000     1.25520  0.0
    334    315    316    336   5     0.00000     0.00000     1.25520  0.0
    334    315    316    337   5     0.00000     0.00000     1.25520  0.0
    335    315    316    317   5     0.00000     0.00000     1.25520  0.0
    335    315    316    336   5     0.00000     0.00000     1.25520  0.0
    335    315    316    337   5     0.00000     0.00000     1.25520  0.0
    315    316    317    318   5     4.74884    -0.63178     1.67360  0.0
    315    316    317    338   5     0.00000     0.00000     1.25520  0.0
    315    316    317    339   5     0.00000     0.00000     1.25520  0.0
    336    316    317    318   5     0.00000     0.00000     1.25520  0.0
    336    316    317    338   5     0.00000     0.00000     1.25520  0.0
    336    316    317    339   5     0.00000     0.00000     1.25520  0.0
    337    316    317    318   5     0.00000     0.00000     1.25520  0.0
    337    316    317    338   5     0.00000     0.00000     1.25520  0.0
    337    316    317    339   5     0.00000     0.00000     1.25520  0.0
    316    317    318    319   5    -8.00818    -1.52298     2.46438  0.0
    316    317    318    340   5     0.00000     0.00000     1.25520  0.0
    316    317    318    341   5     0.00000     0.00000     1.25520  0.0
    338    317    318    319   5     0.00000     0.00000    -0.94140  0.0
    338    317    318    340   5     0.00000     0.00000     1.25520  0.0
    338    317    318    341   5     0.00000     0.00000     1.25520  0.0
    339    317    318    319   5     0.00000     0.00000    -0.94140  0.0
    339    317    318    340   5     0.00000     0.00000     1.25520  0.0
    339    317    318    341   5     0.00000     0.00000     1.25520  0.0
    317    318    319    320   5     0.00000     2.52295     0.00000  0.0
    317    318    319    342   5    11.69428    -0.66526    -1.56900  0.0
    340    318    319    320   5     0.00000     0.00000     0.00000  0.0
    340    318    319    342   5     0.00000     0.00000     0.00000  0.0
    341    318    319    320   5     0.00000     0.00000     0.00000  0.0
    341    318    319    342   5     0.00000     0.00000     0.00000  0.0
    318    319    342    343   5    12.53945    12.88254     0.00000  0.0
    318    319    342    355   5     0.00000    20.50160     0.00000  0.0
    320    319    342    343   5     0.00000    25.47638     0.00000  0.0
    320    319    342    355   5     0.00000    20.50160     0.00000  0.0
    319    342    343    344   5    -3.67774    -0.67781     0.28033  0.0
    319    342    343    356   5     0.00000     0.00000     0.00000  0.0
    319    342    343    357   5     0.00000     0.00000     0.00000  0.0
    355    342    343    344   5     0.00000     0.00000     0.00000  0.0
    355    342    343    356   5     0.00000     0.00000     0.00000  0.0
    355    342    343    357   5     0.00000     0.00000     0.00000  0.0
    342    343    344    345   5     3.67355     4.10869     2.37651  0.0
    342    343    344    358   5     0.00000     0.00000     1.25520  0.0
    342    343    344    359   5     0.00000     0.00000     1.25520  0.0
    356    343    344    345   5     0.00000     0.00000     1.25520  0.0
    356    343    344    358   5     0.00000     0.00000     1.25520  0.0
    356    343    344    359   5     0.00000     0.00000     1.25520  0.0
    357    343    344    345   5     0.00000     0.00000     1.25520  0.0
    357    343    344    358   5     0.00000     0.00000     1.25520  0.0
    357    343    344    359   5     0.00000     0.00000     1.25520  0.0
    343    344    345    346   5     4.74884    -0.63178     1.67360  0.0
    343    344    345    360   5     0.00000     0.00000     1.25520  0.0
    343    344    345    361   5     0.00000     0.00000     1.25520  0.0
    358    344    345    346   5     0.00000     0.00000     1.25520  0.0
    358    344    345    360   5     0.00000     0.00000     1.25520  0.0
    358    344    345    361   5     0.00000     0.00000     1.25520  0.0
    359    344    345    346   5     0.00000     0.00000     1.25520  0.0
    359    344    345    360   5     0.00000     0.00000     1.25520  0.0
    359    344    345    361   5     0.00000     0.00000     1.25520  0.0
    344    345    346    347   5     4.74884    -0.63178     1.67360  0.0
    344    345    346    362   5     0.00000     0.00000     1.25520  0.0
    344    345    346    363   5     0.00000     0.00000     1.25520  0.0
    360    345    346    347   5     0.00000     0.00000     1.25520  0.0
    360    345    346    362   5     0.00000     0.00000     1.25520  0.0
    360    345    346    363   5     0.00000     0.00000     1.25520  0.0
    361    345    346    347   5     0.00000     0.00000     1.25520  0.0
    361    345    346    362   5     0.00000     0.00000     1.25520  0.0
    361    345    346    363   5     0.00000     0.00000     1.25520  0.0
    345    346    347    348   5     4.74884    -0.63178     1.67360  0.0
    345    346    347    364   5     0.00000     0.00000     1.25520  0.0
    345    346    347    365   5     0.00000     0.00000     1.25520  0.0
    362    346    347    348   5     0.00000     0.00000     1.25520  0.0
    362    346    347    364   5     0.00000     0.00000     1.25520  0.0
    362    346    347    365   5     0.00000     0.00000     1.25520  0.0
    363    346    347    348   5     0.00000     0.00000     1.25520  0.0
    363    346    347    364   5     0.00000     0.00000     1.25520  0.0
    363    346    347    365   5     0.00000     0.00000     1.25520  0.0
    346    347    348    349   5     4.74884    -0.63178     1.67360  0.0
    346    347    348    366   5     0.00000     0.00000     1.25520  0.0
    346    347    348    367   5     0.00000     0.00000     1.25520  0.0
    364    347    348    349   5     0.00000     0.00000     1.25520  0.0
    364    347    348    366   5     0.00000     0.00000     1.25520  0.0
    364    347    348    367   5     0.00000     0.00000     1.25520  0.0
    365    347    348    349   5     0.00000     0.00000     1.25520  0.0
    365    347    348    366   5     0.00000     0.00000     1.25520  0.0
    365    347    348    367   5     0.00000     0.00000     1.25520  0.0
    347    348    349    350   5     4.74884    -0.63178     1.67360  0.0
    347    348    349    368   5     0.00000     0.00000     1.25520  0.0
    347    348    349    369   5     0.00000     0.00000     1.25520  0.0
    366    348    349    350   5     0.00000     0.00000     1.25520  0.0
    366    348    349    368   5     0.00000     0.00000     1.25520  0.0
    366    348    349    369   5     0.00000     0.00000     1.25520  0.0
    367    348    349    350   5     0.00000     0.00000     1.25520  0.0
    367    348    349    368   5     0.00000     0.00000     1.25520  0.0
    367    348    349    369   5     0.00000     0.00000     1.25520  0.0
    348    349    350    351   5     4.74884    -0.63178     1.67360  0.0
    348    349    350    370   5     0.00000     0.00000     1.25520  0.0
    348    349    350    371   5     0.00000     0.00000     1.25520  0.0
    368    349    350    351   5     0.00000     0.00000     1.25520  0.0
    368    349    350    370   5     0.00000     0.00000     1.25520  0.0
    368    349    350    371   5     0.00000     0.00000     1.25520  0.0
    369    349    350    351   5     0.00000     0.00000     1.25520  0.0
    369    349    350    370   5     0.00000     0.00000     1.25520  0.0
    369    349    350    371   5     0.00000     0.00000     1.25520  0.0
    349    350    351    352   5     4.74884    -0.63178     1.67360  0.0
    349    350    351    372   5     0.00000     0.00000     1.25520  0.0
    349    350    351    373   5     0.00000     0.00000     1.25520  0.0
    370    350    351    352   5     0.00000     0.00000     1.25520  0.0
    370    350    351    372   5     0.00000     0.00000     1.25520  0.0
    370    350    351    373   5     0.00000     0.00000     1.25520  0.0
    371    350    351    352   5     0.00000     0.00000     1.25520  0.0
    371    350    351    372   5     0.00000     0.00000     1.25520  0.0
    371    350    351    373   5     0.00000     0.00000     1.25520  0.0
    350    351    352    353   5    -8.00818    -1.52298     2.46438  0.0
    350    351    352    374   5     0.00000     0.00000     1.25520  0.0
    350    351    352    375   5     0.00000     0.00000     1.25520  0.0
    372    351    352    353   5     0.00000     0.00000    -0.94140  0.0
    372    351    352    374   5     0.00000     0.00000     1.25520  0.0
    372    351    352    375   5     0.00000     0.00000     1.25520  0.0
    373    351    352    353   5     0.00000     0.00000    -0.94140  0.0
    373    351    352    374   5     0.00000     0.00000     1.25520  0.0
    373    351    352    375   5     0.00000     0.00000     1.25520  0.0
    351    352    353    354   5     0.00000     2.52295     0.00000  0.0
    351    352    353    376   5    11.69428    -0.66526    -1.56900  0.0
    374    352    353    354   5     0.00000     0.00000     0.00000  0.0
    374    352    353    376   5     0.00000     0.00000     0.00000  0.0
    375    352    353    354   5     0.00000     0.00000     0.00000  0.0
    375    352    353    376   5     0.00000     0.00000     0.00000  0.0
    352    353    376    377   5    12.53945    12.88254     0.00000  0.0
    352    353    376    389   5     0.00000    20.50160     0.00000  0.0
    354    353    376    377   5     0.00000    25.47638     0.00000  0.0
    354    353    376    389   5     0.00000    20.50160     0.00000  0.0
    353    376    377    378   5    -3.67774    -0.67781     0.28033  0.0
    353    376    377    390   5     0.00000     0.00000     0.00000  0.0
    353    376    377    391   5     0.00000     0.00000     0.00000  0.0
    389    376    377    378   5     0.00000     0.00000     0.00000  0.0
    389    376    377    390   5     0.00000     0.00000     0.00000  0.0
    389    376    377    391   5     0.00000     0.00000     0.00000  0.0
    376    377    378    379   5     3.67355     4.10869     2.37651  0.0
    376    377    378    392   5     0.00000     0.00000     1.25520  0.0
    376    377    378    393   5     0.00000     0.00000     1.25520  0.0
    390    377    378    379   5     0.00000     0.00000     1.25520  0.0
    390    377    378    392   5     0.00000     0.00000     1.25520  0.0
    390    377    378    393   5     0.00000     0.00000     1.25520  0.0
    391    377    378    379   5     0.00000     0.00000     1.25520  0.0
    391    377    378    392   5     0.00000     0.00000     1.25520  0.0
    391    377    378    393   5     0.00000     0.00000     1.25520  0.0
    377    378    379    380   5     4.74884    -0.63178     1.67360  0.0
    377    378    379    394   5     0.00000     0.00000     1.25520  0.0
    377    378    379    395   5     0.00000     0.00000     1.25520  0.0
    392    378    379    380   5     0.00000     0.00000     1.25520  0.0
    392    378    379    394   5     0.00000     0.00000     1.25520  0.0
    392    378    379    395   5     0.00000     0.00000     1.25520  0.0
    393    378    379    380   5     0.00000     0.00000     1.25520  0.0
    393    378    379    394   5     0.00000     0.00000     1.25520  0.0
    393    378    379    395   5     0.00000     0.00000     1.25520  0.0
    378    379    380    381   5     4.74884    -0.63178     1.67360  0.0
    378    379    380    396   5     0.00000     0.00000     1.25520  0.0
    378    379    380    397   5     0.00000     0.00000     1.25520  0.0
    394    379    380    381   5     0.00000     0.00000     1.25520  0.0
    394    379    380    396   5     0.00000     0.00000     1.25520  0.0
    394    379    380    397   5     0.00000     0.00000     1.25520  0.0
    395    379    380    381   5     0.00000     0.00000     1.25520  0.0
    395    379    380    396   5     0.00000     0.00000     1.25520  0.0
    395    379    380    397   5     0.00000     0.00000     1.25520  0.0
    379    380    381    382   5     4.74884    -0.63178     1.67360  0.0
    379    380    381    398   5     0.00000     0.00000     1.25520  0.0
    379    380    381    399   5     0.00000     0.00000     1.25520  0.0
    396    380    381    382   5     0.00000     0.00000     1.25520  0.0
    396    380    381    398   5     0.00000     0.00000     1.25520  0.0
    396    380    381    399   5     0.00000     0.00000     1.25520  0.0
    397    380    381    382   5     0.00000     0.00000     1.25520  0.0
    397    380    381    398   5     0.00000     0.00000     1.25520  0.0
    397    380    381    399   5     0.00000     0.00000     1.25520  0.0
    380    381    382    383   5     4.74884    -0.63178     1.67360  0.0
    380    381    382    400   5     0.00000     0.00000     1.25520  0.0
    380    381    382    401   5     0.00000     0.00000     1.25520  0.0
    398    381    382    383   5     0.00000     0.00000     1.25520  0.0
    398    381    382    400   5     0.00000     0.00000     1.25520  0.0
    398    381    382    401   5     0.00000     0.00000     1.25520  0.0
    399    381    382    383   5     0.00000     0.00000     1.25520  0.0
    399    381    382    400   5     0.00000     0.00000     1.25520  0.0
    399    381    382    401   5     0.00000     0.00000     1.25520  0.0
    381    382    383    384   5     4.74884    -0.63178     1.67360  0.0
    381    382    383    402   5     0.00000     0.00000     1.25520  0.0
    381    382    383    403   5     0.00000     0.00000     1.25520  0.0
    400    382    383    384   5     0.00000     0.00000     1.25520  0.0
    400    382    383    402   5     0.00000     0.00000     1.25520  0.0
    400    382    383    403   5     0.00000     0.00000     1.25520  0.0
    401    382    383    384   5     0.00000     0.00000     1.25520  0.0
    401    382    383    402   5     0.00000     0.00000     1.25520  0.0
    401    382    383    403   5     0.00000     0.00000     1.25520  0.0
    382    383    384    385   5     4.74884    -0.63178     1.67360  0.0
    382    383    384    404   5     0.00000     0.00000     1.25520  0.0
    382    383    384    405   5     0.00000     0.00000     1.25520  0.0
    402    383    384    385   5     0.00000     0.00000     1.25520  0.0
    402    383    384    404   5     0.00000     0.00000     1.25520  0.0
    402    383    384    405   5     0.00000     0.00000     1.25520  0.0
    403    383    384    385   5     0.00000     0.00000     1.25520  0.0
    403    383    384    404   5     0.00000     0.00000     1.25520  0.0
    403    383    384    405   5     0.00000     0.00000     1.25520  0.0
    383    384    385    386   5     4.74884    -0.63178     1.67360  0.0
    383    384    385    406   5     0.00000     0.00000     1.25520  0.0
    383    384    385    407   5     0.00000     0.00000     1.25520  0.0
    404    384    385    386   5     0.00000     0.00000     1.25520  0.0
    404    384    385    406   5     0.00000     0.00000     1.25520  0.0
    404    384    385    407   5     0.00000     0.00000     1.25520  0.0
    405    384    385    386   5     0.00000     0.00000     1.25520  0.0
    405    384    385    406   5     0.00000     0.00000     1.25520  0.0
    405    384    385    407   5     0.00000     0.00000     1.25520  0.0
    384    385    386    387   5    -8.00818    -1.52298     2.46438  0.0
    384    385    386    408   5     0.00000     0.00000     1.25520  0.0
    384    385    386    409   5     0.00000     0.00000     1.25520  0.0
    406    385    386    387   5     0.00000     0.00000    -0.94140  0.0
    406    385    386    408   5     0.00000     0.00000     1.25520  0.0
    406    385    386    409   5     0.00000     0.00000     1.25520  0.0
    407    385    386    387   5     0.00000     0.00000    -0.94140  0.0
    407    385    386    408   5     0.00000     0.00000     1.25520  0.0
    407    385    386    409   5     0.00000     0.00000     1.25520  0.0
    385    386    387    388   5     0.00000     2.52295     0.00000  0.0
    385    386    387    410   5    11.69428    -0.66526    -1.56900  0.0
    408    386    387    388   5     0.00000     0.00000     0.00000  0.0
    408    386    387    410   5     0.00000     0.00000     0.00000  0.0
    409    386    387    388   5     0.00000     0.00000     0.00000  0.0
    409    386    387    410   5     0.00000     0.00000     0.00000  0.0
    386    387    410    411   5    12.53945    12.88254     0.00000  0.0
    386    387    410    423   5     0.00000    20.50160     0.00000  0.0
    388    387    410    411   5     0.00000    25.47638     0.00000  0.0
    388    387    410    423   5     0.00000    20.50160     0.00000  0.0
    387    410    411    412   5    -3.67774    -0.67781     0.28033  0.0
    387    410    411    424   5     0.00000     0.00000     0.00000  0.0
    387    410    411    425   5     0.00000     0.00000     0.00000  0.0
    423    410    411    412   5     0.00000     0.00000     0.00000  0.0
    423    410    411    424   5     0.00000     0.00000     0.00000  0.0
    423    410    411    425   5     0.00000     0.00000     0.00000  0.0
    410    411    412    413   5     3.67355     4.10869     2.37651  0.0
    410    411    412    426   5     0.00000     0.00000     1.25520  0.0
    410    411    412    427   5     0.00000     0.00000     1.25520  0.0
    424    411    412    413   5     0.00000     0.00000     1.25520  0.0
    424    411    412    426   5     0.00000     0.00000     1.25520  0.0
    424    411    412    427   5     0.00000     0.00000     1.25520  0.0
    425    411    412    413   5     0.00000     0.00000     1.25520  0.0
    425    411    412    426   5     0.00000     0.00000     1.25520  0.0
    425    411    412    427   5     0.00000     0.00000     1.25520  0.0
    411    412    413    414   5     4.74884    -0.63178     1.67360  0.0
    411    412    413    428   5     0.00000     0.00000     1.25520  0.0
    411    412    413    429   5     0.00000     0.00000     1.25520  0.0
    426    412    413    414   5     0.00000     0.00000     1.25520  0.0
    426    412    413    428   5     0.00000     0.00000     1.25520  0.0
    426    412    413    429   5     0.00000     0.00000     1.25520  0.0
    427    412    413    414   5     0.00000     0.00000     1.25520  0.0
    427    412    413    428   5     0.00000     0.00000     1.25520  0.0
    427    412    413    429   5     0.00000     0.00000     1.25520  0.0
    412    413    414    415   5     4.74884    -0.63178     1.67360  0.0
    412    413    414    430   5     0.00000     0.00000     1.25520  0.0
    412    413    414    431   5     0.00000     0.00000     1.25520  0.0
    428    413    414    415   5     0.00000     0.00000     1.25520  0.0
    428    413    414    430   5     0.00000     0.00000     1.25520  0.0
    428    413    414    431   5     0.00000     0.00000     1.25520  0.0
    429    413    414    415   5     0.00000     0.00000     1.25520  0.0
    429    413    414    430   5     0.00000     0.00000     1.25520  0.0
    429    413    414    431   5     0.00000     0.00000     1.25520  0.0
    413    414    415    416   5     4.74884    -0.63178     1.67360  0.0
    413    414    415    432   5     0.00000     0.00000     1.25520  0.0
    413    414    415    433   5     0.00000     0.00000     1.25520  0.0
    430    414    415    416   5     0.00000     0.00000     1.25520  0.0
    430    414    415    432   5     0.00000     0.00000     1.25520  0.0
    430    414    415    433   5     0.00000     0.00000     1.25520  0.0
    431    414    415    416   5     0.00000     0.00000     1.25520  0.0
    431    414    415    432   5     0.00000     0.00000     1.25520  0.0
    431    414    415    433   5     0.00000     0.00000     1.25520  0.0
    414    415    416    417   5     4.74884    -0.63178     1.67360  0.0
    414    415    416    434   5     0.00000     0.00000     1.25520  0.0
    414    415    416    435   5     0.00000     0.00000     1.25520  0.0
    432    415    416    417   5     0.00000     0.00000     1.25520  0.0
    432    415    416    434   5     0.00000     0.00000     1.25520  0.0
    432    415    416    435   5     0.00000     0.00000     1.25520  0.0
    433    415    416    417   5     0.00000     0.00000     1.25520  0.0
    433    415    416    434   5     0.00000     0.00000     1.25520  0.0
    433    415    416    435   5     0.00000     0.00000     1.25520  0.0
    415    416    417    418   5     4.74884    -0.63178     1.67360  0.0
    415    416    417    436   5     0.00000     0.00000     1.25520  0.0
    415    416    417    437   5     0.00000     0.00000     1.25520  0.0
    434    416    417    418   5     0.00000     0.00000     1.25520  0.0
    434    416    417    436   5     0.00000     0.00000     1.25520  0.0
    434    416    417    437   5     0.00000     0.00000     1.25520  0.0
    435    416    417    418   5     0.00000     0.00000     1.25520  0.0
    435    416    417    436   5     0.00000     0.00000     1.25520  0.0
    435    416    417    437   5     0.00000     0.00000     1.25520  0.0
    416    417    418    419   5     4.74884    -0.63178     1.67360  0.0
    416    417    418    438   5     0.00000     0.00000     1.25520  0.0
    416    417    418    439   5     0.00000     0.00000     1.25520  0.0
    436    417    418    419   5     0.00000     0.00000     1.25520  0.0
    436    417    418    438   5     0.00000     0.00000     1.25520  0.0
    436    417    418    439   5     0.00000     0.00000     1.25520  0.0
    437    417    418    419   5     0.00000     0.00000     1.25520  0.0
    437    417    418    438   5     0.00000     0.00000     1.25520  0.0
    437    417    418    439   5     0.00000     0.00000     1.25520  0.0
    417    418    419    420   5     4.74884    -0.63178     1.67360  0.0
    417    418    419    440   5     0.00000     0.00000     1.25520  0.0
    417    418    419    441   5     0.00000     0.00000     1.25520  0.0
    438    418    419    420   5     0.00000     0.00000     1.25520  0.0
    438    418    419    440   5     0.00000     0.00000     1.25520  0.0
    438    418    419    441   5     0.00000     0.00000     1.25520  0.0
    439    418    419    420   5     0.00000     0.00000     1.25520  0.0
    439    418    419    440   5     0.00000     0.00000     1.25520  0.0
    439    418    419    441   5     0.00000     0.00000     1.25520  0.0
    418    419    420    421   5    -8.00818    -1.52298     2.46438  0.0
    418    419    420    442   5     0.00000     0.00000     1.25520  0.0
    418    419    420    443   5     0.00000     0.00000     1.25520  0.0
    440    419    420    421   5     0.00000     0.00000    -0.94140  0.0
    440    419    420    442   5     0.00000     0.00000     1.25520  0.0
    440    419    420    443   5     0.00000     0.00000     1.25520  0.0
    441    419    420    421   5     0.00000     0.00000    -0.94140  0.0
    441    419    420    442   5     0.00000     0.00000     1.25520  0.0
    441    419    420    443   5     0.00000     0.00000     1.25520  0.0
    419    420    421    422   5     0.00000     2.52295     0.00000  0.0
    419    420    421    444   5    11.69428    -0.66526    -1.56900  0.0
    442    420    421    422   5     0.00000     0.00000     0.00000  0.0
    442    420    421    444   5     0.00000     0.00000     0.00000  0.0
    443    420    421    422   5     0.00000     0.00000     0.00000  0.0
    443    420    421    444   5     0.00000     0.00000     0.00000  0.0
    420    421    444    445   5    12.53945    12.88254     0.00000  0.0
    420    421    444    457   5     0.00000    20.50160     0.00000  0.0
    422    421    444    445   5     0.00000    25.47638     0.00000  0.0
    422    421    444    457   5     0.00000    20.50160     0.00000  0.0
    421    444    445    446   5    -3.67774    -0.67781     0.28033  0.0
    421    444    445    458   5     0.00000     0.00000     0.00000  0.0
    421    444    445    459   5     0.00000     0.00000     0.00000  0.0
    457    444    445    446   5     0.00000     0.00000     0.00000  0.0
    457    444    445    458   5     0.00000     0.00000     0.00000  0.0
    457    444    445    459   5     0.00000     0.00000     0.00000  0.0
    444    445    446    447   5     3.67355     4.10869     2.37651  0.0
    444    445    446    460   5     0.00000     0.00000     1.25520  0.0
    444    445    446    461   5     0.00000     0.00000     1.25520  0.0
    458    445    446    447   5     0.00000     0.00000     1.25520  0.0
    458    445    446    460   5     0.00000     0.00000     1.25520  0.0
    458    445    446    461   5     0.00000     0.00000     1.25520  0.0
    459    445    446    447   5     0.00000     0.00000     1.25520  0.0
    459    445    446    460   5     0.00000     0.00000     1.25520  0.0
    459    445    446    461   5     0.00000     0.00000     1.25520  0.0
    445    446    447    448   5     4.74884    -0.63178     1.67360  0.0
    445    446    447    462   5     0.00000     0.00000     1.25520  0.0
    445    446    447    463   5     0.00000     0.00000     1.25520  0.0
    460    446    447    448   5     0.00000     0.00000     1.25520  0.0
    460    446    447    462   5     0.00000     0.00000     1.25520  0.0
    460    446    447    463   5     0.00000     0.00000     1.25520  0.0
    461    446    447    448   5     0.00000     0.00000     1.25520  0.0
    461    446    447    462   5     0.00000     0.00000     1.25520  0.0
    461    446    447    463   5     0.00000     0.00000     1.25520  0.0
    446    447    448    449   5     4.74884    -0.63178     1.67360  0.0
    446    447    448    464   5     0.00000     0.00000     1.25520  0.0
    446    447    448    465   5     0.00000     0.00000     1.25520  0.0
    462    447    448    449   5     0.00000     0.00000     1.25520  0.0
    462    447    448    464   5     0.00000     0.00000     1.25520  0.0
    462    447    448    465   5     0.00000     0.00000     1.25520  0.0
    463    447    448    449   5     0.00000     0.00000     1.25520  0.0
    463    447    448    464   5     0.00000     0.00000     1.25520  0.0
    463    447    448    465   5     0.00000     0.00000     1.25520  0.0
    447    448    449    450   5     4.74884    -0.63178     1.67360  0.0
    447    448    449    466   5     0.00000     0.00000     1.25520  0.0
    447    448    449    467   5     0.00000     0.00000     1.25520  0.0
    464    448    449    450   5     0.00000     0.00000     1.25520  0.0
    464    448    449    466   5     0.00000     0.00000     1.25520  0.0
    464    448    449    467   5     0.00000     0.00000     1.25520  0.0
    465    448    449    450   5     0.00000     0.00000     1.25520  0.0
    465    448    449    466   5     0.00000     0.00000     1.25520  0.0
    465    448    449    467   5     0.00000     0.00000     1.25520  0.0
    448    449    450    451   5     4.74884    -0.63178     1.67360  0.0
    448    449    450    468   5     0.00000     0.00000     1.25520  0.0
    448    449    450    469   5     0.00000     0.00000     1.25520  0.0
    466    449    450    451   5     0.00000     0.00000     1.25520  0.0
    466    449    450    468   5     0.00000     0.00000     1.25520  0.0
    466    449    450    469   5     0.00000     0.00000     1.25520  0.0
    467    449    450    451   5     0.00000     0.00000     1.25520  0.0
    467    449    450    468   5     0.00000     0.00000     1.25520  0.0
    467    449    450    469   5     0.00000     0.00000     1.25520  0.0
    449    450    451    452   5     4.74884    -0.63178     1.67360  0.0
    449    450    451    470   5     0.00000     0.00000     1.25520  0.0
    449    450    451    471   5     0.00000     0.00000     1.25520  0.0
    468    450    451    452   5     0.00000     0.00000     1.25520  0.0
    468    450    451    470   5     0.00000     0.00000     1.25520  0.0
    468    450    451    471   5     0.00000     0.00000     1.25520  0.0
    469    450    451    452   5     0.00000     0.00000     1.25520  0.0
    469    450    451    470   5     0.00000     0.00000     1.25520  0.0
    469    450    451    471   5     0.00000     0.00000     1.25520  0.0
    450    451    452    453   5     4.74884    -0.63178     1.67360  0.0
    450    451    452    472   5     0.00000     0.00000     1.25520  0.0
    450    451    452    473   5     0.00000     0.00000     1.25520  0.0
    470    451    452    453   5     0.00000     0.00000     1.25520  0.0
    470    451    452    472   5     0.00000     0.00000     1.25520  0.0
    470    451    452    473   5     0.00000     0.00000     1.25520  0.0
    471    451    452    453   5     0.00000     0.00000     1.25520  0.0
    471    451    452    472   5     0.00000     0.00000     1.25520  0.0
    471    451    452    473   5     0.00000     0.00000     1.25520  0.0
    451    452    453    454   5     4.74884    -0.63178     1.67360  0.0
    451    452    453    474   5     0.00000     0.00000     1.25520  0.0
    451    452    453    475   5     0.00000     0.00000     1.25520  0.0
    472    452    453    454   5     0.00000     0.00000     1.25520  0.0
    472    452    453    474   5     0.00000     0.00000     1.25520  0.0
    472    452    453    475   5     0.00000     0.00000     1.25520  0.0
    473    452    453    454   5     0.00000     0.00000     1.25520  0.0
    473    452    453    474   5     0.00000     0.00000     1.25520  0.0
    473    452    453    475   5     0.00000     0.00000     1.25520  0.0
    452    453    454    455   5    -8.00818    -1.52298     2.46438  0.0
    452    453    454    476   5     0.00000     0.00000     1.25520  0.0
    452    453    454    477   5     0.00000     0.00000     1.25520  0.0
    474    453    454    455   5     0.00000     0.00000    -0.94140  0.0
    474    453    454    476   5     0.00000     0.00000     1.25520  0.0
    474    453    454    477   5     0.00000     0.00000     1.25520  0.0
    475    453    454    455   5     0.00000     0.00000    -0.94140  0.0
    475    453    454    476   5     0.00000     0.00000     1.25520  0.0
    475    453    454    477   5     0.00000     0.00000     1.25520  0.0
    453    454    455    456   5     0.00000     2.52295     0.00000  0.0
    453    454    455    478   5    11.69428    -0.66526    -1.56900  0.0
    476    454    455    456   5     0.00000     0.00000     0.00000  0.0
    476    454    455    478   5     0.00000     0.00000     0.00000  0.0
    477    454    455    456   5     0.00000     0.00000     0.00000  0.0
    477    454    455    478   5     0.00000     0.00000     0.00000  0.0
    454    455    478    479   5    12.53945    12.88254     0.00000  0.0
    454    455    478    491   5     0.00000    20.50160     0.00000  0.0
    456    455    478    479   5     0.00000    25.47638     0.00000  0.0
    456    455    478    491   5     0.00000    20.50160     0.00000  0.0
    455    478    479    480   5    -3.67774    -0.67781     0.28033  0.0
    455    478    479    492   5     0.00000     0.00000     0.00000  0.0
    455    478    479    493   5     0.00000     0.00000     0.00000  0.0
    491    478    479    480   5     0.00000     0.00000     0.00000  0.0
    491    478    479    492   5     0.00000     0.00000     0.00000  0.0
    491    478    479    493   5     0.00000     0.00000     0.00000  0.0
    478    479    480    481   5     3.67355     4.10869     2.37651  0.0
    478    479    480    494   5     0.00000     0.00000     1.25520  0.0
    478    479    480    495   5     0.00000     0.00000     1.25520  0.0
    492    479    480    481   5     0.00000     0.00000     1.25520  0.0
    492    479    480    494   5     0.00000     0.00000     1.25520  0.0
    492    479    480    495   5     0.00000     0.00000     1.25520  0.0
    493    479    480    481   5     0.00000     0.00000     1.25520  0.0
    493    479    480    494   5     0.00000     0.00000     1.25520  0.0
    493    479    480    495   5     0.00000     0.00000     1.25520  0.0
    479    480    481    482   5     4.74884    -0.63178     1.67360  0.0
    479    480    481    496   5     0.00000     0.00000     1.25520  0.0
    479    480    481    497   5     0.00000     0.00000     1.25520  0.0
    494    480    481    482   5     0.00000     0.00000     1.25520  0.0
    494    480    481    496   5     0.00000     0.00000     1.25520  0.0
    494    480    481    497   5     0.00000     0.00000     1.25520  0.0
    495    480    481    482   5     0.00000     0.00000     1.25520  0.0
    495    480    481    496   5     0.00000     0.00000     1.25520  0.0
    495    480    481    497   5     0.00000     0.00000     1.25520  0.0
    480    481    482    483   5     4.74884    -0.63178     1.67360  0.0
    480    481    482    498   5     0.00000     0.00000     1.25520  0.0
    480    481    482    499   5     0.00000     0.00000     1.25520  0.0
    496    481    482    483   5     0.00000     0.00000     1.25520  0.0
    496    481    482    498   5     0.00000     0.00000     1.25520  0.0
    496    481    482    499   5     0.00000     0.00000     1.25520  0.0
    497    481    482    483   5     0.00000     0.00000     1.25520  0.0
    497    481    482    498   5     0.00000     0.00000     1.25520  0.0
    497    481    482    499   5     0.00000     0.00000     1.25520  0.0
    481    482    483    484   5     4.74884    -0.63178     1.67360  0.0
    481    482    483    500   5     0.00000     0.00000     1.25520  0.0
    481    482    483    501   5     0.00000     0.00000     1.25520  0.0
    498    482    483    484   5     0.00000     0.00000     1.25520  0.0
    498    482    483    500   5     0.00000     0.00000     1.25520  0.0
    498    482    483    501   5     0.00000     0.00000     1.25520  0.0
    499    482    483    484   5     0.00000     0.00000     1.25520  0.0
    499    482    483    500   5     0.00000     0.00000     1.25520  0.0
    499    482    483    501   5     0.00000     0.00000     1.25520  0.0
    482    483    484    485   5     4.74884    -0.63178     1.67360  0.0
    482    483    484    502   5     0.00000     0.00000     1.25520  0.0
    482    483    484    503   5     0.00000     0.00000     1.25520  0.0
    500    483    484    485   5     0.00000     0.00000     1.25520  0.0
    500    483    484    502   5     0.00000     0.00000     1.25520  0.0
    500    483    484    503   5     0.00000     0.00000     1.25520  0.0
    501    483    484    485   5     0.00000     0.00000     1.25520  0.0
    501    483    484    502   5     0.00000     0.00000     1.25520  0.0
    501    483    484    503   5     0.00000     0.00000     1.25520  0.0
    483    484    485    486   5     4.74884    -0.63178     1.67360  0.0
    483    484    485    504   5     0.00000     0.00000     1.25520  0.0
    483    484    485    505   5     0.00000     0.00000     1.25520  0.0
    502    484    485    486   5     0.00000     0.00000     1.25520  0.0
    502    484    485    504   5     0.00000     0.00000     1.25520  0.0
    502    484    485    505   5     0.00000     0.00000     1.25520  0.0
    503    484    485    486   5     0.00000     0.00000     1.25520  0.0
    503    484    485    504   5     0.00000     0.00000     1.25520  0.0
    503    484    485    505   5     0.00000     0.00000     1.25520  0.0
    484    485    486    487   5     4.74884    -0.63178     1.67360  0.0
    484    485    486    506   5     0.00000     0.00000     1.25520  0.0
    484    485    486    507   5     0.00000     0.00000     1.25520  0.0
    504    485    486    487   5     0.00000     0.00000     1.25520  0.0
    504    485    486    506   5     0.00000     0.00000     1.25520  0.0
    504    485    486    507   5     0.00000     0.00000     1.25520  0.0
    505    485    486    487   5     0.00000     0.00000     1.25520  0.0
    505    485    486    506   5     0.00000     0.00000     1.25520  0.0
    505    485    486    507   5     0.00000     0.00000     1.25520  0.0
    485    486    487    488   5     4.74884    -0.63178     1.67360  0.0
    485    486    487    508   5     0.00000     0.00000     1.25520  0.0
    485    486    487    509   5     0.00000     0.00000     1.25520  0.0
    506    486    487    488   5     0.00000     0.00000     1.25520  0.0
    506    486    487    508   5     0.00000     0.00000     1.25520  0.0
    506    486    487    509   5     0.00000     0.00000     1.25520  0.0
    507    486    487    488   5     0.00000     0.00000     1.25520  0.0
    507    486    487    508   5     0.00000     0.00000     1.25520  0.0
    507    486    487    509   5     0.00000     0.00000     1.25520  0.0
    486    487    488    489   5    -8.00818    -1.52298     2.46438  0.0
    486    487    488    510   5     0.00000     0.00000     1.25520  0.0
    486    487    488    511   5     0.00000     0.00000     1.25520  0.0
    508    487    488    489   5     0.00000     0.00000    -0.94140  0.0
    508    487    488    510   5     0.00000     0.00000     1.25520  0.0
    508    487    488    511   5     0.00000     0.00000     1.25520  0.0
    509    487    488    489   5     0.00000     0.00000    -0.94140  0.0
    509    487    488    510   5     0.00000     0.00000     1.25520  0.0
    509    487    488    511   5     0.00000     0.00000     1.25520  0.0
    487    488    489    490   5     0.00000     2.52295     0.00000  0.0
    487    488    489    512   5    11.69428    -0.66526    -1.56900  0.0
    510    488    489    490   5     0.00000     0.00000     0.00000  0.0
    510    488    489    512   5     0.00000     0.00000     0.00000  0.0
    511    488    489    490   5     0.00000     0.00000     0.00000  0.0
    511    488    489    512   5     0.00000     0.00000     0.00000  0.0
    488    489    512    513   5    12.53945    12.88254     0.00000  0.0
    488    489    512    525   5     0.00000    20.50160     0.00000  0.0
    490    489    512    513   5     0.00000    25.47638     0.00000  0.0
    490    489    512    525   5     0.00000    20.50160     0.00000  0.0
    489    512    513    514   5    -3.67774    -0.67781     0.28033  0.0
    489    512    513    526   5     0.00000     0.00000     0.00000  0.0
    489    512    513    527   5     0.00000     0.00000     0.00000  0.0
    525    512    513    514   5     0.00000     0.00000     0.00000  0.0
    525    512    513    526   5     0.00000     0.00000     0.00000  0.0
    525    512    513    527   5     0.00000     0.00000     0.00000  0.0
    512    513    514    515   5     3.67355     4.10869     2.37651  0.0
    512    513    514    528   5     0.00000     0.00000     1.25520  0.0
    512    513    514    529   5     0.00000     0.00000     1.25520  0.0
    526    513    514    515   5     0.00000     0.00000     1.25520  0.0
    526    513    514    528   5     0.00000     0.00000     1.25520  0.0
    526    513    514    529   5     0.00000     0.00000     1.25520  0.0
    527    513    514    515   5     0.00000     0.00000     1.25520  0.0
    527    513    514    528   5     0.00000     0.00000     1.25520  0.0
    527    513    514    529   5     0.00000     0.00000     1.25520  0.0
    513    514    515    516   5     4.74884    -0.63178     1.67360  0.0
    513    514    515    530   5     0.00000     0.00000     1.25520  0.0
    513    514    515    531   5     0.00000     0.00000     1.25520  0.0
    528    514    515    516   5     0.00000     0.00000     1.25520  0.0
    528    514    515    530   5     0.00000     0.00000     1.25520  0.0
    528    514    515    531   5     0.00000     0.00000     1.25520  0.0
    529    514    515    516   5     0.00000     0.00000     1.25520  0.0
    529    514    515    530   5     0.00000     0.00000     1.25520  0.0
    529    514    515    531   5     0.00000     0.00000     1.25520  0.0
    514    515    516    517   5     4.74884    -0.63178     1.67360  0.0
    514    515    516    532   5     0.00000     0.00000     1.25520  0.0
    514    515    516    533   5     0.00000     0.00000     1.25520  0.0
    530    515    516    517   5     0.00000     0.00000     1.25520  0.0
    530    515    516    532   5     0.00000     0.00000     1.25520  0.0
    530    515    516    533   5     0.00000     0.00000     1.25520  0.0
    531    515    516    517   5     0.00000     0.00000     1.25520  0.0
    531    515    516    532   5     0.00000     0.00000     1.25520  0.0
    531    515    516    533   5     0.00000     0.00000     1.25520  0.0
    515    516    517    518   5     4.74884    -0.63178     1.67360  0.0
    515    516    517    534   5     0.00000     0.00000     1.25520  0.0
    515    516    517    535   5     0.00000     0.00000     1.25520  0.0
    532    516    517    518   5     0.00000     0.00000     1.25520  0.0
    532    516    517    534   5     0.00000     0.00000     1.25520  0.0
    532    516    517    535   5     0.00000     0.00000     1.25520  0.0
    533    516    517    518   5     0.00000     0.00000     1.25520  0.0
    533    516    517    534   5     0.00000     0.00000     1.25520  0.0
    533    516    517    535   5     0.00000     0.00000     1.25520  0.0
    516    517    518    519   5     4.74884    -0.63178     1.67360  0.0
    516    517    518    536   5     0.00000     0.00000     1.25520  0.0
    516    517    518    537   5     0.00000     0.00000     1.25520  0.0
    534    517    518    519   5     0.00000     0.00000     1.25520  0.0
    534    517    518    536   5     0.00000     0.00000     1.25520  0.0
    534    517    518    537   5     0.00000     0.00000     1.25520  0.0
    535    517    518    519   5     0.00000     0.00000     1.25520  0.0
    535    517    518    536   5     0.00000     0.00000     1.25520  0.0
    535    517    518    537   5     0.00000     0.00000     1.25520  0.0
    517    518    519    520   5     4.74884    -0.63178     1.67360  0.0
    517    518    519    538   5     0.00000     0.00000     1.25520  0.0
    517    518    519    539   5     0.00000     0.00000     1.25520  0.0
    536    518    519    520   5     0.00000     0.00000     1.25520  0.0
    536    518    519    538   5     0.00000     0.00000     1.25520  0.0
    536    518    519    539   5     0.00000     0.00000     1.25520  0.0
    537    518    519    520   5     0.00000     0.00000     1.25520  0.0
    537    518    519    538   5     0.00000     0.00000     1.25520  0.0
    537    518    519    539   5     0.00000     0.00000     1.25520  0.0
    518    519    520    521   5     4.74884    -0.63178     1.67360  0.0
    518    519    520    540   5     0.00000     0.00000     1.25520  0.0
    518    519    520    541   5     0.00000     0.00000     1.25520  0.0
    538    519    520    521   5     0.00000     0.00000     1.25520  0.0
    538    519    520    540   5     0.00000     0.00000     1.25520  0.0
    538    519    520    541   5     0.00000     0.00000     1.25520  0.0
    539    519    520    521   5     0.00000     0.00000     1.25520  0.0
    539    519    520    540   5     0.00000     0.00000     1.25520  0.0
    539    519    520    541   5     0.00000     0.00000     1.25520  0.0
    519    520    521    522   5     4.74884    -0.63178     1.67360  0.0
    519    520    521    542   5     0.00000     0.00000     1.25520  0.0
    519    520    521    543   5     0.00000     0.00000     1.25520  0.0
    540    520    521    522   5     0.00000     0.00000     1.25520  0.0
    540    520    521    542   5     0.00000     0.00000     1.25520  0.0
    540    520    521    543   5     0.00000     0.00000     1.25520  0.0
    541    520    521    522   5     0.00000     0.00000     1.25520  0.0
    541    520    521    542   5     0.00000     0.00000     1.25520  0.0
    541    520    521    543   5     0.00000     0.00000     1.25520  0.0
    520    521    522    523   5    -8.00818    -1.52298     2.46438  0.0
    520    521    522    544   5     0.00000     0.00000     1.25520  0.0
    520    521    522    545   5     0.00000     0.00000     1.25520  0.0
    542    521    522    523   5     0.00000     0.00000    -0.94140  0.0
    542    521    522    544   5     0.00000     0.00000     1.25520  0.0
    542    521    522    545   5     0.00000     0.00000     1.25520  0.0
    543    521    522    523   5     0.00000     0.00000    -0.94140  0.0
    543    521    522    544   5     0.00000     0.00000     1.25520  0.0
    543    521    522    545   5     0.00000     0.00000     1.25520  0.0
    521    522    523    524   5     0.00000     2.52295     0.00000  0.0
    521    522    523    546   5    11.69428    -0.66526    -1.56900  0.0
    544    522    523    524   5     0.00000     0.00000     0.00000  0.0
    544    522    523    546   5     0.00000     0.00000     0.00000  0.0
    545    522    523    524   5     0.00000     0.00000     0.00000  0.0
    545    522    523    546   5     0.00000     0.00000     0.00000  0.0
    522    523    546    547   5    12.53945    12.88254     0.00000  0.0
    522    523    546    559   5     0.00000    20.50160     0.00000  0.0
    524    523    546    547   5     0.00000    25.47638     0.00000  0.0
    524    523    546    559   5     0.00000    20.50160     0.00000  0.0
    523    546    547    548   5    -3.67774    -0.67781     0.28033  0.0
    523    546    547    560   5     0.00000     0.00000     0.00000  0.0
    523    546    547    561   5     0.00000     0.00000     0.00000  0.0
    559    546    547    548   5     0.00000     0.00000     0.00000  0.0
    559    546    547    560   5     0.00000     0.00000     0.00000  0.0
    559    546    547    561   5     0.00000     0.00000     0.00000  0.0
    546    547    548    549   5     3.67355     4.10869     2.37651  0.0
    546    547    548    562   5     0.00000     0.00000     1.25520  0.0
    546    547    548    563   5     0.00000     0.00000     1.25520  0.0
    560    547    548    549   5     0.00000     0.00000     1.25520  0.0
    560    547    548    562   5     0.00000     0.00000     1.25520  0.0
    560    547    548    563   5     0.00000     0.00000     1.25520  0.0
    561    547    548    549   5     0.00000     0.00000     1.25520  0.0
    561    547    548    562   5     0.00000     0.00000     1.25520  0.0
    561    547    548    563   5     0.00000     0.00000     1.25520  0.0
    547    548    549    550   5     4.74884    -0.63178     1.67360  0.0
    547    548    549    564   5     0.00000     0.00000     1.25520  0.0
    547    548    549    565   5     0.00000     0.00000     1.25520  0.0
    562    548    549    550   5     0.00000     0.00000     1.25520  0.0
    562    548    549    564   5     0.00000     0.00000     1.25520  0.0
    562    548    549    565   5     0.00000     0.00000     1.25520  0.0
    563    548    549    550   5     0.00000     0.00000     1.25520  0.0
    563    548    549    564   5     0.00000     0.00000     1.25520  0.0
    563    548    549    565   5     0.00000     0.00000     1.25520  0.0
    548    549    550    551   5     4.74884    -0.63178     1.67360  0.0
    548    549    550    566   5     0.00000     0.00000     1.25520  0.0
    548    549    550    567   5     0.00000     0.00000     1.25520  0.0
    564    549    550    551   5     0.00000     0.00000     1.25520  0.0
    564    549    550    566   5     0.00000     0.00000     1.25520  0.0
    564    549    550    567   5     0.00000     0.00000     1.25520  0.0
    565    549    550    551   5     0.00000     0.00000     1.25520  0.0
    565    549    550    566   5     0.00000     0.00000     1.25520  0.0
    565    549    550    567   5     0.00000     0.00000     1.25520  0.0
    549    550    551    552   5     4.74884    -0.63178     1.67360  0.0
    549    550    551    568   5     0.00000     0.00000     1.25520  0.0
    549    550    551    569   5     0.00000     0.00000     1.25520  0.0
    566    550    551    552   5     0.00000     0.00000     1.25520  0.0
    566    550    551    568   5     0.00000     0.00000     1.25520  0.0
    566    550    551    569   5     0.00000     0.00000     1.25520  0.0
    567    550    551    552   5     0.00000     0.00000     1.25520  0.0
    567    550    551    568   5     0.00000     0.00000     1.25520  0.0
    567    550    551    569   5     0.00000     0.00000     1.25520  0.0
    550    551    552    553   5     4.74884    -0.63178     1.67360  0.0
    550    551    552    570   5     0.00000     0.00000     1.25520  0.0
    550    551    552    571   5     0.00000     0.00000     1.25520  0.0
    568    551    552    553   5     0.00000     0.00000     1.25520  0.0
    568    551    552    570   5     0.00000     0.00000     1.25520  0.0
    568    551    552    571   5     0.00000     0.00000     1.25520  0.0
    569    551    552    553   5     0.00000     0.00000     1.25520  0.0
    569    551    552    570   5     0.00000     0.00000     1.25520  0.0
    569    551    552    571   5     0.00000     0.00000     1.25520  0.0
    551    552    553    554   5     4.74884    -0.63178     1.67360  0.0
    551    552    553    572   5     0.00000     0.00000     1.25520  0.0
    551    552    553    573   5     0.00000     0.00000     1.25520  0.0
    570    552    553    554   5     0.00000     0.00000     1.25520  0.0
    570    552    553    572   5     0.00000     0.00000     1.25520  0.0
    570    552    553    573   5     0.00000     0.00000     1.25520  0.0
    571    552    553    554   5     0.00000     0.00000     1.25520  0.0
    571    552    553    572   5     0.00000     0.00000     1.25520  0.0
    571    552    553    573   5     0.00000     0.00000     1.25520  0.0
    552    553    554    555   5     4.74884    -0.63178     1.67360  0.0
    552    553    554    574   5     0.00000     0.00000     1.25520  0.0
    552    553    554    575   5     0.00000     0.00000     1.25520  0.0
    572    553    554    555   5     0.00000     0.00000     1.25520  0.0
    572    553    554    574   5     0.00000     0.00000     1.25520  0.0
    572    553    554    575   5     0.00000     0.00000     1.25520  0.0
    573    553    554    555   5     0.00000     0.00000     1.25520  0.0
    573    553    554    574   5     0.00000     0.00000     1.25520  0.0
    573    553    554    575   5     0.00000     0.00000     1.25520  0.0
    553    554    555    556   5     4.74884    -0.63178     1.67360  0.0
    553    554    555    576   5     0.00000     0.00000     1.25520  0.0
    553    554    555    577   5     0.00000     0.00000     1.25520  0.0
    574    554    555    556   5     0.00000     0.00000     1.25520  0.0
    574    554    555    576   5     0.00000     0.00000     1.25520  0.0
    574    554    555    577   5     0.00000     0.00000     1.25520  0.0
    575    554    555    556   5     0.00000     0.00000     1.25520  0.0
    575    554    555    576   5     0.00000     0.00000     1.25520  0.0
    575    554    555    577   5     0.00000     0.00000     1.25520  0.0
    554    555    556    557   5    -8.00818    -1.52298     2.46438  0.0
    554    555    556    578   5     0.00000     0.00000     1.25520  0.0
    554    555    556    579   5     0.00000     0.00000     1.25520  0.0
    576    555    556    557   5     0.00000     0.00000    -0.94140  0.0
    576    555    556    578   5     0.00000     0.00000     1.25520  0.0
    576    555    556    579   5     0.00000     0.00000     1.25520  0.0
    577    555    556    557   5     0.00000     0.00000    -0.94140  0.0
    577    555    556    578   5     0.00000     0.00000     1.25520  0.0
    577    555    556    579   5     0.00000     0.00000     1.25520  0.0
    555    556    557    558   5     0.00000     2.52295     0.00000  0.0
    555    556    557    580   5    11.69428    -0.66526    -1.56900  0.0
    578    556    557    558   5     0.00000     0.00000     0.00000  0.0
    578    556    557    580   5     0.00000     0.00000     0.00000  0.0
    579    556    557    558   5     0.00000     0.00000     0.00000  0.0
    579    556    557    580   5     0.00000     0.00000     0.00000  0.0
    556    557    580    581   5    12.53945    12.88254     0.00000  0.0
    556    557    580    593   5     0.00000    20.50160     0.00000  0.0
    558    557    580    581   5     0.00000    25.47638     0.00000  0.0
    558    557    580    593   5     0.00000    20.50160     0.00000  0.0
    557    580    581    582   5    -3.67774    -0.67781     0.28033  0.0
    557    580    581    594   5     0.00000     0.00000     0.00000  0.0
    557    580    581    595   5     0.00000     0.00000     0.00000  0.0
    593    580    581    582   5     0.00000     0.00000     0.00000  0.0
    593    580    581    594   5     0.00000     0.00000     0.00000  0.0
    593    580    581    595   5     0.00000     0.00000     0.00000  0.0
    580    581    582    583   5     3.67355     4.10869     2.37651  0.0
    580    581    582    596   5     0.00000     0.00000     1.25520  0.0
    580    581    582    597   5     0.00000     0.00000     1.25520  0.0
    594    581    582    583   5     0.00000     0.00000     1.25520  0.0
    594    581    582    596   5     0.00000     0.00000     1.25520  0.0
    594    581    582    597   5     0.00000     0.00000     1.25520  0.0
    595    581    582    583   5     0.00000     0.00000     1.25520  0.0
    595    581    582    596   5     0.00000     0.00000     1.25520  0.0
    595    581    582    597   5     0.00000     0.00000     1.25520  0.0
    581    582    583    584   5     4.74884    -0.63178     1.67360  0.0
    581    582    583    598   5     0.00000     0.00000     1.25520  0.0
    581    582    583    599   5     0.00000     0.00000     1.25520  0.0
    596    582    583    584   5     0.00000     0.00000     1.25520  0.0
    596    582    583    598   5     0.00000     0.00000     1.25520  0.0
    596    582    583    599   5     0.00000     0.00000     1.25520  0.0
    597    582    583    584   5     0.00000     0.00000     1.25520  0.0
    597    582    583    598   5     0.00000     0.00000     1.25520  0.0
    597    582    583    599   5     0.00000     0.00000     1.25520  0.0
    582    583    584    585   5     4.74884    -0.63178     1.67360  0.0
    582    583    584    600   5     0.00000     0.00000     1.25520  0.0
    582    583    584    601   5     0.00000     0.00000     1.25520  0.0
    598    583    584    585   5     0.00000     0.00000     1.25520  0.0
    598    583    584    600   5     0.00000     0.00000     1.25520  0.0
    598    583    584    601   5     0.00000     0.00000     1.25520  0.0
    599    583    584    585   5     0.00000     0.00000     1.25520  0.0
    599    583    584    600   5     0.00000     0.00000     1.25520  0.0
    599    583    584    601   5     0.00000     0.00000     1.25520  0.0
    583    584    585    586   5     4.74884    -0.63178     1.67360  0.0
    583    584    585    602   5     0.00000     0.00000     1.25520  0.0
    583    584    585    603   5     0.00000     0.00000     1.25520  0.0
    600    584    585    586   5     0.00000     0.00000     1.25520  0.0
    600    584    585    602   5     0.00000     0.00000     1.25520  0.0
    600    584    585    603   5     0.00000     0.00000     1.25520  0.0
    601    584    585    586   5     0.00000     0.00000     1.25520  0.0
    601    584    585    602   5     0.00000     0.00000     1.25520  0.0
    601    584    585    603   5     0.00000     0.00000     1.25520  0.0
    584    585    586    587   5     4.74884    -0.63178     1.67360  0.0
    584    585    586    604   5     0.00000     0.00000     1.25520  0.0
    584    585    586    605   5     0.00000     0.00000     1.25520  0.0
    602    585    586    587   5     0.00000     0.00000     1.25520  0.0
    602    585    586    604   5     0.00000     0.00000     1.25520  0.0
    602    585    586    605   5     0.00000     0.00000     1.25520  0.0
    603    585    586    587   5     0.00000     0.00000     1.25520  0.0
    603    585    586    604   5     0.00000     0.00000     1.25520  0.0
    603    585    586    605   5     0.00000     0.00000     1.25520  0.0
    585    586    587    588   5     4.74884    -0.63178     1.67360  0.0
    585    586    587    606   5     0.00000     0.00000     1.25520  0.0
    585    586    587    607   5     0.00000     0.00000     1.25520  0.0
    604    586    587    588   5     0.00000     0.00000     1.25520  0.0
    604    586    587    606   5     0.00000     0.00000     1.25520  0.0
    604    586    587    607   5     0.00000     0.00000     1.25520  0.0
    605    586    587    588   5     0.00000     0.00000     1.25520  0.0
    605    586    587    606   5     0.00000     0.00000     1.25520  0.0
    605    586    587    607   5     0.00000     0.00000     1.25520  0.0
    586    587    588    589   5     4.74884    -0.63178     1.67360  0.0
    586    587    588    608   5     0.00000     0.00000     1.25520  0.0
    586    587    588    609   5     0.00000     0.00000     1.25520  0.0
    606    587    588    589   5     0.00000     0.00000     1.25520  0.0
    606    587    588    608   5     0.00000     0.00000     1.25520  0.0
    606    587    588    609   5     0.00000     0.00000     1.25520  0.0
    607    587    588    589   5     0.00000     0.00000     1.25520  0.0
    607    587    588    608   5     0.00000     0.00000     1.25520  0.0
    607    587    588    609   5     0.00000     0.00000     1.25520  0.0
    587    588    589    590   5     4.74884    -0.63178     1.67360  0.0
    587    588    589    610   5     0.00000     0.00000     1.25520  0.0
    587    588    589    611   5     0.00000     0.00000     1.25520  0.0
    608    588    589    590   5     0.00000     0.00000     1.25520  0.0
    608    588    589    610   5     0.00000     0.00000     1.25520  0.0
    608    588    589    611   5     0.00000     0.00000     1.25520  0.0
    609    588    589    590   5     0.00000     0.00000     1.25520  0.0
    609    588    589    610   5     0.00000     0.00000     1.25520  0.0
    609    588    589    611   5     0.00000     0.00000     1.25520  0.0
    588    589    590    591   5    -8.00818    -1.52298     2.46438  0.0
    588    589    590    612   5     0.00000     0.00000     1.25520  0.0
    588    589    590    613   5     0.00000     0.00000     1.25520  0.0
    610    589    590    591   5     0.00000     0.00000    -0.94140  0.0
    610    589    590    612   5     0.00000     0.00000     1.25520  0.0
    610    589    590    613   5     0.00000     0.00000     1.25520  0.0
    611    589    590    591   5     0.00000     0.00000    -0.94140  0.0
    611    589    590    612   5     0.00000     0.00000     1.25520  0.0
    611    589    590    613   5     0.00000     0.00000     1.25520  0.0
    589    590    591    592   5     0.00000     2.52295     0.00000  0.0
    589    590    591    614   5    11.69428    -0.66526    -1.56900  0.0
    612    590    591    592   5     0.00000     0.00000     0.00000  0.0
    612    590    591    614   5     0.00000     0.00000     0.00000  0.0
    613    590    591    592   5     0.00000     0.00000     0.00000  0.0
    613    590    591    614   5     0.00000     0.00000     0.00000  0.0
    590    591    614    615   5    12.53945    12.88254     0.00000  0.0
    590    591    614    627   5     0.00000    20.50160     0.00000  0.0
    592    591    614    615   5     0.00000    25.47638     0.00000  0.0
    592    591    614    627   5     0.00000    20.50160     0.00000  0.0
    591    614    615    616   5    -3.67774    -0.67781     0.28033  0.0
    591    614    615    628   5     0.00000     0.00000     0.00000  0.0
    591    614    615    629   5     0.00000     0.00000     0.00000  0.0
    627    614    615    616   5     0.00000     0.00000     0.00000  0.0
    627    614    615    628   5     0.00000     0.00000     0.00000  0.0
    627    614    615    629   5     0.00000     0.00000     0.00000  0.0
    614    615    616    617   5     3.67355     4.10869     2.37651  0.0
    614    615    616    630   5     0.00000     0.00000     1.25520  0.0
    614    615    616    631   5     0.00000     0.00000     1.25520  0.0
    628    615    616    617   5     0.00000     0.00000     1.25520  0.0
    628    615    616    630   5     0.00000     0.00000     1.25520  0.0
    628    615    616    631   5     0.00000     0.00000     1.25520  0.0
    629    615    616    617   5     0.00000     0.00000     1.25520  0.0
    629    615    616    630   5     0.00000     0.00000     1.25520  0.0
    629    615    616    631   5     0.00000     0.00000     1.25520  0.0
    615    616    617    618   5     4.74884    -0.63178     1.67360  0.0
    615    616    617    632   5     0.00000     0.00000     1.25520  0.0
    615    616    617    633   5     0.00000     0.00000     1.25520  0.0
    630    616    617    618   5     0.00000     0.00000     1.25520  0.0
    630    616    617    632   5     0.00000     0.00000     1.25520  0.0
    630    616    617    633   5     0.00000     0.00000     1.25520  0.0
    631    616    617    618   5     0.00000     0.00000     1.25520  0.0
    631    616    617    632   5     0.00000     0.00000     1.25520  0.0
    631    616    617    633   5     0.00000     0.00000     1.25520  0.0
    616    617    618    619   5     4.74884    -0.63178     1.67360  0.0
    616    617    618    634   5     0.00000     0.00000     1.25520  0.0
    616    617    618    635   5     0.00000     0.00000     1.25520  0.0
    632    617    618    619   5     0.00000     0.00000     1.25520  0.0
    632    617    618    634   5     0.00000     0.00000     1.25520  0.0
    632    617    618    635   5     0.00000     0.00000     1.25520  0.0
    633    617    618    619   5     0.00000     0.00000     1.25520  0.0
    633    617    618    634   5     0.00000     0.00000     1.25520  0.0
    633    617    618    635   5     0.00000     0.00000     1.25520  0.0
    617    618    619    620   5     4.74884    -0.63178     1.67360  0.0
    617    618    619    636   5     0.00000     0.00000     1.25520  0.0
    617    618    619    637   5     0.00000     0.00000     1.25520  0.0
    634    618    619    620   5     0.00000     0.00000     1.25520  0.0
    634    618    619    636   5     0.00000     0.00000     1.25520  0.0
    634    618    619    637   5     0.00000     0.00000     1.25520  0.0
    635    618    619    620   5     0.00000     0.00000     1.25520  0.0
    635    618    619    636   5     0.00000     0.00000     1.25520  0.0
    635    618    619    637   5     0.00000     0.00000     1.25520  0.0
    618    619    620    621   5     4.74884    -0.63178     1.67360  0.0
    618    619    620    638   5     0.00000     0.00000     1.25520  0.0
    618    619    620    639   5     0.00000     0.00000     1.25520  0.0
    636    619    620    621   5     0.00000     0.00000     1.25520  0.0
    636    619    620    638   5     0.00000     0.00000     1.25520  0.0
    636    619    620    639   5     0.00000     0.00000     1.25520  0.0
    637    619    620    621   5     0.00000     0.00000     1.25520  0.0
    637    619    620    638   5     0.00000     0.00000     1.25520  0.0
    637    619    620    639   5     0.00000     0.00000     1.25520  0.0
    619    620    621    622   5     4.74884    -0.63178     1.67360  0.0
    619    620    621    640   5     0.00000     0.00000     1.25520  0.0
    619    620    621    641   5     0.00000     0.00000     1.25520  0.0
    638    620    621    622   5     0.00000     0.00000     1.25520  0.0
    638    620    621    640   5     0.00000     0.00000     1.25520  0.0
    638    620    621    641   5     0.00000     0.00000     1.25520  0.0
    639    620    621    622   5     0.00000     0.00000     1.25520  0.0
    639    620    621    640   5     0.00000     0.00000     1.25520  0.0
    639    620    621    641   5     0.00000     0.00000     1.25520  0.0
    620    621    622    623   5     4.74884    -0.63178     1.67360  0.0
    620    621    622    642   5     0.00000     0.00000     1.25520  0.0
    620    621    622    643   5     0.00000     0.00000     1.25520  0.0
    640    621    622    623   5     0.00000     0.00000     1.25520  0.0
    640    621    622    642   5     0.00000     0.00000     1.25520  0.0
    640    621    622    643   5     0.00000     0.00000     1.25520  0.0
    641    621    622    623   5     0.00000     0.00000     1.25520  0.0
    641    621    622    642   5     0.00000     0.00000     1.25520  0.0
    641    621    622    643   5     0.00000     0.00000     1.25520  0.0
    621    622    623    624   5     4.74884    -0.63178     1.67360  0.0
    621    622    623    644   5     0.00000     0.00000     1.25520  0.0
    621    622    623    645   5     0.00000     0.00000     1.25520  0.0
    642    622    623    624   5     0.00000     0.00000     1.25520  0.0
    642    622    623    644   5     0.00000     0.00000     1.25520  0.0
    642    622    623    645   5     0.00000     0.00000     1.25520  0.0
    643    622    623    624   5     0.00000     0.00000     1.25520  0.0
    643    622    623    644   5     0.00000     0.00000     1.25520  0.0
    643    622    623    645   5     0.00000     0.00000     1.25520  0.0
    622    623    624    625   5    -8.00818    -1.52298     2.46438  0.0
    622    623    624    646   5     0.00000     0.00000     1.25520  0.0
    622    623    624    647   5     0.00000     0.00000     1.25520  0.0
    644    623    624    625   5     0.00000     0.00000    -0.94140  0.0
    644    623    624    646   5     0.00000     0.00000     1.25520  0.0
    644    623    624    647   5     0.00000     0.00000     1.25520  0.0
    645    623    624    625   5     0.00000     0.00000    -0.94140  0.0
    645    623    624    646   5     0.00000     0.00000     1.25520  0.0
    645    623    624    647   5     0.00000     0.00000     1.25520  0.0
    623    624    625    626   5     0.00000     2.52295     0.00000  0.0
    623    624    625    648   5    11.69428    -0.66526    -1.56900  0.0
    646    624    625    626   5     0.00000     0.00000     0.00000  0.0
    646    624    625    648   5     0.00000     0.00000     0.00000  0.0
    647    624    625    626   5     0.00000     0.00000     0.00000  0.0
    647    624    625    648   5     0.00000     0.00000     0.00000  0.0
    624    625    648    649   5    12.53945    12.88254     0.00000  0.0
    624    625    648    661   5     0.00000    20.50160     0.00000  0.0
    626    625    648    649   5     0.00000    25.47638     0.00000  0.0
    626    625    648    661   5     0.00000    20.50160     0.00000  0.0
    625    648    649    650   5    -3.67774    -0.67781     0.28033  0.0
    625    648    649    662   5     0.00000     0.00000     0.00000  0.0
    625    648    649    663   5     0.00000     0.00000     0.00000  0.0
    661    648    649    650   5     0.00000     0.00000     0.00000  0.0
    661    648    649    662   5     0.00000     0.00000     0.00000  0.0
    661    648    649    663   5     0.00000     0.00000     0.00000  0.0
    648    649    650    651   5     3.67355     4.10869     2.37651  0.0
    648    649    650    664   5     0.00000     0.00000     1.25520  0.0
    648    649    650    665   5     0.00000     0.00000     1.25520  0.0
    662    649    650    651   5     0.00000     0.00000     1.25520  0.0
    662    649    650    664   5     0.00000     0.00000     1.25520  0.0
    662    649    650    665   5     0.00000     0.00000     1.25520  0.0
    663    649    650    651   5     0.00000     0.00000     1.25520  0.0
    663    649    650    664   5     0.00000     0.00000     1.25520  0.0
    663    649    650    665   5     0.00000     0.00000     1.25520  0.0
    649    650    651    652   5     4.74884    -0.63178     1.67360  0.0
    649    650    651    666   5     0.00000     0.00000     1.25520  0.0
    649    650    651    667   5     0.00000     0.00000     1.25520  0.0
    664    650    651    652   5     0.00000     0.00000     1.25520  0.0
    664    650    651    666   5     0.00000     0.00000     1.25520  0.0
    664    650    651    667   5     0.00000     0.00000     1.25520  0.0
    665    650    651    652   5     0.00000     0.00000     1.25520  0.0
    665    650    651    666   5     0.00000     0.00000     1.25520  0.0
    665    650    651    667   5     0.00000     0.00000     1.25520  0.0
    650    651    652    653   5     4.74884    -0.63178     1.67360  0.0
    650    651    652    668   5     0.00000     0.00000     1.25520  0.0
    650    651    652    669   5     0.00000     0.00000     1.25520  0.0
    666    651    652    653   5     0.00000     0.00000     1.25520  0.0
    666    651    652    668   5     0.00000     0.00000     1.25520  0.0
    666    651    652    669   5     0.00000     0.00000     1.25520  0.0
    667    651    652    653   5     0.00000     0.00000     1.25520  0.0
    667    651    652    668   5     0.00000     0.00000     1.25520  0.0
    667    651    652    669   5     0.00000     0.00000     1.25520  0.0
    651    652    653    654   5     4.74884    -0.63178     1.67360  0.0
    651    652    653    670   5     0.00000     0.00000     1.25520  0.0
    651    652    653    671   5     0.00000     0.00000     1.25520  0.0
    668    652    653    654   5     0.00000     0.00000     1.25520  0.0
    668    652    653    670   5     0.00000     0.00000     1.25520  0.0
    668    652    653    671   5     0.00000     0.00000     1.25520  0.0
    669    652    653    654   5     0.00000     0.00000     1.25520  0.0
    669    652    653    670   5     0.00000     0.00000     1.25520  0.0
    669    652    653    671   5     0.00000     0.00000     1.25520  0.0
    652    653    654    655   5     4.74884    -0.63178     1.67360  0.0
    652    653    654    672   5     0.00000     0.00000     1.25520  0.0
    652    653    654    673   5     0.00000     0.00000     1.25520  0.0
    670    653    654    655   5     0.00000     0.00000     1.25520  0.0
    670    653    654    672   5     0.00000     0.00000     1.25520  0.0
    670    653    654    673   5     0.00000     0.00000     1.25520  0.0
    671    653    654    655   5     0.00000     0.00000     1.25520  0.0
    671    653    654    672   5     0.00000     0.00000     1.25520  0.0
    671    653    654    673   5     0.00000     0.00000     1.25520  0.0
    653    654    655    656   5     4.74884    -0.63178     1.67360  0.0
    653    654    655    674   5     0.00000     0.00000     1.25520  0.0
    653    654    655    675   5     0.00000     0.00000     1.25520  0.0
    672    654    655    656   5     0.00000     0.00000     1.25520  0.0
    672    654    655    674   5     0.00000     0.00000     1.25520  0.0
    672    654    655    675   5     0.00000     0.00000     1.25520  0.0
    673    654    655    656   5     0.00000     0.00000     1.25520  0.0
    673    654    655    674   5     0.00000     0.00000     1.25520  0.0
    673    654    655    675   5     0.00000     0.00000     1.25520  0.0
    654    655    656    657   5     4.74884    -0.63178     1.67360  0.0
    654    655    656    676   5     0.00000     0.00000     1.25520  0.0
    654    655    656    677   5     0.00000     0.00000     1.25520  0.0
    674    655    656    657   5     0.00000     0.00000     1.25520  0.0
    674    655    656    676   5     0.00000     0.00000     1.25520  0.0
    674    655    656    677   5     0.00000     0.00000     1.25520  0.0
    675    655    656    657   5     0.00000     0.00000     1.25520  0.0
    675    655    656    676   5     0.00000     0.00000     1.25520  0.0
    675    655    656    677   5     0.00000     0.00000     1.25520  0.0
    655    656    657    658   5     4.74884    -0.63178     1.67360  0.0
    655    656    657    678   5     0.00000     0.00000     1.25520  0.0
    655    656    657    679   5     0.00000     0.00000     1.25520  0.0
    676    656    657    658   5     0.00000     0.00000     1.25520  0.0
    676    656    657    678   5     0.00000     0.00000     1.25520  0.0
    676    656    657    679   5     0.00000     0.00000     1.25520  0.0
    677    656    657    658   5     0.00000     0.00000     1.25520  0.0
    677    656    657    678   5     0.00000     0.00000     1.25520  0.0
    677    656    657    679   5     0.00000     0.00000     1.25520  0.0
    656    657    658    659   5    -8.00818    -1.52298     2.46438  0.0
    656    657    658    680   5     0.00000     0.00000     1.25520  0.0
    656    657    658    681   5     0.00000     0.00000     1.25520  0.0
    678    657    658    659   5     0.00000     0.00000    -0.94140  0.0
    678    657    658    680   5     0.00000     0.00000     1.25520  0.0
    678    657    658    681   5     0.00000     0.00000     1.25520  0.0
    679    657    658    659   5     0.00000     0.00000    -0.94140  0.0
    679    657    658    680   5     0.00000     0.00000     1.25520  0.0
    679    657    658    681   5     0.00000     0.00000     1.25520  0.0
    657    658    659    660   5     0.00000     2.52295     0.00000  0.0
    657    658    659    682   5     6.23834    -0.04184     0.00000  0.0
    680    658    659    660   5     0.00000     0.00000     0.00000  0.0
    680    658    659    682   5     0.00000     0.00000     0.00000  0.0
    681    658    659    660   5     0.00000     0.00000     0.00000  0.0
    681    658    659    682   5     0.00000     0.00000     0.00000  0.0

[ dihedrals ]
; Improper dihedrals
; h   i   j   k   funct
     11     13     12     36   5     0.00000    87.86400     0.00000  0.0
     12     37     36     49   5     0.00000     8.36800     0.00000  0.0
     46     48     47     70   5     0.00000    87.86400     0.00000  0.0
     47     71     70     83   5     0.00000     8.36800     0.00000  0.0
     80     82     81    104   5     0.00000    87.86400     0.00000  0.0
     81    105    104    117   5     0.00000     8.36800     0.00000  0.0
    114    116    115    138   5     0.00000    87.86400     0.00000  0.0
    115    139    138    151   5     0.00000     8.36800     0.00000  0.0
    148    150    149    172   5     0.00000    87.86400     0.00000  0.0
    149    173    172    185   5     0.00000     8.36800     0.00000  0.0
    182    184    183    206   5     0.00000    87.86400     0.00000  0.0
    183    207    206    219   5     0.00000     8.36800     0.00000  0.0
    216    218    217    240   5     0.00000    87.86400     0.00000  0.0
    217    241    240    253   5     0.00000     8.36800     0.00000  0.0
    250    252    251    274   5     0.00000    87.86400     0.00000  0.0
    251    275    274    287   5     0.00000     8.36800     0.00000  0.0
    284    286    285    308   5     0.00000    87.86400     0.00000  0.0
    285    309    308    321   5     0.00000     8.36800     0.00000  0.0
    318    320    319    342   5     0.00000    87.86400     0.00000  0.0
    319    343    342    355   5     0.00000     8.36800     0.00000  0.0
    352    354    353    376   5     0.00000    87.86400     0.00000  0.0
    353    377    376    389   5     0.00000     8.36800     0.00000  0.0
    386    388    387    410   5     0.00000    87.86400     0.00000  0.0
    387    411    410    423   5     0.00000     8.36800     0.00000  0.0
    420    422    421    444   5     0.00000    87.86400     0.00000  0.0
    421    445    444    457   5     0.00000     8.36800     0.00000  0.0
    454    456    455    478   5     0.00000    87.86400     0.00000  0.0
    455    479    478    491   5     0.00000     8.36800     0.00000  0.0
    488    490    489    512   5     0.00000    87.86400     0.00000  0.0
    489    513    512    525   5     0.00000     8.36800     0.00000  0.0
    522    524    523    546   5     0.00000    87.86400     0.00000  0.0
    523    547    546    559   5     0.00000     8.36800     0.00000  0.0
    556    558    557    580   5     0.00000    87.86400     0.00000  0.0
    557    581    580    593   5     0.00000     8.36800     0.00000  0.0
    590    592    591    614   5     0.00000    87.86400     0.00000  0.0
    591    615    614    627   5     0.00000     8.36800     0.00000  0.0
    624    626    625    648   5     0.00000    87.86400     0.00000  0.0
    625    649    648    661   5     0.00000     8.36800     0.00000  0.0
    658    660    659    682   5     0.00000    87.86400     0.00000  0.0
